********************************************************************************
*                       GENERAL UTILITY LATTICE PROGRAM                        *
*                                 Julian Gale                                  *
*                       Curtin Institute for Computation                       *
*                    School of Molecular and Life Sciences                     *
*                    Curtin University, Western Australia                      *
********************************************************************************
* Version = 5.2.0 * Last modified =  10th September 2020                       *
********************************************************************************
*  optimise     - perform optimisation run                                     *
*  conp         - constant pressure calculation                                *
*  property     - calculate properties for final geometry                      *
*  defect       - perform defect calculation after bulk run                    *
*  compare      - compare initial and final structures                         *
********************************************************************************

  Job Started  at 12:05.03  3rd January    2021                               

  Number of CPUs =     1


  Total number of configurations input =      1

********************************************************************************
*  Input for Configuration =   1                                               *
********************************************************************************

  Formula = ClONa3                                                      

  Number of irreducible atoms/shells =       5


  Total number atoms/shells =       7

  Dimensionality = 3               :  Bulk   


  Symmetry :

  Crystal family                   :  Cubic       
  Crystal class  (Groth - 1921)    :  Cubic Hexakisoctahedral              

  Space group (centrosymmetric)    :  P M 3 M         

  Patterson group                  :  P m -3 m 

  Cartesian lattice vectors (Angstroms) :

        4.504000    0.000000    0.000000
        0.000000    4.504000    0.000000
        0.000000    0.000000    4.504000

  Cell parameters (Angstroms/Degrees):

  a =       4.5040    alpha =  90.0000
  b =       4.5040    beta  =  90.0000
  c =       4.5040    gamma =  90.0000

  Initial cell volume =          91.368216 Angs**3

  Temperature of configuration =   0.00     K 

  Pressure of configuration =         0.000 GPa 

  Fractional coordinates of asymmetric unit :

--------------------------------------------------------------------------------
   No.  Atomic       x           y          z         Charge      Occupancy
        Label      (Frac)      (Frac)     (Frac)        (e)         (Frac)  
--------------------------------------------------------------------------------
      1 Cl    c    0.000000    0.000000    0.000000     1.48500    1.000000    
      2 O     c    0.500000    0.500000    0.500000     0.18300    1.000000    
      3 Na    c    0.500000    0.500000    0.000000     1.00000    1.000000    
      4 Cl    s    0.000000    0.000000    0.000000    -2.48500    1.000000    
      5 O     s    0.500000    0.500000    0.500000    -2.18300    1.000000    
--------------------------------------------------------------------------------


  Constraints : 

--------------------------------------------------------------------------------
  Constraint no.      Unconstrained     Constrained    Coefficient    Offset
                         Variable         Variable
--------------------------------------------------------------------------------
           1              Strain 1        Strain 2       1.00000      0.0000
           2              Strain 1        Strain 3       1.00000      0.0000
--------------------------------------------------------------------------------


********************************************************************************
*  General input information                                                   *
********************************************************************************

  Species output for all configurations : 

--------------------------------------------------------------------------------
  Species    Type    Atomic    Atomic    Charge       Radii (Angs)     Library
                     Number     Mass       (e)     Cova   Ionic  VDW   Symbol
--------------------------------------------------------------------------------
    Na       Core       11      22.99   1.000000   0.970  0.000  2.300          
    O        Core        8      16.00   0.183000   0.730  0.000  1.360          
    O        Shell       8       0.00  -2.183000   0.730  0.000  1.360          
    Cl       Core       17      35.45   1.485000   0.990  0.000  1.650          
    Cl       Shell      17       0.00  -2.485000   0.990  0.000  1.650          
    Mg       Core       12      24.31   0.415000   1.100  0.000  0.000          
    Mg       Shell      12       0.00   1.585000   1.100  0.000  0.000          
    Ca       Core       20      40.08  -1.135000   0.990  0.000  0.000          
    Ca       Shell      20       0.00   3.135000   0.990  0.000  0.000          
    Sr       Core       38      87.62  -1.251000   1.120  0.000  0.000          
    Sr       Shell      38       0.00   3.251000   1.120  0.000  0.000          
    Ba       Core       56     137.33  -7.203000   1.340  0.000  0.000          
    Ba       Shell      56       0.00   9.203000   1.340  0.000  0.000          
--------------------------------------------------------------------------------


  Lattice summation method               =    Ewald          (3-D)
                                         =    Parry          (2-D)
                                         =    Saunders et al (1-D)
  Accuracy factor for lattice sums       =   12.000


  Analytic derivatives to be used

  Time limit = Infinity

  Maximum range for interatomic potentials =    100000.000000 Angstroms

  General interatomic potentials :

--------------------------------------------------------------------------------
Atom  Types   Potential      Parameter       Value         Units   Cutoffs(Ang)
  1     2                                                            Min /  Max 
--------------------------------------------------------------------------------
O    c O    s Spring (c-s)  Spring k 2       593.71600    eV*Ang^-2 0.000  0.800
                            Spring k 4       0.0000000    eV*Ang^-4 
--------------------------------------------------------------------------------
Cl   c Cl   s Spring (c-s)  Spring k 2       29.380000    eV*Ang^-2 0.000  0.800
                            Spring k 4       0.0000000    eV*Ang^-4 
--------------------------------------------------------------------------------
Mg   c Mg   s Spring (c-s)  Spring k 2       361.60000    eV*Ang^-2 0.000  0.800
                            Spring k 4       0.0000000    eV*Ang^-4 
--------------------------------------------------------------------------------
Ca   c Ca   s Spring (c-s)  Spring k 2       110.20000    eV*Ang^-2 0.000  0.800
                            Spring k 4       0.0000000    eV*Ang^-4 
--------------------------------------------------------------------------------
Sr   c Sr   s Spring (c-s)  Spring k 2       71.700000    eV*Ang^-2 0.000  0.800
                            Spring k 4       0.0000000    eV*Ang^-4 
--------------------------------------------------------------------------------
Ba   c Ba   s Spring (c-s)  Spring k 2       495.20000    eV*Ang^-2 0.000  0.800
                            Spring k 4       0.0000000    eV*Ang^-4 
--------------------------------------------------------------------------------
Na   c Na   c Buckingham    Buckingham A     1788.1900    eV        0.000 12.000
                            Buckingham rho  0.15900000    Ang       
                            Buckingham C     0.0000000    eV*Ang^6  
--------------------------------------------------------------------------------
Na   c O    s Buckingham    Buckingham A     477.56000    eV        0.000 12.000
                            Buckingham rho  0.35400000    Ang       
                            Buckingham C     0.0000000    eV*Ang^6  
--------------------------------------------------------------------------------
Na   c Cl   s Buckingham    Buckingham A     1270.1200    eV        0.000 12.000
                            Buckingham rho  0.30900000    Ang       
                            Buckingham C     0.0000000    eV*Ang^6  
--------------------------------------------------------------------------------
O    s O    s Buckingham    Buckingham A     22764.300    eV        0.000 12.000
                            Buckingham rho  0.14900000    Ang       
                            Buckingham C     13.190000    eV*Ang^6  
--------------------------------------------------------------------------------
O    s Cl   s Buckingham    Buckingham A     8286.9100    eV        0.000 12.000
                            Buckingham rho  0.25900000    Ang       
                            Buckingham C     62.200000    eV*Ang^6  
--------------------------------------------------------------------------------
Cl   s Cl   s Buckingham    Buckingham A     1227.2000    eV        0.000 12.000
                            Buckingham rho  0.32100000    Ang       
                            Buckingham C     14.530000    eV*Ang^6  
--------------------------------------------------------------------------------
O    s Mg   s Buckingham    Buckingham A     1428.5000    eV        0.000 12.000
                            Buckingham rho  0.29450000    Ang       
                            Buckingham C     0.0000000    eV*Ang^6  
--------------------------------------------------------------------------------
Mg   s Cl   s Buckingham    Buckingham A     4914.5400    eV        0.000 12.000
                            Buckingham rho  0.25700000    Ang       
                            Buckingham C     0.0000000    eV*Ang^6  
--------------------------------------------------------------------------------
O    s Ca   s Buckingham    Buckingham A     1090.4000    eV        0.000 12.000
                            Buckingham rho  0.34370000    Ang       
                            Buckingham C     0.0000000    eV*Ang^6  
--------------------------------------------------------------------------------
Cl   s Ca   s Buckingham    Buckingham A     2302.0000    eV        0.000 12.000
                            Buckingham rho  0.34020000    Ang       
                            Buckingham C     0.0000000    eV*Ang^6  
--------------------------------------------------------------------------------
O    s Sr   s Buckingham    Buckingham A     959.10000    eV        0.000 12.000
                            Buckingham rho  0.37210000    Ang       
                            Buckingham C     0.0000000    eV*Ang^6  
--------------------------------------------------------------------------------
Cl   s Sr   s Buckingham    Buckingham A     2191.0900    eV        0.000 12.000
                            Buckingham rho  0.34570000    Ang       
                            Buckingham C     0.0000000    eV*Ang^6  
--------------------------------------------------------------------------------
O    s Ba   s Buckingham    Buckingham A     905.70000    eV        0.000 12.000
                            Buckingham rho  0.39760000    Ang       
                            Buckingham C     0.0000000    eV*Ang^6  
--------------------------------------------------------------------------------
Cl   s Ba   s Buckingham    Buckingham A     2704.5500    eV        0.000 12.000
                            Buckingham rho  0.35280000    Ang       
                            Buckingham C     0.0000000    eV*Ang^6  
--------------------------------------------------------------------------------

********************************************************************************
*  Output for configuration   1                                                *
********************************************************************************


  Components of energy : 

--------------------------------------------------------------------------------
  Interatomic potentials     =           5.32097427 eV    
  Monopole - monopole (real) =         -10.03624526 eV    
  Monopole - monopole (recip)=         -29.53581274 eV    
  Monopole - monopole (total)=         -39.57205800 eV    
--------------------------------------------------------------------------------
  Total lattice energy       =         -34.25108373 eV    
--------------------------------------------------------------------------------
  Total lattice energy       =           -3304.7060 kJ/(mole unit cells)
--------------------------------------------------------------------------------


  Number of variables =        1

  Maximum number of calculations  =          1000
  Maximum Hessian update interval =            10
  Maximum step size               =   1.000000000
  Maximum parameter tolerance     =   0.000010000
  Maximum function  tolerance     =   0.000010000
  Maximum gradient  tolerance     =   0.001000000
  Maximum gradient  component     =   0.010000000

  Symmetry constrained optimisation

  Symmetry used for second derivatives

  Cell parameters to be optimised using strains

  Newton-Raphson optimiser to be used

  BFGS hessian update to be used

  Lower half triangular hessian to be used

  Start of bulk optimisation :

  Cycle:      0 Energy:       -34.251084  Gnorm:      3.396862  CPU:    0.009
  ** Hessian calculated **
  Cycle:      1 Energy:       -34.282244  Gnorm:      0.029239  CPU:    0.011
  Cycle:      2 Energy:       -34.282246  Gnorm:      0.001919  CPU:    0.013


  **** Optimisation achieved ****


  Final energy =     -34.28224565 eV
  Final Gnorm  =       0.00000003

  Components of energy : 

--------------------------------------------------------------------------------
  Interatomic potentials     =           6.00917266 eV    
  Monopole - monopole (real) =         -10.21868906 eV    
  Monopole - monopole (recip)=         -30.07272926 eV    
  Monopole - monopole (total)=         -40.29141832 eV    
--------------------------------------------------------------------------------
  Total lattice energy       =         -34.28224565 eV    
--------------------------------------------------------------------------------
  Total lattice energy       =           -3307.7127 kJ/(mole unit cells)
--------------------------------------------------------------------------------

  Final asymmetric unit coordinates :

--------------------------------------------------------------------------------
   No.  Atomic        x           y           z         Radius
        Label       (Frac)      (Frac)      (Frac)       (Angs) 
--------------------------------------------------------------------------------
     1  Cl    c     0.000000    0.000000    0.000000    0.000000
     2  O     c     0.500000    0.500000    0.500000    0.000000
     3  Na    c     0.500000    0.500000    0.000000    0.000000
     4  Cl    s     0.000000    0.000000    0.000000    0.000000
     5  O     s     0.500000    0.500000    0.500000    0.000000
--------------------------------------------------------------------------------

  Final Cartesian lattice vectors (Angstroms) :

        4.423586    0.000000    0.000000
        0.000000    4.423586    0.000000
        0.000000    0.000000    4.423586


  Final cell parameters and derivatives :

--------------------------------------------------------------------------------
       a            4.423586 Angstrom     dE/de1(xx)     0.000000 eV/strain
       b            4.423586 Angstrom     dE/de2(yy)     0.000000 eV/strain
       c            4.423586 Angstrom     dE/de3(zz)     0.000000 eV/strain
       alpha       90.000000 Degrees      dE/de4(yz)     0.000000 eV/strain
       beta        90.000000 Degrees      dE/de5(xz)     0.000000 eV/strain
       gamma       90.000000 Degrees      dE/de6(xy)     0.000000 eV/strain
--------------------------------------------------------------------------------

  Primitive cell volume =            86.561224 Angs**3

  Density of cell =      2.310102 g/cm**3

  Non-primitive cell volume =            86.561224 Angs**3


  Final internal derivatives :

--------------------------------------------------------------------------------
   No.  Atomic          a             b             c           Radius
        Label          (eV)          (eV)          (eV)        (eV/Angs)
--------------------------------------------------------------------------------
      1 Cl    c       0.000000      0.000000      0.000000      0.000000
      2 O     c       0.000000      0.000000      0.000000      0.000000
      3 Na    c       0.000000      0.000000      0.000000      0.000000
      4 Cl    s       0.000000      0.000000      0.000000      0.000000
      5 O     s       0.000000      0.000000      0.000000      0.000000
--------------------------------------------------------------------------------
  Maximum abs         0.000000      0.000000      0.000000      0.000000
--------------------------------------------------------------------------------

  Comparison of initial and final structures : 

--------------------------------------------------------------------------------
  Parameter   Initial value   Final value   Difference    Units      Percent
--------------------------------------------------------------------------------
    Volume        91.368216     86.561224    -4.806992    Angs**3     -5.26
    a              4.504000      4.423586    -0.080414    Angstroms   -1.79
    b              4.504000      4.423586    -0.080414    Angstroms   -1.79
    c              4.504000      4.423586    -0.080414    Angstroms   -1.79
    alpha         90.000000     90.000000     0.000000    Degrees      0.00
    beta          90.000000     90.000000     0.000000    Degrees      0.00
    gamma         90.000000     90.000000     0.000000    Degrees      0.00
      1 x          0.000000      0.000000     0.000000    Fractional   0.00
      1 y          0.000000      0.000000     0.000000    Fractional   0.00
      1 z          0.000000      0.000000     0.000000    Fractional   0.00
      2 x          0.500000      0.500000     0.000000    Fractional   0.00
      2 y          0.500000      0.500000     0.000000    Fractional   0.00
      2 z          0.500000      0.500000     0.000000    Fractional   0.00
      3 x          0.500000      0.500000     0.000000    Fractional   0.00
      3 y          0.500000      0.500000     0.000000    Fractional   0.00
      3 z          0.000000      0.000000     0.000000    Fractional   0.00
      4 x          0.000000      0.000000     0.000000    Fractional   0.00
      4 y          0.000000      0.000000     0.000000    Fractional   0.00
      4 z          0.000000      0.000000     0.000000    Fractional   0.00
      5 x          0.500000      0.500000     0.000000    Fractional   0.00
      5 y          0.500000      0.500000     0.000000    Fractional   0.00
      5 z          0.500000      0.500000     0.000000    Fractional   0.00
--------------------------------------------------------------------------------


  Born effective charge tensors : 

-------------------------------------------------------------------------------
  Atom             x           y             z
-------------------------------------------------------------------------------
    1 Cl    x      -1.0080     -0.0000     -0.0000
            y      -0.0000     -1.0080     -0.0000
            z      -0.0000     -0.0000     -1.0080
-------------------------------------------------------------------------------
    2 O     x      -2.2935      0.0000      0.0000
            y       0.0000     -2.2935      0.0000
            z       0.0000      0.0000     -2.2935
-------------------------------------------------------------------------------
    3 Na    x       1.2323      0.0000     -0.0000
            y       0.0000      1.2323      0.0000
            z      -0.0000      0.0000      0.8370
-------------------------------------------------------------------------------




  Elastic Constant Matrix: (Units=GPa)

-------------------------------------------------------------------------------
  Indices      1         2         3         4         5         6    
-------------------------------------------------------------------------------
       1     77.1814   22.8408   22.8408    0.0000    0.0000    0.0000
       2     22.8408   77.1814   22.8408    0.0000    0.0000    0.0000
       3     22.8408   22.8408   77.1814   -0.0000   -0.0000    0.0000
       4      0.0000    0.0000   -0.0000   22.8408    0.0000   -0.0000
       5      0.0000    0.0000   -0.0000    0.0000   22.8408   -0.0000
       6      0.0000    0.0000    0.0000   -0.0000   -0.0000   22.8408
-------------------------------------------------------------------------------


  Elastic Compliance Matrix: (Units=1/GPa)

-------------------------------------------------------------------------------
  Indices      1         2         3         4         5         6    
-------------------------------------------------------------------------------
       1    0.014981 -0.003421 -0.003421 -0.000000 -0.000000 -0.000000
       2   -0.003421  0.014981 -0.003421 -0.000000 -0.000000 -0.000000
       3   -0.003421 -0.003421  0.014981  0.000000  0.000000 -0.000000
       4   -0.000000 -0.000000  0.000000  0.043781 -0.000000  0.000000
       5   -0.000000 -0.000000  0.000000 -0.000000  0.043781  0.000000
       6   -0.000000 -0.000000 -0.000000  0.000000  0.000000  0.043781
-------------------------------------------------------------------------------

  Mechanical properties :

-------------------------------------------------------------------------------
  Convention :                    Reuss         Voigt         Hill
-------------------------------------------------------------------------------
  Bulk  Modulus (GPa)     =      40.95434      40.95434      40.95434
  Shear Modulus (GPa)     =      24.39576      24.57261      24.48418
-------------------------------------------------------------------------------
  Velocity S-wave (km/s)  =       3.24969       3.26144       3.25557
  Velocity P-wave (km/s)  =       5.63995       5.64899       5.64447
-------------------------------------------------------------------------------
  Compressibility (1/GPa) =    0.02441743
-------------------------------------------------------------------------------
  Stress axis :                     x             y             z
-------------------------------------------------------------------------------
  Youngs Moduli (GPa)     =      66.74971      66.74971      66.74971
-------------------------------------------------------------------------------
  Poissons Ratio (x)      =                     0.22836       0.22836
  Poissons Ratio (y)      =       0.22836                     0.22836
  Poissons Ratio (z)      =       0.22836       0.22836
-------------------------------------------------------------------------------


  Piezoelectric Strain Matrix: (Units=C/m**2)

-------------------------------------------------------------------------------
  Indices      1         2         3         4         5         6    
-------------------------------------------------------------------------------
       x     0.00000   0.00000   0.00000  -0.00000   0.00000   0.00000
       y     0.00000   0.00000   0.00000   0.00000  -0.00000   0.00000
       z    -0.00000  -0.00000  -0.00000   0.00000   0.00000  -0.00000
-------------------------------------------------------------------------------


  Piezoelectric Stress Matrix: (Units=10**-11 C/N)

-------------------------------------------------------------------------------
  Indices      1         2         3         4         5         6    
-------------------------------------------------------------------------------
       x     0.00000  -0.00000  -0.00000  -0.00000   0.00000   0.00000
       y     0.00000  -0.00000   0.00000   0.00000  -0.00000   0.00000
       z     0.00000   0.00000  -0.00000   0.00000   0.00000  -0.00000
-------------------------------------------------------------------------------


  Static dielectric constant tensor : 

-------------------------------------------------------------------------------
              x         y         z
-------------------------------------------------------------------------------
       x    16.24863   0.00000   0.00000
       y     0.00000  16.24863   0.00000
       z     0.00000   0.00000  16.24863
--------------------------------------------------------------------------------

  High frequency dielectric constant tensor : 

-------------------------------------------------------------------------------
              x         y         z
-------------------------------------------------------------------------------
       x     1.50419   0.00000  -0.00000
       y     0.00000   1.50419   0.00000
       z    -0.00000   0.00000   1.50419
-------------------------------------------------------------------------------

  Static refractive indices : 

-------------------------------------------------------------------------------
    1 =    4.03096      2 =    4.03096      3 =    4.03096
-------------------------------------------------------------------------------

  High frequency refractive indices : 

-------------------------------------------------------------------------------
    1 =    1.22646      2 =    1.22646      3 =    1.22646
-------------------------------------------------------------------------------


  Time to end of optimisation =       0.0185 seconds

********************************************************************************
*  Defect calculation for configuration   1 :                                  *
********************************************************************************

  Total number of defects =      1

  Total charge on defect  =  -1.00

  Defect centre is at   0.5000   0.5000   0.0000  Frac

  Region 1 radius =  17.0000      Number of ions =   1658

  Number of symmetry inequivalent region 1 ions  =    164

  Region 2 radius =  24.0000      Number of ions =   3020

  Number of symmetry inequivalent region 2a ions =    242

  Region 2a mode = 4 : screened electrostatics due to region 1 
                       neglect correction to region 1 forces from 2a
                       region 2a displacements based on defects only

  Region 2a ions will only interact with defects in region 1

  Vacancies:

--------------------------------------------------------------------------------
    Specification type     Symbol/Number         x          y          z
--------------------------------------------------------------------------------
    Fractional                               0.500000   0.500000   0.000000
--------------------------------------------------------------------------------


  Symmetry reduced region 1 (Relative to defect centre) :

--------------------------------------------------------------------------------
   No.   Atomic       x            y             z       Radius  Multiplicity   
         Label      (Angs)       (Angs)        (Angs)    (Angs)     
--------------------------------------------------------------------------------
     1  O     c      0.0000       0.0000      -2.2118 *  0.0000     2          
     2  Cl    c      2.2118 *     2.2118       0.0000    0.0000     4          
     3  Na    c      2.2118 *     0.0000      -2.2118 *  0.0000     8          
     4  Na    c      0.0000       0.0000       4.4236 *  0.0000     2          
     5  Na    c      0.0000       4.4236 *     0.0000    0.0000     4          
     6  O     c      0.0000       4.4236 *    -2.2118 *  0.0000     8          
     7  Na    c      2.2118 *     4.4236 *    -2.2118 *  0.0000    16          
     8  Cl    c      2.2118 *     2.2118       4.4236 *  0.0000     8          
     9  Na    c      0.0000       4.4236 *     4.4236 *  0.0000     8          
    10  Na    c      4.4236 *     4.4236       0.0000    0.0000     4          
    11  O     c      4.4236 *     4.4236      -2.2118 *  0.0000     8          
    12  O     c      0.0000       0.0000       6.6354 *  0.0000     2          
    13  Cl    c      2.2118 *     6.6354 *     0.0000    0.0000     8          
    14  Na    c      2.2118 *     0.0000       6.6354 *  0.0000     8          
    15  Na    c      6.6354 *     0.0000      -2.2118 *  0.0000     8          
    16  Na    c      4.4236 *     4.4236       4.4236 *  0.0000     8          
    17  O     c      0.0000       4.4236 *     6.6354 *  0.0000     8          
    18  Cl    c      2.2118 *     6.6354 *     4.4236 *  0.0000    16          
    19  Na    c      2.2118 *     4.4236 *     6.6354 *  0.0000    16          
    20  Na    c      6.6354 *     4.4236 *    -2.2118 *  0.0000    16          
    21  Na    c      0.0000       0.0000       8.8472 *  0.0000     2          
    22  Na    c      0.0000       8.8472 *     0.0000    0.0000     4          
    23  O     c      0.0000       8.8472 *    -2.2118 *  0.0000     8          
    24  O     c      4.4236 *     4.4236       6.6354 *  0.0000     8          
    25  Cl    c      2.2118 *     2.2118       8.8472 *  0.0000     8          
    26  Na    c      2.2118 *     8.8472 *    -2.2118 *  0.0000    16          
    27  Cl    c      6.6354 *     6.6354       0.0000    0.0000     4          
    28  Na    c      6.6354 *     0.0000       6.6354 *  0.0000     8          
    29  Na    c      0.0000       4.4236 *     8.8472 *  0.0000     8          
    30  Na    c      0.0000       8.8472 *     4.4236 *  0.0000     8          
    31  Na    c      4.4236 *     8.8472 *     0.0000    0.0000     8          
    32  O     c      4.4236 *     8.8472 *    -2.2118 *  0.0000    16          
    33  Cl    c      6.6354 *     6.6354       4.4236 *  0.0000     8          
    34  Na    c      6.6354 *     4.4236 *     6.6354 *  0.0000    16          
    35  Na    c      4.4236 *     8.8472 *     4.4236 *  0.0000    16          
    36  Na    c      4.4236 *     4.4236       8.8472 *  0.0000     8          
    37  O     c      0.0000       0.0000      11.0590 *  0.0000     2          
    38  O     c      0.0000       8.8472 *     6.6354 *  0.0000     8          
    39  Cl    c      2.2118 *     6.6354 *     8.8472 *  0.0000    16          
    40  Cl    c      2.2118 *    11.0590 *     0.0000    0.0000     8          
    41  Na    c      2.2118 *     0.0000      11.0590 *  0.0000     8          
    42  Na    c      2.2118 *     8.8472 *     6.6354 *  0.0000    16          
    43  Na    c      6.6354 *     8.8472 *    -2.2118 *  0.0000    16          
    44  Na    c     11.0590 *     0.0000      -2.2118 *  0.0000     8          
    45  O     c      0.0000       4.4236 *    11.0590 *  0.0000     8          
    46  O     c      4.4236 *     8.8472 *     6.6354 *  0.0000    16          
    47  Cl    c      2.2118 *    11.0590 *     4.4236 *  0.0000    16          
    48  Na    c      2.2118 *     4.4236 *    11.0590 *  0.0000    16          
    49  Na    c     11.0590 *     4.4236 *    -2.2118 *  0.0000    16          
    50  Na    c      0.0000       8.8472 *     8.8472 *  0.0000     8          
    51  Na    c      8.8472 *     8.8472       0.0000    0.0000     4          
    52  O     c      4.4236 *     4.4236      11.0590 *  0.0000     8          
    53  O     c      8.8472 *     8.8472      -2.2118 *  0.0000     8          
    54  Cl    c      6.6354 *     6.6354       8.8472 *  0.0000     8          
    55  Cl    c      6.6354 *    11.0590 *     0.0000    0.0000     8          
    56  Na    c      6.6354 *     0.0000      11.0590 *  0.0000     8          
    57  Na    c      6.6354 *     8.8472 *     6.6354 *  0.0000    16          
    58  Na    c     11.0590 *     0.0000       6.6354 *  0.0000     8          
    59  Na    c      4.4236 *     8.8472 *     8.8472 *  0.0000    16          
    60  Na    c      8.8472 *     8.8472       4.4236 *  0.0000     8          
    61  Na    c      0.0000       0.0000      13.2708 *  0.0000     2          
    62  Na    c      0.0000      13.2708 *     0.0000    0.0000     4          
    63  O     c      0.0000      13.2708 *    -2.2118 *  0.0000     8          
    64  Cl    c      2.2118 *     2.2118      13.2708 *  0.0000     8          
    65  Cl    c      6.6354 *    11.0590 *     4.4236 *  0.0000    16          
    66  Na    c      2.2118 *    13.2708 *    -2.2118 *  0.0000    16          
    67  Na    c      6.6354 *     4.4236 *    11.0590 *  0.0000    16          
    68  Na    c     11.0590 *     4.4236 *     6.6354 *  0.0000    16          
    69  Na    c      0.0000       4.4236 *    13.2708 *  0.0000     8          
    70  Na    c      0.0000      13.2708 *     4.4236 *  0.0000     8          
    71  Na    c      4.4236 *    13.2708 *     0.0000    0.0000     8          
    72  O     c      0.0000       8.8472 *    11.0590 *  0.0000     8          
    73  O     c      4.4236 *    13.2708 *    -2.2118 *  0.0000    16          
    74  O     c      8.8472 *     8.8472       6.6354 *  0.0000     8          
    75  Cl    c      2.2118 *    11.0590 *     8.8472 *  0.0000    16          
    76  Na    c      2.2118 *     8.8472 *    11.0590 *  0.0000    16          
    77  Na    c     11.0590 *     8.8472 *    -2.2118 *  0.0000    16          
    78  Na    c      4.4236 *    13.2708 *     4.4236 *  0.0000    16          
    79  Na    c      4.4236 *     4.4236      13.2708 *  0.0000     8          
    80  O     c      4.4236 *     8.8472 *    11.0590 *  0.0000    16          
    81  O     c      0.0000      13.2708 *     6.6354 *  0.0000     8          
    82  Cl    c      2.2118 *     6.6354 *    13.2708 *  0.0000    16          
    83  Na    c      2.2118 *    13.2708 *     6.6354 *  0.0000    16          
    84  Na    c      6.6354 *    13.2708 *    -2.2118 *  0.0000    16          
    85  Na    c      8.8472 *     8.8472       8.8472 *  0.0000     8          
    86  O     c      0.0000       0.0000      15.4826 *  0.0000     2          
    87  O     c      4.4236 *    13.2708 *     6.6354 *  0.0000    16          
    88  Cl    c      2.2118 *    15.4826 *     0.0000    0.0000     8          
    89  Cl    c      6.6354 *    11.0590 *     8.8472 *  0.0000    16          
    90  Cl    c     11.0590 *    11.0590       0.0000    0.0000     4          
    91  Na    c      2.2118 *     0.0000      15.4826 *  0.0000     8          
    92  Na    c      6.6354 *     8.8472 *    11.0590 *  0.0000    16          
    93  Na    c     11.0590 *     0.0000      11.0590 *  0.0000     8          
    94  Na    c     11.0590 *     8.8472 *     6.6354 *  0.0000    16          
    95  Na    c     15.4826 *     0.0000      -2.2118 *  0.0000     8          
    96  Na    c      0.0000       8.8472 *    13.2708 *  0.0000     8          
    97  Na    c      0.0000      13.2708 *     8.8472 *  0.0000     8          
    98  Na    c      8.8472 *    13.2708 *     0.0000    0.0000     8          
    99  O     c      0.0000       4.4236 *    15.4826 *  0.0000     8          
   100  O     c      8.8472 *    13.2708 *    -2.2118 *  0.0000    16          
   101  Cl    c      2.2118 *    15.4826 *     4.4236 *  0.0000    16          
   102  Cl    c      6.6354 *     6.6354      13.2708 *  0.0000     8          
   103  Cl    c     11.0590 *    11.0590       4.4236 *  0.0000     8          
   104  Na    c      2.2118 *     4.4236 *    15.4826 *  0.0000    16          
   105  Na    c      6.6354 *    13.2708 *     6.6354 *  0.0000    16          
   106  Na    c     11.0590 *     4.4236 *    11.0590 *  0.0000    16          
   107  Na    c     15.4826 *     4.4236 *    -2.2118 *  0.0000    16          
   108  Na    c      4.4236 *     8.8472 *    13.2708 *  0.0000    16          
   109  Na    c      4.4236 *    13.2708 *     8.8472 *  0.0000    16          
   110  Na    c      8.8472 *    13.2708 *     4.4236 *  0.0000    16          
   111  O     c      4.4236 *     4.4236      15.4826 *  0.0000     8          
   112  O     c      8.8472 *     8.8472      11.0590 *  0.0000     8          
   113  Cl    c      6.6354 *    15.4826 *     0.0000    0.0000     8          
   114  Na    c      6.6354 *     0.0000      15.4826 *  0.0000     8          
   115  Na    c     15.4826 *     0.0000       6.6354 *  0.0000     8          
   116  O     s      0.0000       0.0000      -2.2118 *  0.0000     2          
   117  Cl    s      2.2118 *     2.2118       0.0000    0.0000     4          
   118  O     s      0.0000       4.4236 *    -2.2118 *  0.0000     8          
   119  Cl    s      2.2118 *     2.2118       4.4236 *  0.0000     8          
   120  O     s      4.4236 *     4.4236      -2.2118 *  0.0000     8          
   121  O     s      0.0000       0.0000       6.6354 *  0.0000     2          
   122  Cl    s      2.2118 *     6.6354 *     0.0000    0.0000     8          
   123  O     s      0.0000       4.4236 *     6.6354 *  0.0000     8          
   124  Cl    s      2.2118 *     6.6354 *     4.4236 *  0.0000    16          
   125  O     s      0.0000       8.8472 *    -2.2118 *  0.0000     8          
   126  O     s      4.4236 *     4.4236       6.6354 *  0.0000     8          
   127  Cl    s      2.2118 *     2.2118       8.8472 *  0.0000     8          
   128  Cl    s      6.6354 *     6.6354       0.0000    0.0000     4          
   129  O     s      4.4236 *     8.8472 *    -2.2118 *  0.0000    16          
   130  Cl    s      6.6354 *     6.6354       4.4236 *  0.0000     8          
   131  O     s      0.0000       0.0000      11.0590 *  0.0000     2          
   132  O     s      0.0000       8.8472 *     6.6354 *  0.0000     8          
   133  Cl    s      2.2118 *     6.6354 *     8.8472 *  0.0000    16          
   134  Cl    s      2.2118 *    11.0590 *     0.0000    0.0000     8          
   135  O     s      0.0000       4.4236 *    11.0590 *  0.0000     8          
   136  O     s      4.4236 *     8.8472 *     6.6354 *  0.0000    16          
   137  Cl    s      2.2118 *    11.0590 *     4.4236 *  0.0000    16          
   138  O     s      4.4236 *     4.4236      11.0590 *  0.0000     8          
   139  O     s      8.8472 *     8.8472      -2.2118 *  0.0000     8          
   140  Cl    s      6.6354 *     6.6354       8.8472 *  0.0000     8          
   141  Cl    s      6.6354 *    11.0590 *     0.0000    0.0000     8          
   142  O     s      0.0000      13.2708 *    -2.2118 *  0.0000     8          
   143  Cl    s      2.2118 *     2.2118      13.2708 *  0.0000     8          
   144  Cl    s      6.6354 *    11.0590 *     4.4236 *  0.0000    16          
   145  O     s      0.0000       8.8472 *    11.0590 *  0.0000     8          
   146  O     s      4.4236 *    13.2708 *    -2.2118 *  0.0000    16          
   147  O     s      8.8472 *     8.8472       6.6354 *  0.0000     8          
   148  Cl    s      2.2118 *    11.0590 *     8.8472 *  0.0000    16          
   149  O     s      4.4236 *     8.8472 *    11.0590 *  0.0000    16          
   150  O     s      0.0000      13.2708 *     6.6354 *  0.0000     8          
   151  Cl    s      2.2118 *     6.6354 *    13.2708 *  0.0000    16          
   152  O     s      0.0000       0.0000      15.4826 *  0.0000     2          
   153  O     s      4.4236 *    13.2708 *     6.6354 *  0.0000    16          
   154  Cl    s      2.2118 *    15.4826 *     0.0000    0.0000     8          
   155  Cl    s      6.6354 *    11.0590 *     8.8472 *  0.0000    16          
   156  Cl    s     11.0590 *    11.0590       0.0000    0.0000     4          
   157  O     s      0.0000       4.4236 *    15.4826 *  0.0000     8          
   158  O     s      8.8472 *    13.2708 *    -2.2118 *  0.0000    16          
   159  Cl    s      2.2118 *    15.4826 *     4.4236 *  0.0000    16          
   160  Cl    s      6.6354 *     6.6354      13.2708 *  0.0000     8          
   161  Cl    s     11.0590 *    11.0590       4.4236 *  0.0000     8          
   162  O     s      4.4236 *     4.4236      15.4826 *  0.0000     8          
   163  O     s      8.8472 *     8.8472      11.0590 *  0.0000     8          
   164  Cl    s      6.6354 *    15.4826 *     0.0000    0.0000     8          
--------------------------------------------------------------------------------


  Constraints on symmetry reduced coordinates :

--------------------------------------------------------------------------------
  Constraint no.      Unconstrained     Constrained    Coefficient    
                         Variable         Variable
--------------------------------------------------------------------------------
           1                 2 x             2 y         1.00000
           2                 8 x             8 y         1.00000
           3                10 x            10 y         1.00000
           4                11 x            11 y         1.00000
           5                16 x            16 y         1.00000
           6                24 x            24 y         1.00000
           7                25 x            25 y         1.00000
           8                27 x            27 y         1.00000
           9                33 x            33 y         1.00000
          10                36 x            36 y         1.00000
          11                51 x            51 y         1.00000
          12                52 x            52 y         1.00000
          13                53 x            53 y         1.00000
          14                54 x            54 y         1.00000
          15                60 x            60 y         1.00000
          16                64 x            64 y         1.00000
          17                74 x            74 y         1.00000
          18                79 x            79 y         1.00000
          19                85 x            85 y         1.00000
          20                90 x            90 y         1.00000
          21               102 x           102 y         1.00000
          22               103 x           103 y         1.00000
          23               111 x           111 y         1.00000
          24               112 x           112 y         1.00000
          25               117 x           117 y         1.00000
          26               119 x           119 y         1.00000
          27               120 x           120 y         1.00000
          28               126 x           126 y         1.00000
          29               127 x           127 y         1.00000
          30               128 x           128 y         1.00000
          31               130 x           130 y         1.00000
          32               138 x           138 y         1.00000
          33               139 x           139 y         1.00000
          34               140 x           140 y         1.00000
          35               143 x           143 y         1.00000
          36               147 x           147 y         1.00000
          37               156 x           156 y         1.00000
          38               160 x           160 y         1.00000
          39               161 x           161 y         1.00000
          40               162 x           162 y         1.00000
          41               163 x           163 y         1.00000
--------------------------------------------------------------------------------


  Components of defect energy : 

--------------------------------------------------------------------------------
  Region 1 - region 1                   =    -11.15821475 eV
  Region 1 - region 2a (unrelaxed)      =     19.61083195 eV
  Region 1 - 2a (relaxed - correction)  =     -0.23021300 eV
  Region 1 (Total)                      =      8.22240420 eV
  Region 2a                             =      0.11509076 eV
  Region 2b                             =     -0.28227902 eV
--------------------------------------------------------------------------------
  Total defect energy                   =      8.05521594 eV
--------------------------------------------------------------------------------

  Largest displacement in region 2 =   0.0086 Angstroms


  Number of variables =      363

  Maximum number of calculations  =        1000
  Maximum Hessian update interval =          10
  Maximum step size               =   1.0000000
  Maximum parameter tolerance     =   0.0000100
  Maximum function  tolerance     =   0.0000100
  Maximum gradient  tolerance     =   0.0010000

  Symmetry adapted optimisation

  Symmetry to be used for second derivatives

  Newton-Raphson optimiser to be used

  BFGS hessian update to be used

  Lower half triangular hessian to be used

  Start of defect optimisation :

  Cycle:      0 Defect Energy:   8.055216  Gnorm:     0.113579  CPU:    8.425
  ** Hessian calculated **
  Cycle:      1 Defect Energy:   5.533165  Gnorm:     0.057513  CPU:   15.904
  Cycle:      2 Defect Energy:   4.742654  Gnorm:     0.010854  CPU:   20.542
  ** Hessian calculated **
  Cycle:      3 Defect Energy:   4.691384  Gnorm:     0.007517  CPU:   24.070
  Cycle:      4 Defect Energy:   4.631502  Gnorm:     0.005266  CPU:   25.521
  Cycle:      5 Defect Energy:   4.578097  Gnorm:     0.011851  CPU:   27.019
  Cycle:      6 Defect Energy:   4.571783  Gnorm:     0.011410  CPU:   33.461
  ** Hessian calculated **
  Cycle:      7 Defect Energy:   4.539774  Gnorm:     0.007001  CPU:   40.556
  Cycle:      8 Defect Energy:   4.530314  Gnorm:     0.005030  CPU:   41.884
  Cycle:      9 Defect Energy:   4.519431  Gnorm:     0.003973  CPU:   43.246
  Cycle:     10 Defect Energy:   4.505921  Gnorm:     0.003119  CPU:   44.623
  Cycle:     11 Defect Energy:   4.488471  Gnorm:     0.002570  CPU:   45.780
  Cycle:     12 Defect Energy:   4.466363  Gnorm:     0.003327  CPU:   46.502
  Cycle:     13 Defect Energy:   4.438903  Gnorm:     0.005154  CPU:   47.236
  Cycle:     14 Defect Energy:   4.416485  Gnorm:     0.006262  CPU:   47.966
  Cycle:     15 Defect Energy:   4.400935  Gnorm:     0.006946  CPU:   48.696
  Cycle:     16 Defect Energy:   4.387704  Gnorm:     0.007257  CPU:   49.453
  ** Hessian calculated **
  Cycle:     17 Defect Energy:   4.378525  Gnorm:     0.004942  CPU:   51.376
  Cycle:     18 Defect Energy:   4.368731  Gnorm:     0.004421  CPU:   52.111
  Cycle:     19 Defect Energy:   4.356979  Gnorm:     0.004133  CPU:   52.838
  Cycle:     20 Defect Energy:   4.346347  Gnorm:     0.003905  CPU:   53.557
  Cycle:     21 Defect Energy:   4.339307  Gnorm:     0.003474  CPU:   54.290
  Cycle:     22 Defect Energy:   4.334748  Gnorm:     0.003416  CPU:   55.031
  Cycle:     23 Defect Energy:   4.330409  Gnorm:     0.003395  CPU:   55.756
  Cycle:     24 Defect Energy:   4.325724  Gnorm:     0.003382  CPU:   56.496
  Cycle:     25 Defect Energy:   4.320493  Gnorm:     0.003338  CPU:   57.224
  Cycle:     26 Defect Energy:   4.314806  Gnorm:     0.003374  CPU:   57.958
  ** Hessian calculated **
  Cycle:     27 Defect Energy:   4.300176  Gnorm:     0.002973  CPU:   59.917
  Cycle:     28 Defect Energy:   4.279597  Gnorm:     0.002182  CPU:   60.701
  Cycle:     29 Defect Energy:   4.268624  Gnorm:     0.001470  CPU:   61.993
  Cycle:     30 Defect Energy:   4.263596  Gnorm:     0.001041  CPU:   63.384
  Cycle:     31 Defect Energy:   4.261381  Gnorm:     0.000648  CPU:   64.729
  Cycle:     32 Defect Energy:   4.260274  Gnorm:     0.000424  CPU:   65.863
  Cycle:     33 Defect Energy:   4.259974  Gnorm:     0.000287  CPU:   66.583
  Cycle:     34 Defect Energy:   4.259846  Gnorm:     0.000201  CPU:   67.308
  Cycle:     35 Defect Energy:   4.259801  Gnorm:     0.000140  CPU:   68.038
  Cycle:     36 Defect Energy:   4.259789  Gnorm:     0.000098  CPU:   68.769
  ** Hessian calculated **


  **** Optimisation achieved ****


  Final defect energy  =        4.25978992
  Final defect Gnorm   =        0.00006878

  Components of defect energy : 

--------------------------------------------------------------------------------
  Region 1 - region 1                   =    -13.09781988 eV
  Region 1 - region 2a (unrelaxed)      =     17.73925881 eV
  Region 1 - 2a (relaxed - correction)  =     -0.19873795 eV
  Region 1 (Total)                      =      4.44270098 eV
  Region 2a                             =      0.09936796 eV
  Region 2b                             =     -0.28227902 eV
--------------------------------------------------------------------------------
  Total defect energy                   =      4.25978992 eV
--------------------------------------------------------------------------------

  Largest displacement in region 2 =   0.0086 Angstroms

  Final coordinates of region 1 :

--------------------------------------------------------------------------------
   No.  Atomic        x           y           z          Radius      Charge
        Label       (Angs)      (Angs)      (Angs)       (Angs)       (e) 
--------------------------------------------------------------------------------
     1  O     c     2.211793    2.211793   -2.314824    0.000000    0.183000
     2  O     c     2.211793    2.211793    2.314824    0.000000    0.183000
     3  Cl    c     4.528528    4.528528    0.000000    0.000000    1.485000
     4  Cl    c     4.528528   -0.104942    0.000000    0.000000    1.485000
     5  Cl    c    -0.104942    4.528528    0.000000    0.000000    1.485000
     6  Cl    c    -0.104942   -0.104942    0.000000    0.000000    1.485000
     7  Na    c     4.328033    2.211793   -1.847631    0.000000    1.000000
     8  Na    c     4.328033    2.211793    1.847631    0.000000    1.000000
     9  Na    c     0.095552    2.211793   -1.847631    0.000000    1.000000
    10  Na    c     0.095552    2.211793    1.847631    0.000000    1.000000
    11  Na    c     2.211793    4.328033   -1.847631    0.000000    1.000000
    12  Na    c     2.211793    4.328033    1.847631    0.000000    1.000000
    13  Na    c     2.211793    0.095552   -1.847631    0.000000    1.000000
    14  Na    c     2.211793    0.095552    1.847631    0.000000    1.000000
    15  Na    c     2.211793    2.211793    4.435526    0.000000    1.000000
    16  Na    c     2.211793    2.211793   -4.435526    0.000000    1.000000
    17  Na    c     2.211793    6.907670    0.000000    0.000000    1.000000
    18  Na    c     2.211793   -2.484084    0.000000    0.000000    1.000000
    19  Na    c     6.907670    2.211793    0.000000    0.000000    1.000000
    20  Na    c    -2.484084    2.211793    0.000000    0.000000    1.000000
    21  O     c     2.211793    6.607665   -2.198350    0.000000    0.183000
    22  O     c     2.211793    6.607665    2.198350    0.000000    0.183000
    23  O     c     2.211793   -2.184079   -2.198350    0.000000    0.183000
    24  O     c     2.211793   -2.184079    2.198350    0.000000    0.183000
    25  O     c     6.607665    2.211793   -2.198350    0.000000    0.183000
    26  O     c     6.607665    2.211793    2.198350    0.000000    0.183000
    27  O     c    -2.184079    2.211793   -2.198350    0.000000    0.183000
    28  O     c    -2.184079    2.211793    2.198350    0.000000    0.183000
    29  Na    c     4.416814    6.600441   -2.190366    0.000000    1.000000
    30  Na    c     4.416814    6.600441    2.190366    0.000000    1.000000
    31  Na    c     4.416814   -2.176856   -2.190366    0.000000    1.000000
    32  Na    c     4.416814   -2.176856    2.190366    0.000000    1.000000
    33  Na    c     0.006772    6.600441   -2.190366    0.000000    1.000000
    34  Na    c     0.006772    6.600441    2.190366    0.000000    1.000000
    35  Na    c     0.006772   -2.176856   -2.190366    0.000000    1.000000
    36  Na    c     0.006772   -2.176856    2.190366    0.000000    1.000000
    37  Na    c     6.600441    4.416814   -2.190366    0.000000    1.000000
    38  Na    c     6.600441    4.416814    2.190366    0.000000    1.000000
    39  Na    c     6.600441    0.006772   -2.190366    0.000000    1.000000
    40  Na    c     6.600441    0.006772    2.190366    0.000000    1.000000
    41  Na    c    -2.176856    4.416814   -2.190366    0.000000    1.000000
    42  Na    c    -2.176856    4.416814    2.190366    0.000000    1.000000
    43  Na    c    -2.176856    0.006772   -2.190366    0.000000    1.000000
    44  Na    c    -2.176856    0.006772    2.190366    0.000000    1.000000
    45  Cl    c     4.500546    4.500546    4.520274    0.000000    1.485000
    46  Cl    c     4.500546    4.500546   -4.520274    0.000000    1.485000
    47  Cl    c     4.500546   -0.076960    4.520274    0.000000    1.485000
    48  Cl    c     4.500546   -0.076960   -4.520274    0.000000    1.485000
    49  Cl    c    -0.076960    4.500546    4.520274    0.000000    1.485000
    50  Cl    c    -0.076960    4.500546   -4.520274    0.000000    1.485000
    51  Cl    c    -0.076960   -0.076960    4.520274    0.000000    1.485000
    52  Cl    c    -0.076960   -0.076960   -4.520274    0.000000    1.485000
    53  Na    c     2.211793    6.276721    4.388694    0.000000    1.000000
    54  Na    c     2.211793    6.276721   -4.388694    0.000000    1.000000
    55  Na    c     2.211793   -1.853135    4.388694    0.000000    1.000000
    56  Na    c     2.211793   -1.853135   -4.388694    0.000000    1.000000
    57  Na    c     6.276721    2.211793    4.388694    0.000000    1.000000
    58  Na    c     6.276721    2.211793   -4.388694    0.000000    1.000000
    59  Na    c    -1.853135    2.211793    4.388694    0.000000    1.000000
    60  Na    c    -1.853135    2.211793   -4.388694    0.000000    1.000000
    61  Na    c     6.637512    6.637512    0.000000    0.000000    1.000000
    62  Na    c     6.637512   -2.213926    0.000000    0.000000    1.000000
    63  Na    c    -2.213926    6.637512    0.000000    0.000000    1.000000
    64  Na    c    -2.213926   -2.213926    0.000000    0.000000    1.000000
    65  O     c     6.638172    6.638172   -2.216774    0.000000    0.183000
    66  O     c     6.638172    6.638172    2.216774    0.000000    0.183000
    67  O     c     6.638172   -2.214586   -2.216774    0.000000    0.183000
    68  O     c     6.638172   -2.214586    2.216774    0.000000    0.183000
    69  O     c    -2.214586    6.638172   -2.216774    0.000000    0.183000
    70  O     c    -2.214586    6.638172    2.216774    0.000000    0.183000
    71  O     c    -2.214586   -2.214586   -2.216774    0.000000    0.183000
    72  O     c    -2.214586   -2.214586    2.216774    0.000000    0.183000
    73  O     c     2.211793    2.211793    6.693564    0.000000    0.183000
    74  O     c     2.211793    2.211793   -6.693564    0.000000    0.183000
    75  Cl    c     4.443639    8.861356    0.000000    0.000000    1.485000
    76  Cl    c     4.443639   -4.437771    0.000000    0.000000    1.485000
    77  Cl    c     8.861356    4.443639    0.000000    0.000000    1.485000
    78  Cl    c     8.861356   -0.020053    0.000000    0.000000    1.485000
    79  Cl    c    -0.020053    8.861356    0.000000    0.000000    1.485000
    80  Cl    c    -0.020053   -4.437771    0.000000    0.000000    1.485000
    81  Cl    c    -4.437771    4.443639    0.000000    0.000000    1.485000
    82  Cl    c    -4.437771   -0.020053    0.000000    0.000000    1.485000
    83  Na    c     4.421182    2.211793    6.761109    0.000000    1.000000
    84  Na    c     4.421182    2.211793   -6.761109    0.000000    1.000000
    85  Na    c     0.002404    2.211793    6.761109    0.000000    1.000000
    86  Na    c     0.002404    2.211793   -6.761109    0.000000    1.000000
    87  Na    c     2.211793    4.421182    6.761109    0.000000    1.000000
    88  Na    c     2.211793    4.421182   -6.761109    0.000000    1.000000
    89  Na    c     2.211793    0.002404    6.761109    0.000000    1.000000
    90  Na    c     2.211793    0.002404   -6.761109    0.000000    1.000000
    91  Na    c     8.823727    2.211793   -2.519202    0.000000    1.000000
    92  Na    c     8.823727    2.211793    2.519202    0.000000    1.000000
    93  Na    c    -4.400141    2.211793   -2.519202    0.000000    1.000000
    94  Na    c    -4.400141    2.211793    2.519202    0.000000    1.000000
    95  Na    c     2.211793    8.823727   -2.519202    0.000000    1.000000
    96  Na    c     2.211793    8.823727    2.519202    0.000000    1.000000
    97  Na    c     2.211793   -4.400141   -2.519202    0.000000    1.000000
    98  Na    c     2.211793   -4.400141    2.519202    0.000000    1.000000
    99  Na    c     6.606763    6.606763    4.424284    0.000000    1.000000
   100  Na    c     6.606763    6.606763   -4.424284    0.000000    1.000000
   101  Na    c     6.606763   -2.183177    4.424284    0.000000    1.000000
   102  Na    c     6.606763   -2.183177   -4.424284    0.000000    1.000000
   103  Na    c    -2.183177    6.606763    4.424284    0.000000    1.000000
   104  Na    c    -2.183177    6.606763   -4.424284    0.000000    1.000000
   105  Na    c    -2.183177   -2.183177    4.424284    0.000000    1.000000
   106  Na    c    -2.183177   -2.183177   -4.424284    0.000000    1.000000
   107  O     c     2.211793    6.630088    6.608337    0.000000    0.183000
   108  O     c     2.211793    6.630088   -6.608337    0.000000    0.183000
   109  O     c     2.211793   -2.206502    6.608337    0.000000    0.183000
   110  O     c     2.211793   -2.206502   -6.608337    0.000000    0.183000
   111  O     c     6.630088    2.211793    6.608337    0.000000    0.183000
   112  O     c     6.630088    2.211793   -6.608337    0.000000    0.183000
   113  O     c    -2.206502    2.211793    6.608337    0.000000    0.183000
   114  O     c    -2.206502    2.211793   -6.608337    0.000000    0.183000
   115  Cl    c     4.451663    8.877431    4.421597    0.000000    1.485000
   116  Cl    c     4.451663    8.877431   -4.421597    0.000000    1.485000
   117  Cl    c     4.451663   -4.453845    4.421597    0.000000    1.485000
   118  Cl    c     4.451663   -4.453845   -4.421597    0.000000    1.485000
   119  Cl    c     8.877431    4.451663    4.421597    0.000000    1.485000
   120  Cl    c     8.877431    4.451663   -4.421597    0.000000    1.485000
   121  Cl    c     8.877431   -0.028077    4.421597    0.000000    1.485000
   122  Cl    c     8.877431   -0.028077   -4.421597    0.000000    1.485000
   123  Cl    c    -0.028077    8.877431    4.421597    0.000000    1.485000
   124  Cl    c    -0.028077    8.877431   -4.421597    0.000000    1.485000
   125  Cl    c    -0.028077   -4.453845    4.421597    0.000000    1.485000
   126  Cl    c    -0.028077   -4.453845   -4.421597    0.000000    1.485000
   127  Cl    c    -4.453845    4.451663    4.421597    0.000000    1.485000
   128  Cl    c    -4.453845    4.451663   -4.421597    0.000000    1.485000
   129  Cl    c    -4.453845   -0.028077    4.421597    0.000000    1.485000
   130  Cl    c    -4.453845   -0.028077   -4.421597    0.000000    1.485000
   131  Na    c     4.424681    6.627493    6.606318    0.000000    1.000000
   132  Na    c     4.424681    6.627493   -6.606318    0.000000    1.000000
   133  Na    c     4.424681   -2.203907    6.606318    0.000000    1.000000
   134  Na    c     4.424681   -2.203907   -6.606318    0.000000    1.000000
   135  Na    c    -0.001095    6.627493    6.606318    0.000000    1.000000
   136  Na    c    -0.001095    6.627493   -6.606318    0.000000    1.000000
   137  Na    c    -0.001095   -2.203907    6.606318    0.000000    1.000000
   138  Na    c    -0.001095   -2.203907   -6.606318    0.000000    1.000000
   139  Na    c     6.627493    4.424681    6.606318    0.000000    1.000000
   140  Na    c     6.627493    4.424681   -6.606318    0.000000    1.000000
   141  Na    c     6.627493   -0.001095    6.606318    0.000000    1.000000
   142  Na    c     6.627493   -0.001095   -6.606318    0.000000    1.000000
   143  Na    c    -2.203907    4.424681    6.606318    0.000000    1.000000
   144  Na    c    -2.203907    4.424681   -6.606318    0.000000    1.000000
   145  Na    c    -2.203907   -0.001095    6.606318    0.000000    1.000000
   146  Na    c    -2.203907   -0.001095   -6.606318    0.000000    1.000000
   147  Na    c     8.841691    6.628788   -2.228242    0.000000    1.000000
   148  Na    c     8.841691    6.628788    2.228242    0.000000    1.000000
   149  Na    c     8.841691   -2.205203   -2.228242    0.000000    1.000000
   150  Na    c     8.841691   -2.205203    2.228242    0.000000    1.000000
   151  Na    c    -4.418105    6.628788   -2.228242    0.000000    1.000000
   152  Na    c    -4.418105    6.628788    2.228242    0.000000    1.000000
   153  Na    c    -4.418105   -2.205203   -2.228242    0.000000    1.000000
   154  Na    c    -4.418105   -2.205203    2.228242    0.000000    1.000000
   155  Na    c     6.628788    8.841691   -2.228242    0.000000    1.000000
   156  Na    c     6.628788    8.841691    2.228242    0.000000    1.000000
   157  Na    c     6.628788   -4.418105   -2.228242    0.000000    1.000000
   158  Na    c     6.628788   -4.418105    2.228242    0.000000    1.000000
   159  Na    c    -2.205203    8.841691   -2.228242    0.000000    1.000000
   160  Na    c    -2.205203    8.841691    2.228242    0.000000    1.000000
   161  Na    c    -2.205203   -4.418105   -2.228242    0.000000    1.000000
   162  Na    c    -2.205203   -4.418105    2.228242    0.000000    1.000000
   163  Na    c     2.211793    2.211793    8.876824    0.000000    1.000000
   164  Na    c     2.211793    2.211793   -8.876824    0.000000    1.000000
   165  Na    c     2.211793   10.732500    0.000000    0.000000    1.000000
   166  Na    c     2.211793   -6.308914    0.000000    0.000000    1.000000
   167  Na    c    10.732500    2.211793    0.000000    0.000000    1.000000
   168  Na    c    -6.308914    2.211793    0.000000    0.000000    1.000000
   169  O     c     2.211793   11.046611   -2.221493    0.000000    0.183000
   170  O     c     2.211793   11.046611    2.221493    0.000000    0.183000
   171  O     c     2.211793   -6.623025   -2.221493    0.000000    0.183000
   172  O     c     2.211793   -6.623025    2.221493    0.000000    0.183000
   173  O     c    11.046611    2.211793   -2.221493    0.000000    0.183000
   174  O     c    11.046611    2.211793    2.221493    0.000000    0.183000
   175  O     c    -6.623025    2.211793   -2.221493    0.000000    0.183000
   176  O     c    -6.623025    2.211793    2.221493    0.000000    0.183000
   177  O     c     6.646858    6.646858    6.642642    0.000000    0.183000
   178  O     c     6.646858    6.646858   -6.642642    0.000000    0.183000
   179  O     c     6.646858   -2.223272    6.642642    0.000000    0.183000
   180  O     c     6.646858   -2.223272   -6.642642    0.000000    0.183000
   181  O     c    -2.223272    6.646858    6.642642    0.000000    0.183000
   182  O     c    -2.223272    6.646858   -6.642642    0.000000    0.183000
   183  O     c    -2.223272   -2.223272    6.642642    0.000000    0.183000
   184  O     c    -2.223272   -2.223272   -6.642642    0.000000    0.183000
   185  Cl    c     4.413918    4.413918    8.871524    0.000000    1.485000
   186  Cl    c     4.413918    4.413918   -8.871524    0.000000    1.485000
   187  Cl    c     4.413918    0.009668    8.871524    0.000000    1.485000
   188  Cl    c     4.413918    0.009668   -8.871524    0.000000    1.485000
   189  Cl    c     0.009668    4.413918    8.871524    0.000000    1.485000
   190  Cl    c     0.009668    4.413918   -8.871524    0.000000    1.485000
   191  Cl    c     0.009668    0.009668    8.871524    0.000000    1.485000
   192  Cl    c     0.009668    0.009668   -8.871524    0.000000    1.485000
   193  Na    c     4.420111   11.036988   -2.277157    0.000000    1.000000
   194  Na    c     4.420111   11.036988    2.277157    0.000000    1.000000
   195  Na    c     4.420111   -6.613402   -2.277157    0.000000    1.000000
   196  Na    c     4.420111   -6.613402    2.277157    0.000000    1.000000
   197  Na    c     0.003474   11.036988   -2.277157    0.000000    1.000000
   198  Na    c     0.003474   11.036988    2.277157    0.000000    1.000000
   199  Na    c     0.003474   -6.613402   -2.277157    0.000000    1.000000
   200  Na    c     0.003474   -6.613402    2.277157    0.000000    1.000000
   201  Na    c    11.036988    4.420111   -2.277157    0.000000    1.000000
   202  Na    c    11.036988    4.420111    2.277157    0.000000    1.000000
   203  Na    c    11.036988    0.003474   -2.277157    0.000000    1.000000
   204  Na    c    11.036988    0.003474    2.277157    0.000000    1.000000
   205  Na    c    -6.613402    4.420111   -2.277157    0.000000    1.000000
   206  Na    c    -6.613402    4.420111    2.277157    0.000000    1.000000
   207  Na    c    -6.613402    0.003474   -2.277157    0.000000    1.000000
   208  Na    c    -6.613402    0.003474    2.277157    0.000000    1.000000
   209  Cl    c     8.855107    8.855107    0.000000    0.000000    1.485000
   210  Cl    c     8.855107   -4.431521    0.000000    0.000000    1.485000
   211  Cl    c    -4.431521    8.855107    0.000000    0.000000    1.485000
   212  Cl    c    -4.431521   -4.431521    0.000000    0.000000    1.485000
   213  Na    c     8.830985    2.211793    6.341721    0.000000    1.000000
   214  Na    c     8.830985    2.211793   -6.341721    0.000000    1.000000
   215  Na    c    -4.407399    2.211793    6.341721    0.000000    1.000000
   216  Na    c    -4.407399    2.211793   -6.341721    0.000000    1.000000
   217  Na    c     2.211793    8.830985    6.341721    0.000000    1.000000
   218  Na    c     2.211793    8.830985   -6.341721    0.000000    1.000000
   219  Na    c     2.211793   -4.407399    6.341721    0.000000    1.000000
   220  Na    c     2.211793   -4.407399   -6.341721    0.000000    1.000000
   221  Na    c     2.211793    6.801188    8.826399    0.000000    1.000000
   222  Na    c     2.211793    6.801188   -8.826399    0.000000    1.000000
   223  Na    c     2.211793   -2.377603    8.826399    0.000000    1.000000
   224  Na    c     2.211793   -2.377603   -8.826399    0.000000    1.000000
   225  Na    c     6.801188    2.211793    8.826399    0.000000    1.000000
   226  Na    c     6.801188    2.211793   -8.826399    0.000000    1.000000
   227  Na    c    -2.377603    2.211793    8.826399    0.000000    1.000000
   228  Na    c    -2.377603    2.211793   -8.826399    0.000000    1.000000
   229  Na    c     2.211793   11.358191    4.418071    0.000000    1.000000
   230  Na    c     2.211793   11.358191   -4.418071    0.000000    1.000000
   231  Na    c     2.211793   -6.934605    4.418071    0.000000    1.000000
   232  Na    c     2.211793   -6.934605   -4.418071    0.000000    1.000000
   233  Na    c    11.358191    2.211793    4.418071    0.000000    1.000000
   234  Na    c    11.358191    2.211793   -4.418071    0.000000    1.000000
   235  Na    c    -6.934605    2.211793    4.418071    0.000000    1.000000
   236  Na    c    -6.934605    2.211793   -4.418071    0.000000    1.000000
   237  Na    c     6.498429   11.043996    0.000000    0.000000    1.000000
   238  Na    c     6.498429   -6.620410    0.000000    0.000000    1.000000
   239  Na    c    11.043996    6.498429    0.000000    0.000000    1.000000
   240  Na    c    11.043996   -2.074843    0.000000    0.000000    1.000000
   241  Na    c    -2.074843   11.043996    0.000000    0.000000    1.000000
   242  Na    c    -2.074843   -6.620410    0.000000    0.000000    1.000000
   243  Na    c    -6.620410    6.498429    0.000000    0.000000    1.000000
   244  Na    c    -6.620410   -2.074843    0.000000    0.000000    1.000000
   245  O     c     6.639703   11.058998   -2.204010    0.000000    0.183000
   246  O     c     6.639703   11.058998    2.204010    0.000000    0.183000
   247  O     c     6.639703   -6.635412   -2.204010    0.000000    0.183000
   248  O     c     6.639703   -6.635412    2.204010    0.000000    0.183000
   249  O     c    11.058998    6.639703   -2.204010    0.000000    0.183000
   250  O     c    11.058998    6.639703    2.204010    0.000000    0.183000
   251  O     c    11.058998   -2.216117   -2.204010    0.000000    0.183000
   252  O     c    11.058998   -2.216117    2.204010    0.000000    0.183000
   253  O     c    -2.216117   11.058998   -2.204010    0.000000    0.183000
   254  O     c    -2.216117   11.058998    2.204010    0.000000    0.183000
   255  O     c    -2.216117   -6.635412   -2.204010    0.000000    0.183000
   256  O     c    -2.216117   -6.635412    2.204010    0.000000    0.183000
   257  O     c    -6.635412    6.639703   -2.204010    0.000000    0.183000
   258  O     c    -6.635412    6.639703    2.204010    0.000000    0.183000
   259  O     c    -6.635412   -2.216117   -2.204010    0.000000    0.183000
   260  O     c    -6.635412   -2.216117    2.204010    0.000000    0.183000
   261  Cl    c     8.849975    8.849975    4.431078    0.000000    1.485000
   262  Cl    c     8.849975    8.849975   -4.431078    0.000000    1.485000
   263  Cl    c     8.849975   -4.426389    4.431078    0.000000    1.485000
   264  Cl    c     8.849975   -4.426389   -4.431078    0.000000    1.485000
   265  Cl    c    -4.426389    8.849975    4.431078    0.000000    1.485000
   266  Cl    c    -4.426389    8.849975   -4.431078    0.000000    1.485000
   267  Cl    c    -4.426389   -4.426389    4.431078    0.000000    1.485000
   268  Cl    c    -4.426389   -4.426389   -4.431078    0.000000    1.485000
   269  Na    c     8.848932    6.648427    6.619491    0.000000    1.000000
   270  Na    c     8.848932    6.648427   -6.619491    0.000000    1.000000
   271  Na    c     8.848932   -2.224841    6.619491    0.000000    1.000000
   272  Na    c     8.848932   -2.224841   -6.619491    0.000000    1.000000
   273  Na    c    -4.425346    6.648427    6.619491    0.000000    1.000000
   274  Na    c    -4.425346    6.648427   -6.619491    0.000000    1.000000
   275  Na    c    -4.425346   -2.224841    6.619491    0.000000    1.000000
   276  Na    c    -4.425346   -2.224841   -6.619491    0.000000    1.000000
   277  Na    c     6.648427    8.848932    6.619491    0.000000    1.000000
   278  Na    c     6.648427    8.848932   -6.619491    0.000000    1.000000
   279  Na    c     6.648427   -4.425346    6.619491    0.000000    1.000000
   280  Na    c     6.648427   -4.425346   -6.619491    0.000000    1.000000
   281  Na    c    -2.224841    8.848932    6.619491    0.000000    1.000000
   282  Na    c    -2.224841    8.848932   -6.619491    0.000000    1.000000
   283  Na    c    -2.224841   -4.425346    6.619491    0.000000    1.000000
   284  Na    c    -2.224841   -4.425346   -6.619491    0.000000    1.000000
   285  Na    c     6.742655   11.050435    4.416932    0.000000    1.000000
   286  Na    c     6.742655   11.050435   -4.416932    0.000000    1.000000
   287  Na    c     6.742655   -6.626849    4.416932    0.000000    1.000000
   288  Na    c     6.742655   -6.626849   -4.416932    0.000000    1.000000
   289  Na    c    11.050435    6.742655    4.416932    0.000000    1.000000
   290  Na    c    11.050435    6.742655   -4.416932    0.000000    1.000000
   291  Na    c    11.050435   -2.319069    4.416932    0.000000    1.000000
   292  Na    c    11.050435   -2.319069   -4.416932    0.000000    1.000000
   293  Na    c    -2.319069   11.050435    4.416932    0.000000    1.000000
   294  Na    c    -2.319069   11.050435   -4.416932    0.000000    1.000000
   295  Na    c    -2.319069   -6.626849    4.416932    0.000000    1.000000
   296  Na    c    -2.319069   -6.626849   -4.416932    0.000000    1.000000
   297  Na    c    -6.626849    6.742655    4.416932    0.000000    1.000000
   298  Na    c    -6.626849    6.742655   -4.416932    0.000000    1.000000
   299  Na    c    -6.626849   -2.319069    4.416932    0.000000    1.000000
   300  Na    c    -6.626849   -2.319069   -4.416932    0.000000    1.000000
   301  Na    c     6.644027    6.644027    8.841311    0.000000    1.000000
   302  Na    c     6.644027    6.644027   -8.841311    0.000000    1.000000
   303  Na    c     6.644027   -2.220441    8.841311    0.000000    1.000000
   304  Na    c     6.644027   -2.220441   -8.841311    0.000000    1.000000
   305  Na    c    -2.220441    6.644027    8.841311    0.000000    1.000000
   306  Na    c    -2.220441    6.644027   -8.841311    0.000000    1.000000
   307  Na    c    -2.220441   -2.220441    8.841311    0.000000    1.000000
   308  Na    c    -2.220441   -2.220441   -8.841311    0.000000    1.000000
   309  O     c     2.211793    2.211793   11.052667    0.000000    0.183000
   310  O     c     2.211793    2.211793  -11.052667    0.000000    0.183000
   311  O     c     2.211793   11.053047    6.615884    0.000000    0.183000
   312  O     c     2.211793   11.053047   -6.615884    0.000000    0.183000
   313  O     c     2.211793   -6.629461    6.615884    0.000000    0.183000
   314  O     c     2.211793   -6.629461   -6.615884    0.000000    0.183000
   315  O     c    11.053047    2.211793    6.615884    0.000000    0.183000
   316  O     c    11.053047    2.211793   -6.615884    0.000000    0.183000
   317  O     c    -6.629461    2.211793    6.615884    0.000000    0.183000
   318  O     c    -6.629461    2.211793   -6.615884    0.000000    0.183000
   319  Cl    c     4.440429    8.852218    8.861826    0.000000    1.485000
   320  Cl    c     4.440429    8.852218   -8.861826    0.000000    1.485000
   321  Cl    c     4.440429   -4.428632    8.861826    0.000000    1.485000
   322  Cl    c     4.440429   -4.428632   -8.861826    0.000000    1.485000
   323  Cl    c     8.852218    4.440429    8.861826    0.000000    1.485000
   324  Cl    c     8.852218    4.440429   -8.861826    0.000000    1.485000
   325  Cl    c     8.852218   -0.016843    8.861826    0.000000    1.485000
   326  Cl    c     8.852218   -0.016843   -8.861826    0.000000    1.485000
   327  Cl    c    -0.016843    8.852218    8.861826    0.000000    1.485000
   328  Cl    c    -0.016843    8.852218   -8.861826    0.000000    1.485000
   329  Cl    c    -0.016843   -4.428632    8.861826    0.000000    1.485000
   330  Cl    c    -0.016843   -4.428632   -8.861826    0.000000    1.485000
   331  Cl    c    -4.428632    4.440429    8.861826    0.000000    1.485000
   332  Cl    c    -4.428632    4.440429   -8.861826    0.000000    1.485000
   333  Cl    c    -4.428632   -0.016843    8.861826    0.000000    1.485000
   334  Cl    c    -4.428632   -0.016843   -8.861826    0.000000    1.485000
   335  Cl    c     4.440740   13.281802    0.000000    0.000000    1.485000
   336  Cl    c     4.440740   -8.858216    0.000000    0.000000    1.485000
   337  Cl    c    13.281802    4.440740    0.000000    0.000000    1.485000
   338  Cl    c    13.281802   -0.017154    0.000000    0.000000    1.485000
   339  Cl    c    -0.017154   13.281802    0.000000    0.000000    1.485000
   340  Cl    c    -0.017154   -8.858216    0.000000    0.000000    1.485000
   341  Cl    c    -8.858216    4.440740    0.000000    0.000000    1.485000
   342  Cl    c    -8.858216   -0.017154    0.000000    0.000000    1.485000
   343  Na    c     4.433313    2.211793   10.992027    0.000000    1.000000
   344  Na    c     4.433313    2.211793  -10.992027    0.000000    1.000000
   345  Na    c    -0.009727    2.211793   10.992027    0.000000    1.000000
   346  Na    c    -0.009727    2.211793  -10.992027    0.000000    1.000000
   347  Na    c     2.211793    4.433313   10.992027    0.000000    1.000000
   348  Na    c     2.211793    4.433313  -10.992027    0.000000    1.000000
   349  Na    c     2.211793   -0.009727   10.992027    0.000000    1.000000
   350  Na    c     2.211793   -0.009727  -10.992027    0.000000    1.000000
   351  Na    c     4.424265   11.022987    6.572228    0.000000    1.000000
   352  Na    c     4.424265   11.022987   -6.572228    0.000000    1.000000
   353  Na    c     4.424265   -6.599402    6.572228    0.000000    1.000000
   354  Na    c     4.424265   -6.599402   -6.572228    0.000000    1.000000
   355  Na    c    -0.000679   11.022987    6.572228    0.000000    1.000000
   356  Na    c    -0.000679   11.022987   -6.572228    0.000000    1.000000
   357  Na    c    -0.000679   -6.599402    6.572228    0.000000    1.000000
   358  Na    c    -0.000679   -6.599402   -6.572228    0.000000    1.000000
   359  Na    c    11.022987    4.424265    6.572228    0.000000    1.000000
   360  Na    c    11.022987    4.424265   -6.572228    0.000000    1.000000
   361  Na    c    11.022987   -0.000679    6.572228    0.000000    1.000000
   362  Na    c    11.022987   -0.000679   -6.572228    0.000000    1.000000
   363  Na    c    -6.599402    4.424265    6.572228    0.000000    1.000000
   364  Na    c    -6.599402    4.424265   -6.572228    0.000000    1.000000
   365  Na    c    -6.599402   -0.000679    6.572228    0.000000    1.000000
   366  Na    c    -6.599402   -0.000679   -6.572228    0.000000    1.000000
   367  Na    c     8.850116   11.049386   -2.049991    0.000000    1.000000
   368  Na    c     8.850116   11.049386    2.049991    0.000000    1.000000
   369  Na    c     8.850116   -6.625800   -2.049991    0.000000    1.000000
   370  Na    c     8.850116   -6.625800    2.049991    0.000000    1.000000
   371  Na    c    -4.426530   11.049386   -2.049991    0.000000    1.000000
   372  Na    c    -4.426530   11.049386    2.049991    0.000000    1.000000
   373  Na    c    -4.426530   -6.625800   -2.049991    0.000000    1.000000
   374  Na    c    -4.426530   -6.625800    2.049991    0.000000    1.000000
   375  Na    c    11.049386    8.850116   -2.049991    0.000000    1.000000
   376  Na    c    11.049386    8.850116    2.049991    0.000000    1.000000
   377  Na    c    11.049386   -4.426530   -2.049991    0.000000    1.000000
   378  Na    c    11.049386   -4.426530    2.049991    0.000000    1.000000
   379  Na    c    -6.625800    8.850116   -2.049991    0.000000    1.000000
   380  Na    c    -6.625800    8.850116    2.049991    0.000000    1.000000
   381  Na    c    -6.625800   -4.426530   -2.049991    0.000000    1.000000
   382  Na    c    -6.625800   -4.426530    2.049991    0.000000    1.000000
   383  Na    c    13.252996    2.211793   -1.916928    0.000000    1.000000
   384  Na    c    13.252996    2.211793    1.916928    0.000000    1.000000
   385  Na    c    -8.829410    2.211793   -1.916928    0.000000    1.000000
   386  Na    c    -8.829410    2.211793    1.916928    0.000000    1.000000
   387  Na    c     2.211793   13.252996   -1.916928    0.000000    1.000000
   388  Na    c     2.211793   13.252996    1.916928    0.000000    1.000000
   389  Na    c     2.211793   -8.829410   -1.916928    0.000000    1.000000
   390  Na    c     2.211793   -8.829410    1.916928    0.000000    1.000000
   391  O     c     2.211793    6.645941   11.058058    0.000000    0.183000
   392  O     c     2.211793    6.645941  -11.058058    0.000000    0.183000
   393  O     c     2.211793   -2.222355   11.058058    0.000000    0.183000
   394  O     c     2.211793   -2.222355  -11.058058    0.000000    0.183000
   395  O     c     6.645941    2.211793   11.058058    0.000000    0.183000
   396  O     c     6.645941    2.211793  -11.058058    0.000000    0.183000
[...]
     84 y         15.482551     15.486889     0.004338    Cartesian    0.03
     84 z         -2.211793     -2.129404     0.082389    Cartesian   -3.72
     85 x         11.058965     11.116507     0.057543    Cartesian    0.52
     85 y         11.058965     11.116507     0.057543    Cartesian    0.52
     85 z          8.847172      8.842800    -0.004372    Cartesian   -0.05
     86 x          2.211793      2.211793     0.000000    Cartesian    0.00
     86 y          2.211793      2.211793     0.000000    Cartesian    0.00
     86 z         15.482551     15.487331     0.004780    Cartesian    0.03
     87 x          6.635379      6.636322     0.000943    Cartesian    0.01
     87 y         15.482551     15.482980     0.000430    Cartesian    0.00
     87 z          6.635379      6.631167    -0.004212    Cartesian   -0.06
     88 x          4.423586      4.435894     0.012308    Cartesian    0.28
     88 y         17.694344     17.695517     0.001174    Cartesian    0.01
     88 z          0.000000      0.000000     0.000000    Cartesian    0.00
     89 x          8.847172      8.852061     0.004889    Cartesian    0.06
     89 y         13.270758     13.277686     0.006928    Cartesian    0.05
     89 z          8.847172      8.852154     0.004982    Cartesian    0.06
     90 x         13.270758     13.296970     0.026212    Cartesian    0.20
     90 y         13.270758     13.296970     0.026212    Cartesian    0.20
     90 z          0.000000      0.000000     0.000000    Cartesian    0.00
     91 x          4.423586      4.417773    -0.005813    Cartesian   -0.13
     91 y          2.211793      2.211793     0.000000    Cartesian    0.00
     91 z         15.482551     15.491999     0.009448    Cartesian    0.06
     92 x          8.847172      8.848629     0.001457    Cartesian    0.02
     92 y         11.058965     11.050515    -0.008450    Cartesian   -0.08
     92 z         11.058965     11.020964    -0.038000    Cartesian   -0.34
     93 x         13.270758     13.263782    -0.006976    Cartesian   -0.05
     93 y          2.211793      2.211793     0.000000    Cartesian    0.00
     93 z         11.058965     10.950027    -0.108938    Cartesian   -0.99
     94 x         13.270758     13.266923    -0.003834    Cartesian   -0.03
     94 y         11.058965     11.070821     0.011856    Cartesian    0.11
     94 z          6.635379      6.559287    -0.076092    Cartesian   -1.15
     95 x         17.694344     17.685443    -0.008901    Cartesian   -0.05
     95 y          2.211793      2.211793     0.000000    Cartesian    0.00
     95 z         -2.211793     -2.329857    -0.118064    Cartesian    5.34
     96 x          2.211793      2.211793     0.000000    Cartesian    0.00
     96 y         11.058965     11.136097     0.077133    Cartesian    0.70
     96 z         13.270758     13.267783    -0.002975    Cartesian   -0.02
     97 x          2.211793      2.211793     0.000000    Cartesian    0.00
     97 y         15.482551     15.586681     0.104131    Cartesian    0.67
     97 z          8.847172      8.843031    -0.004141    Cartesian   -0.05
     98 x         11.058965     11.104354     0.045390    Cartesian    0.41
     98 y         15.482551     15.406836    -0.075714    Cartesian   -0.49
     98 z          0.000000      0.000000     0.000000    Cartesian    0.00
     99 x          2.211793      2.211793     0.000000    Cartesian    0.00
     99 y          6.635379      6.626405    -0.008973    Cartesian   -0.14
     99 z         15.482551     15.480977    -0.001574    Cartesian   -0.01
    100 x         11.058965     11.058894    -0.000070    Cartesian   -0.00
    100 y         15.482551     15.482847     0.000296    Cartesian    0.00
    100 z         -2.211793     -2.216822    -0.005029    Cartesian    0.23
    101 x          4.423586      4.413779    -0.009807    Cartesian   -0.22
    101 y         17.694344     17.719716     0.025373    Cartesian    0.14
    101 z          4.423586      4.425518     0.001932    Cartesian    0.04
    102 x          8.847172      8.849039     0.001867    Cartesian    0.02
    102 y          8.847172      8.849039     0.001867    Cartesian    0.02
    102 z         13.270758     13.279817     0.009060    Cartesian    0.07
    103 x         13.270758     13.279167     0.008409    Cartesian    0.06
    103 y         13.270758     13.279167     0.008409    Cartesian    0.06
    103 z          4.423586      4.429028     0.005442    Cartesian    0.12
    104 x          4.423586      4.423175    -0.000411    Cartesian   -0.01
    104 y          6.635379      6.636433     0.001054    Cartesian    0.02
    104 z         15.482551     15.479817    -0.002733    Cartesian   -0.02
    105 x          8.847172      8.845952    -0.001220    Cartesian   -0.01
    105 y         15.482551     15.452872    -0.029678    Cartesian   -0.19
    105 z          6.635379      6.679227     0.043848    Cartesian    0.66
    106 x         13.270758     13.268555    -0.002202    Cartesian   -0.02
    106 y          6.635379      6.642877     0.007498    Cartesian    0.11
    106 z         11.058965     11.059228     0.000263    Cartesian    0.00
    107 x         17.694344     17.691619    -0.002725    Cartesian   -0.02
    107 y          6.635379      6.625143    -0.010236    Cartesian   -0.15
    107 z         -2.211793     -2.199831     0.011962    Cartesian   -0.54
    108 x          6.635379      6.646557     0.011178    Cartesian    0.17
    108 y         11.058965     11.052626    -0.006339    Cartesian   -0.06
    108 z         13.270758     13.266175    -0.004583    Cartesian   -0.03
    109 x          6.635379      6.606668    -0.028711    Cartesian   -0.43
    109 y         15.482551     15.469773    -0.012777    Cartesian   -0.08
    109 z          8.847172      8.844164    -0.003008    Cartesian   -0.03
    110 x         11.058965     11.016809    -0.042156    Cartesian   -0.38
    110 y         15.482551     15.528857     0.046306    Cartesian    0.30
    110 z          4.423586      4.425369     0.001783    Cartesian    0.04
    111 x          6.635379      6.636424     0.001045    Cartesian    0.02
    111 y          6.635379      6.636424     0.001045    Cartesian    0.02
    111 z         15.482551     15.485513     0.002963    Cartesian    0.02
    112 x         11.058965     11.066531     0.007566    Cartesian    0.07
    112 y         11.058965     11.066531     0.007566    Cartesian    0.07
    112 z         11.058965     11.053939    -0.005026    Cartesian   -0.05
    113 x          8.847172      8.842543    -0.004629    Cartesian   -0.05
    113 y         17.694344     17.707781     0.013437    Cartesian    0.08
    113 z          0.000000      0.000000     0.000000    Cartesian    0.00
    114 x          8.847172      8.844004    -0.003168    Cartesian   -0.04
    114 y          2.211793      2.211793     0.000000    Cartesian    0.00
    114 z         15.482551     15.440325    -0.042226    Cartesian   -0.27
    115 x         17.694344     17.681551    -0.012792    Cartesian   -0.07
    115 y          2.211793      2.211793     0.000000    Cartesian    0.00
    115 z          6.635379      6.544756    -0.090622    Cartesian   -1.37
    116 x          2.211793      2.211793     0.000000    Cartesian    0.00
    116 y          2.211793      2.211793     0.000000    Cartesian    0.00
    116 z         -2.211793     -2.314948    -0.103155    Cartesian    4.66
    117 x          4.423586      4.530216     0.106630    Cartesian    2.41
    117 y          4.423586      4.530216     0.106630    Cartesian    2.41
    117 z          0.000000      0.000000     0.000000    Cartesian    0.00
    118 x          2.211793      2.211793     0.000000    Cartesian    0.00
    118 y          6.635379      6.607721    -0.027658    Cartesian   -0.42
    118 z         -2.211793     -2.198357     0.013436    Cartesian   -0.61
    119 x          4.423586      4.512405     0.088819    Cartesian    2.01
    119 y          4.423586      4.512405     0.088819    Cartesian    2.01
    119 z          4.423586      4.532195     0.108609    Cartesian    2.46
    120 x          6.635379      6.638178     0.002799    Cartesian    0.04
    120 y          6.635379      6.638178     0.002799    Cartesian    0.04
    120 z         -2.211793     -2.216778    -0.004985    Cartesian    0.23
    121 x          2.211793      2.211793     0.000000    Cartesian    0.00
    121 y          2.211793      2.211793     0.000000    Cartesian    0.00
    121 z          6.635379      6.693698     0.058320    Cartesian    0.88
    122 x          4.423586      4.441246     0.017660    Cartesian    0.40
    122 y          8.847172      8.865794     0.018623    Cartesian    0.21
    122 z          0.000000      0.000000     0.000000    Cartesian    0.00
    123 x          2.211793      2.211793     0.000000    Cartesian    0.00
    123 y          6.635379      6.630055    -0.005324    Cartesian   -0.08
    123 z          6.635379      6.608343    -0.027036    Cartesian   -0.41
    124 x          4.423586      4.447310     0.023724    Cartesian    0.54
    124 y          8.847172      8.882045     0.034873    Cartesian    0.39
    124 z          4.423586      4.421938    -0.001648    Cartesian   -0.04
    125 x          2.211793      2.211793     0.000000    Cartesian    0.00
    125 y         11.058965     11.046627    -0.012338    Cartesian   -0.11
    125 z         -2.211793     -2.221536    -0.009743    Cartesian    0.44
    126 x          6.635379      6.646870     0.011491    Cartesian    0.17
    126 y          6.635379      6.646870     0.011491    Cartesian    0.17
    126 z          6.635379      6.642644     0.007265    Cartesian    0.11
    127 x          4.423586      4.409684    -0.013902    Cartesian   -0.31
    127 y          4.423586      4.409684    -0.013902    Cartesian   -0.31
    127 z          8.847172      8.873507     0.026335    Cartesian    0.30
    128 x          8.847172      8.859480     0.012309    Cartesian    0.14
    128 y          8.847172      8.859480     0.012309    Cartesian    0.14
    128 z          0.000000      0.000000     0.000000    Cartesian    0.00
    129 x          6.635379      6.639700     0.004321    Cartesian    0.07
    129 y         11.058965     11.059000     0.000035    Cartesian    0.00
    129 z         -2.211793     -2.203995     0.007798    Cartesian   -0.35
    130 x          8.847172      8.852665     0.005493    Cartesian    0.06
    130 y          8.847172      8.852665     0.005493    Cartesian    0.06
    130 z          4.423586      4.433054     0.009468    Cartesian    0.21
    131 x          2.211793      2.211793     0.000000    Cartesian    0.00
    131 y          2.211793      2.211793     0.000000    Cartesian    0.00
    131 z         11.058965     11.052590    -0.006375    Cartesian   -0.06
    132 x          2.211793      2.211793     0.000000    Cartesian    0.00
    132 y         11.058965     11.053074    -0.005890    Cartesian   -0.05
    132 z          6.635379      6.615862    -0.019516    Cartesian   -0.29
    133 x          4.423586      4.439919     0.016333    Cartesian    0.37
    133 y          8.847172      8.854733     0.007561    Cartesian    0.09
    133 z          8.847172      8.865584     0.018412    Cartesian    0.21
    134 x          4.423586      4.438515     0.014929    Cartesian    0.34
    134 y         13.270758     13.284364     0.013606    Cartesian    0.10
    134 z          0.000000      0.000000     0.000000    Cartesian    0.00
    135 x          2.211793      2.211793     0.000000    Cartesian    0.00
    135 y          6.635379      6.645958     0.010579    Cartesian    0.16
    135 z         11.058965     11.058092    -0.000873    Cartesian   -0.01
    136 x          6.635379      6.640039     0.004660    Cartesian    0.07
    136 y         11.058965     11.061454     0.002490    Cartesian    0.02
    136 z          6.635379      6.635930     0.000551    Cartesian    0.01
    137 x          4.423586      4.431455     0.007869    Cartesian    0.18
    137 y         13.270758     13.282556     0.011798    Cartesian    0.09
    137 z          4.423586      4.425492     0.001906    Cartesian    0.04
    138 x          6.635379      6.634827    -0.000552    Cartesian   -0.01
    138 y          6.635379      6.634827    -0.000552    Cartesian   -0.01
    138 z         11.058965     11.056177    -0.002788    Cartesian   -0.03
    139 x         11.058965     11.063296     0.004331    Cartesian    0.04
    139 y         11.058965     11.063296     0.004331    Cartesian    0.04
    139 z         -2.211793     -2.204910     0.006883    Cartesian   -0.31
    140 x          8.847172      8.864090     0.016918    Cartesian    0.19
    140 y          8.847172      8.864090     0.016918    Cartesian    0.19
    140 z          8.847172      8.855136     0.007965    Cartesian    0.09
    141 x          8.847172      8.861399     0.014227    Cartesian    0.16
    141 y         13.270758     13.284715     0.013958    Cartesian    0.11
    141 z          0.000000      0.000000     0.000000    Cartesian    0.00
    142 x          2.211793      2.211793     0.000000    Cartesian    0.00
    142 y         15.482551     15.468794    -0.013757    Cartesian   -0.09
    142 z         -2.211793     -2.204487     0.007306    Cartesian   -0.33
    143 x          4.423586      4.429516     0.005930    Cartesian    0.13
    143 y          4.423586      4.429516     0.005930    Cartesian    0.13
    143 z         13.270758     13.285720     0.014962    Cartesian    0.11
    144 x          8.847172      8.856058     0.008886    Cartesian    0.10
    144 y         13.270758     13.289057     0.018299    Cartesian    0.14
    144 z          4.423586      4.430020     0.006434    Cartesian    0.15
    145 x          2.211793      2.211793     0.000000    Cartesian    0.00
    145 y         11.058965     11.045907    -0.013058    Cartesian   -0.12
    145 z         11.058965     11.055079    -0.003886    Cartesian   -0.04
    146 x          6.635379      6.633895    -0.001484    Cartesian   -0.02
    146 y         15.482551     15.481073    -0.001477    Cartesian   -0.01
    146 z         -2.211793     -2.210219     0.001574    Cartesian   -0.07
    147 x         11.058965     11.055428    -0.003537    Cartesian   -0.03
    147 y         11.058965     11.055428    -0.003537    Cartesian   -0.03
    147 z          6.635379      6.634940    -0.000439    Cartesian   -0.01
    148 x          4.423586      4.433021     0.009435    Cartesian    0.21
    148 y         13.270758     13.292114     0.021356    Cartesian    0.16
    148 z          8.847172      8.850875     0.003703    Cartesian    0.04
    149 x          6.635379      6.632246    -0.003133    Cartesian   -0.05
    149 y         11.058965     11.059319     0.000355    Cartesian    0.00
    149 z         11.058965     11.055932    -0.003033    Cartesian   -0.03
    150 x          2.211793      2.211793     0.000000    Cartesian    0.00
    150 y         15.482551     15.463860    -0.018690    Cartesian   -0.12
    150 z          6.635379      6.638596     0.003218    Cartesian    0.05
    151 x          4.423586      4.419216    -0.004370    Cartesian   -0.10
    151 y          8.847172      8.851510     0.004339    Cartesian    0.05
    151 z         13.270758     13.276335     0.005577    Cartesian    0.04
    152 x          2.211793      2.211793     0.000000    Cartesian    0.00
    152 y          2.211793      2.211793     0.000000    Cartesian    0.00
    152 z         15.482551     15.487362     0.004812    Cartesian    0.03
    153 x          6.635379      6.636328     0.000949    Cartesian    0.01
    153 y         15.482551     15.482977     0.000427    Cartesian    0.00
    153 z          6.635379      6.631168    -0.004211    Cartesian   -0.06
    154 x          4.423586      4.437590     0.014004    Cartesian    0.32
    154 y         17.694344     17.692735    -0.001609    Cartesian   -0.01
    154 z          0.000000      0.000000     0.000000    Cartesian    0.00
    155 x          8.847172      8.852918     0.005747    Cartesian    0.06
    155 y         13.270758     13.277871     0.007113    Cartesian    0.05
    155 z          8.847172      8.852032     0.004860    Cartesian    0.05
    156 x         13.270758     13.296502     0.025744    Cartesian    0.19
    156 y         13.270758     13.296502     0.025744    Cartesian    0.19
    156 z          0.000000      0.000000     0.000000    Cartesian    0.00
    157 x          2.211793      2.211793     0.000000    Cartesian    0.00
    157 y          6.635379      6.626386    -0.008993    Cartesian   -0.14
    157 z         15.482551     15.480970    -0.001581    Cartesian   -0.01
    158 x         11.058965     11.058896    -0.000069    Cartesian   -0.00
    158 y         15.482551     15.482849     0.000298    Cartesian    0.00
    158 z         -2.211793     -2.216837    -0.005045    Cartesian    0.23
    159 x          4.423586      4.410709    -0.012877    Cartesian   -0.29
    159 y         17.694344     17.724403     0.030060    Cartesian    0.17
    159 z          4.423586      4.425550     0.001965    Cartesian    0.04
    160 x          8.847172      8.849158     0.001986    Cartesian    0.02
    160 y          8.847172      8.849158     0.001986    Cartesian    0.02
    160 z         13.270758     13.281663     0.010905    Cartesian    0.08
    161 x         13.270758     13.279133     0.008376    Cartesian    0.06
    161 y         13.270758     13.279133     0.008376    Cartesian    0.06
    161 z          4.423586      4.428966     0.005380    Cartesian    0.12
    162 x          6.635379      6.636425     0.001046    Cartesian    0.02
    162 y          6.635379      6.636425     0.001046    Cartesian    0.02
    162 z         15.482551     15.485520     0.002970    Cartesian    0.02
    163 x         11.058965     11.066550     0.007585    Cartesian    0.07
    163 y         11.058965     11.066550     0.007585    Cartesian    0.07
    163 z         11.058965     11.053924    -0.005041    Cartesian   -0.05
    164 x          8.847172      8.841663    -0.005509    Cartesian   -0.06
    164 y         17.694344     17.708926     0.014583    Cartesian    0.08
    164 z          0.000000      0.000000     0.000000    Cartesian    0.00
--------------------------------------------------------------------------------


  Time to end of optimisation  =       70.7158 seconds


  Peak dynamic memory used =     463.79 MB 


  Timing analysis for GULP :

--------------------------------------------------------------------------------
  Task / Subroutine                                          Time (Seconds)
--------------------------------------------------------------------------------
  Calculation of reciprocal space energy and derivatives          0.0004
  Calculation of reciprocal space energy using symmetry           0.0007
  Calculation of real space energy and derivatives                0.0022
  Calculation of real space energy using symmetry                 0.0070
  Calculation for region 1 energy and derivatives (2-b)          39.0412
  Calculation for region 2a energy                               28.8261
  Calculation for region 2b energy                                0.0003
  Calculation and manipulation of Hessian matrix                  2.2434
  Calculation of matrix inversion                                 0.1457
  Symmetry generation of equivalent positions                     0.0028
--------------------------------------------------------------------------------
  Total CPU time                                                 70.7159
--------------------------------------------------------------------------------


  Dump file written as Na3OCl.grs


  Job Finished at 12:06.14  3rd January    2021                               

