********************************************************************************
*                       GENERAL UTILITY LATTICE PROGRAM                        *
*                                 Julian Gale                                  *
*                       Curtin Institute for Computation                       *
*                    School of Molecular and Life Sciences                     *
*                    Curtin University, Western Australia                      *
********************************************************************************
* Version = 5.2.0 * Last modified =  10th September 2020                       *
********************************************************************************
*  optimise     - perform optimisation run                                     *
*  conp         - constant pressure calculation                                *
*  property     - calculate properties for final geometry                      *
*  defect       - perform defect calculation after bulk run                    *
*  compare      - compare initial and final structures                         *
********************************************************************************

  Job Started  at 13:47.11  3rd February   2021                               

  Number of CPUs =     1


  Total number of configurations input =      1

********************************************************************************
*  Input for Configuration =   1                                               *
********************************************************************************

  Formula = ClONa3                                                      

  Number of irreducible atoms/shells =       5


  Total number atoms/shells =       7

  Dimensionality = 3               :  Bulk   


  Symmetry :

  Crystal family                   :  Cubic       
  Crystal class  (Groth - 1921)    :  Cubic Hexakisoctahedral              

  Space group (centrosymmetric)    :  P M 3 M         

  Patterson group                  :  P m -3 m 

  Cartesian lattice vectors (Angstroms) :

        4.504000    0.000000    0.000000
        0.000000    4.504000    0.000000
        0.000000    0.000000    4.504000

  Cell parameters (Angstroms/Degrees):

  a =       4.5040    alpha =  90.0000
  b =       4.5040    beta  =  90.0000
  c =       4.5040    gamma =  90.0000

  Initial cell volume =          91.368216 Angs**3

  Temperature of configuration =   0.00     K 

  Pressure of configuration =         0.000 GPa 

  Fractional coordinates of asymmetric unit :

--------------------------------------------------------------------------------
   No.  Atomic       x           y          z         Charge      Occupancy
        Label      (Frac)      (Frac)     (Frac)        (e)         (Frac)  
--------------------------------------------------------------------------------
      1 Cl    c    0.000000    0.000000    0.000000     1.48500    1.000000    
      2 O     c    0.500000    0.500000    0.500000     0.18300    1.000000    
      3 Na    c    0.500000    0.500000    0.000000     1.00000    1.000000    
      4 Cl    s    0.000000    0.000000    0.000000    -2.48500    1.000000    
      5 O     s    0.500000    0.500000    0.500000    -2.18300    1.000000    
--------------------------------------------------------------------------------


  Constraints : 

--------------------------------------------------------------------------------
  Constraint no.      Unconstrained     Constrained    Coefficient    Offset
                         Variable         Variable
--------------------------------------------------------------------------------
           1              Strain 1        Strain 2       1.00000      0.0000
           2              Strain 1        Strain 3       1.00000      0.0000
--------------------------------------------------------------------------------


********************************************************************************
*  General input information                                                   *
********************************************************************************

  Species output for all configurations : 

--------------------------------------------------------------------------------
  Species    Type    Atomic    Atomic    Charge       Radii (Angs)     Library
                     Number     Mass       (e)     Cova   Ionic  VDW   Symbol
--------------------------------------------------------------------------------
    Na       Core       11      22.99   1.000000   0.970  0.000  2.300          
    O        Core        8      16.00   0.183000   0.730  0.000  1.360          
    O        Shell       8       0.00  -2.183000   0.730  0.000  1.360          
    Cl       Core       17      35.45   1.485000   0.990  0.000  1.650          
    Cl       Shell      17       0.00  -2.485000   0.990  0.000  1.650          
    Mg       Core       12      24.31   0.415000   1.100  0.000  0.000          
    Mg       Shell      12       0.00   1.585000   1.100  0.000  0.000          
    Ca       Core       20      40.08  -1.135000   0.990  0.000  0.000          
    Ca       Shell      20       0.00   3.135000   0.990  0.000  0.000          
    Sr       Core       38      87.62  -1.251000   1.120  0.000  0.000          
    Sr       Shell      38       0.00   3.251000   1.120  0.000  0.000          
    Ba       Core       56     137.33  -7.203000   1.340  0.000  0.000          
    Ba       Shell      56       0.00   9.203000   1.340  0.000  0.000          
--------------------------------------------------------------------------------


  Lattice summation method               =    Ewald          (3-D)
                                         =    Parry          (2-D)
                                         =    Saunders et al (1-D)
  Accuracy factor for lattice sums       =   12.000


  Analytic derivatives to be used

  Time limit = Infinity

  Maximum range for interatomic potentials =    100000.000000 Angstroms

  General interatomic potentials :

--------------------------------------------------------------------------------
Atom  Types   Potential      Parameter       Value         Units   Cutoffs(Ang)
  1     2                                                            Min /  Max 
--------------------------------------------------------------------------------
O    c O    s Spring (c-s)  Spring k 2       593.71600    eV*Ang^-2 0.000  0.800
                            Spring k 4       0.0000000    eV*Ang^-4 
--------------------------------------------------------------------------------
Cl   c Cl   s Spring (c-s)  Spring k 2       29.380000    eV*Ang^-2 0.000  0.800
                            Spring k 4       0.0000000    eV*Ang^-4 
--------------------------------------------------------------------------------
Mg   c Mg   s Spring (c-s)  Spring k 2       361.60000    eV*Ang^-2 0.000  0.800
                            Spring k 4       0.0000000    eV*Ang^-4 
--------------------------------------------------------------------------------
Ca   c Ca   s Spring (c-s)  Spring k 2       110.20000    eV*Ang^-2 0.000  0.800
                            Spring k 4       0.0000000    eV*Ang^-4 
--------------------------------------------------------------------------------
Sr   c Sr   s Spring (c-s)  Spring k 2       71.700000    eV*Ang^-2 0.000  0.800
                            Spring k 4       0.0000000    eV*Ang^-4 
--------------------------------------------------------------------------------
Ba   c Ba   s Spring (c-s)  Spring k 2       495.20000    eV*Ang^-2 0.000  0.800
                            Spring k 4       0.0000000    eV*Ang^-4 
--------------------------------------------------------------------------------
Na   c Na   c Buckingham    Buckingham A     1788.1900    eV        0.000 12.000
                            Buckingham rho  0.15900000    Ang       
                            Buckingham C     0.0000000    eV*Ang^6  
--------------------------------------------------------------------------------
Na   c O    s Buckingham    Buckingham A     588.38000    eV        0.000 12.000
                            Buckingham rho  0.33800000    Ang       
                            Buckingham C     0.0000000    eV*Ang^6  
--------------------------------------------------------------------------------
Na   c Cl   s Buckingham    Buckingham A     1170.4100    eV        0.000 12.000
                            Buckingham rho  0.31500000    Ang       
                            Buckingham C     0.0000000    eV*Ang^6  
--------------------------------------------------------------------------------
O    s O    s Buckingham    Buckingham A     22764.300    eV        0.000 12.000
                            Buckingham rho  0.14900000    Ang       
                            Buckingham C     13.190000    eV*Ang^6  
--------------------------------------------------------------------------------
O    s Cl   s Buckingham    Buckingham A     8286.9100    eV        0.000 12.000
                            Buckingham rho  0.25900000    Ang       
                            Buckingham C     62.200000    eV*Ang^6  
--------------------------------------------------------------------------------
Cl   s Cl   s Buckingham    Buckingham A     1227.2000    eV        0.000 12.000
                            Buckingham rho  0.32100000    Ang       
                            Buckingham C     14.530000    eV*Ang^6  
--------------------------------------------------------------------------------
O    s Mg   s Buckingham    Buckingham A     1428.5000    eV        0.000 12.000
                            Buckingham rho  0.29450000    Ang       
                            Buckingham C     0.0000000    eV*Ang^6  
--------------------------------------------------------------------------------
Mg   s Cl   s Buckingham    Buckingham A     4914.5400    eV        0.000 12.000
                            Buckingham rho  0.25700000    Ang       
                            Buckingham C     0.0000000    eV*Ang^6  
--------------------------------------------------------------------------------
O    s Ca   s Buckingham    Buckingham A     1090.4000    eV        0.000 12.000
                            Buckingham rho  0.34370000    Ang       
                            Buckingham C     0.0000000    eV*Ang^6  
--------------------------------------------------------------------------------
Cl   s Ca   s Buckingham    Buckingham A     2302.0000    eV        0.000 12.000
                            Buckingham rho  0.34020000    Ang       
                            Buckingham C     0.0000000    eV*Ang^6  
--------------------------------------------------------------------------------
O    s Sr   s Buckingham    Buckingham A     959.10000    eV        0.000 12.000
                            Buckingham rho  0.37210000    Ang       
                            Buckingham C     0.0000000    eV*Ang^6  
--------------------------------------------------------------------------------
Cl   s Sr   s Buckingham    Buckingham A     2191.0900    eV        0.000 12.000
                            Buckingham rho  0.34570000    Ang       
                            Buckingham C     0.0000000    eV*Ang^6  
--------------------------------------------------------------------------------
O    s Ba   s Buckingham    Buckingham A     905.70000    eV        0.000 12.000
                            Buckingham rho  0.39760000    Ang       
                            Buckingham C     0.0000000    eV*Ang^6  
--------------------------------------------------------------------------------
Cl   s Ba   s Buckingham    Buckingham A     2704.5500    eV        0.000 12.000
                            Buckingham rho  0.35280000    Ang       
                            Buckingham C     0.0000000    eV*Ang^6  
--------------------------------------------------------------------------------

********************************************************************************
*  Output for configuration   1                                                *
********************************************************************************


  Components of energy : 

--------------------------------------------------------------------------------
  Interatomic potentials     =           4.94315381 eV    
  Monopole - monopole (real) =         -10.03624526 eV    
  Monopole - monopole (recip)=         -29.53581274 eV    
  Monopole - monopole (total)=         -39.57205800 eV    
--------------------------------------------------------------------------------
  Total lattice energy       =         -34.62890419 eV    
--------------------------------------------------------------------------------
  Total lattice energy       =           -3341.1599 kJ/(mole unit cells)
--------------------------------------------------------------------------------


  Number of variables =        1

  Maximum number of calculations  =          1000
  Maximum Hessian update interval =            10
  Maximum step size               =   1.000000000
  Maximum parameter tolerance     =   0.000010000
  Maximum function  tolerance     =   0.000010000
  Maximum gradient  tolerance     =   0.001000000
  Maximum gradient  component     =   0.010000000

  Symmetry constrained optimisation

  Symmetry used for second derivatives

  Cell parameters to be optimised using strains

  Newton-Raphson optimiser to be used

  BFGS hessian update to be used

  Lower half triangular hessian to be used

  Start of bulk optimisation :

  Cycle:      0 Energy:       -34.628904  Gnorm:      4.328237  CPU:    0.009
  ** Hessian calculated **
  Cycle:      1 Energy:       -34.677667  Gnorm:      0.044008  CPU:    0.011
  Cycle:      2 Energy:       -34.677671  Gnorm:      0.003653  CPU:    0.013


  **** Optimisation achieved ****


  Final energy =     -34.67767136 eV
  Final Gnorm  =       0.00000010

  Components of energy : 

--------------------------------------------------------------------------------
  Interatomic potentials     =           5.77546103 eV    
  Monopole - monopole (real) =         -10.25970290 eV    
  Monopole - monopole (recip)=         -30.19342950 eV    
  Monopole - monopole (total)=         -40.45313239 eV    
--------------------------------------------------------------------------------
  Total lattice energy       =         -34.67767136 eV    
--------------------------------------------------------------------------------
  Total lattice energy       =           -3345.8652 kJ/(mole unit cells)
--------------------------------------------------------------------------------

  Final asymmetric unit coordinates :

--------------------------------------------------------------------------------
   No.  Atomic        x           y           z         Radius
        Label       (Frac)      (Frac)      (Frac)       (Angs) 
--------------------------------------------------------------------------------
     1  Cl    c     0.000000    0.000000    0.000000    0.000000
     2  O     c     0.500000    0.500000    0.500000    0.000000
     3  Na    c     0.500000    0.500000    0.000000    0.000000
     4  Cl    s     0.000000    0.000000    0.000000    0.000000
     5  O     s     0.500000    0.500000    0.500000    0.000000
--------------------------------------------------------------------------------

  Final Cartesian lattice vectors (Angstroms) :

        4.405902    0.000000    0.000000
        0.000000    4.405902    0.000000
        0.000000    0.000000    4.405902


  Final cell parameters and derivatives :

--------------------------------------------------------------------------------
       a            4.405902 Angstrom     dE/de1(xx)     0.000000 eV/strain
       b            4.405902 Angstrom     dE/de2(yy)     0.000000 eV/strain
       c            4.405902 Angstrom     dE/de3(zz)     0.000000 eV/strain
       alpha       90.000000 Degrees      dE/de4(yz)     0.000000 eV/strain
       beta        90.000000 Degrees      dE/de5(xz)     0.000000 eV/strain
       gamma       90.000000 Degrees      dE/de6(xy)     0.000000 eV/strain
--------------------------------------------------------------------------------

  Primitive cell volume =            85.527266 Angs**3

  Density of cell =      2.338030 g/cm**3

  Non-primitive cell volume =            85.527266 Angs**3


  Final internal derivatives :

--------------------------------------------------------------------------------
   No.  Atomic          a             b             c           Radius
        Label          (eV)          (eV)          (eV)        (eV/Angs)
--------------------------------------------------------------------------------
      1 Cl    c       0.000000      0.000000      0.000000      0.000000
      2 O     c       0.000000      0.000000      0.000000      0.000000
      3 Na    c       0.000000      0.000000      0.000000      0.000000
      4 Cl    s       0.000000      0.000000      0.000000      0.000000
      5 O     s       0.000000      0.000000      0.000000      0.000000
--------------------------------------------------------------------------------
  Maximum abs         0.000000      0.000000      0.000000      0.000000
--------------------------------------------------------------------------------

  Comparison of initial and final structures : 

--------------------------------------------------------------------------------
  Parameter   Initial value   Final value   Difference    Units      Percent
--------------------------------------------------------------------------------
    Volume        91.368216     85.527266    -5.840950    Angs**3     -6.39
    a              4.504000      4.405902    -0.098098    Angstroms   -2.18
    b              4.504000      4.405902    -0.098098    Angstroms   -2.18
    c              4.504000      4.405902    -0.098098    Angstroms   -2.18
    alpha         90.000000     90.000000     0.000000    Degrees      0.00
    beta          90.000000     90.000000     0.000000    Degrees      0.00
    gamma         90.000000     90.000000     0.000000    Degrees      0.00
      1 x          0.000000      0.000000     0.000000    Fractional   0.00
      1 y          0.000000      0.000000     0.000000    Fractional   0.00
      1 z          0.000000      0.000000     0.000000    Fractional   0.00
      2 x          0.500000      0.500000     0.000000    Fractional   0.00
      2 y          0.500000      0.500000     0.000000    Fractional   0.00
      2 z          0.500000      0.500000     0.000000    Fractional   0.00
      3 x          0.500000      0.500000     0.000000    Fractional   0.00
      3 y          0.500000      0.500000     0.000000    Fractional   0.00
      3 z          0.000000      0.000000     0.000000    Fractional   0.00
      4 x          0.000000      0.000000     0.000000    Fractional   0.00
      4 y          0.000000      0.000000     0.000000    Fractional   0.00
      4 z          0.000000      0.000000     0.000000    Fractional   0.00
      5 x          0.500000      0.500000     0.000000    Fractional   0.00
      5 y          0.500000      0.500000     0.000000    Fractional   0.00
      5 z          0.500000      0.500000     0.000000    Fractional   0.00
--------------------------------------------------------------------------------


  Born effective charge tensors : 

-------------------------------------------------------------------------------
  Atom             x           y             z
-------------------------------------------------------------------------------
    1 Cl    x      -0.9918     -0.0000     -0.0000
            y      -0.0000     -0.9918     -0.0000
            z      -0.0000     -0.0000     -0.9918
-------------------------------------------------------------------------------
    2 O     x      -2.2939      0.0000      0.0000
            y       0.0000     -2.2939      0.0000
            z       0.0000      0.0000     -2.2939
-------------------------------------------------------------------------------
    3 Na    x       1.2243      0.0000      0.0000
            y       0.0000      1.2243     -0.0000
            z       0.0000      0.0000      0.8372
-------------------------------------------------------------------------------




  Elastic Constant Matrix: (Units=GPa)

-------------------------------------------------------------------------------
  Indices      1         2         3         4         5         6    
-------------------------------------------------------------------------------
       1     82.7680   24.3534   24.3534   -0.0000    0.0000   -0.0000
       2     24.3534   82.7680   24.3534    0.0000   -0.0000   -0.0000
       3     24.3534   24.3534   82.7680    0.0000   -0.0000    0.0000
       4     -0.0000    0.0000    0.0000   24.3534   -0.0000    0.0000
       5      0.0000   -0.0000   -0.0000   -0.0000   24.3534    0.0000
       6     -0.0000   -0.0000    0.0000    0.0000    0.0000   24.3534
-------------------------------------------------------------------------------


  Elastic Compliance Matrix: (Units=1/GPa)

-------------------------------------------------------------------------------
  Indices      1         2         3         4         5         6    
-------------------------------------------------------------------------------
       1    0.013948 -0.003171 -0.003171  0.000000 -0.000000  0.000000
       2   -0.003171  0.013948 -0.003171 -0.000000  0.000000 -0.000000
       3   -0.003171 -0.003171  0.013948 -0.000000  0.000000 -0.000000
       4    0.000000 -0.000000 -0.000000  0.041062  0.000000 -0.000000
       5   -0.000000  0.000000  0.000000  0.000000  0.041062 -0.000000
       6    0.000000 -0.000000 -0.000000 -0.000000 -0.000000  0.041062
-------------------------------------------------------------------------------

  Mechanical properties :

-------------------------------------------------------------------------------
  Convention :                    Reuss         Voigt         Hill
-------------------------------------------------------------------------------
  Bulk  Modulus (GPa)     =      43.82493      43.82493      43.82493
  Shear Modulus (GPa)     =      26.08758      26.29496      26.19127
-------------------------------------------------------------------------------
  Velocity S-wave (km/s)  =       3.34035       3.35360       3.34698
  Velocity P-wave (km/s)  =       5.79842       5.80861       5.80351
-------------------------------------------------------------------------------
  Compressibility (1/GPa) =    0.02281806
-------------------------------------------------------------------------------
  Stress axis :                     x             y             z
-------------------------------------------------------------------------------
  Youngs Moduli (GPa)     =      71.69479      71.69479      71.69479
-------------------------------------------------------------------------------
  Poissons Ratio (x)      =                     0.22734       0.22734
  Poissons Ratio (y)      =       0.22734                     0.22734
  Poissons Ratio (z)      =       0.22734       0.22734
-------------------------------------------------------------------------------


  Piezoelectric Strain Matrix: (Units=C/m**2)

-------------------------------------------------------------------------------
  Indices      1         2         3         4         5         6    
-------------------------------------------------------------------------------
       x    -0.00000  -0.00000  -0.00000  -0.00000   0.00000  -0.00000
       y     0.00000  -0.00000   0.00000   0.00000  -0.00000   0.00000
       z    -0.00000  -0.00000   0.00000  -0.00000   0.00000  -0.00000
-------------------------------------------------------------------------------


  Piezoelectric Stress Matrix: (Units=10**-11 C/N)

-------------------------------------------------------------------------------
  Indices      1         2         3         4         5         6    
-------------------------------------------------------------------------------
       x     0.00000  -0.00000  -0.00000  -0.00000   0.00000  -0.00000
       y     0.00000  -0.00000   0.00000   0.00000  -0.00000   0.00000
       z    -0.00000  -0.00000   0.00000  -0.00000   0.00000  -0.00000
-------------------------------------------------------------------------------


  Static dielectric constant tensor : 

-------------------------------------------------------------------------------
              x         y         z
-------------------------------------------------------------------------------
       x    11.08357   0.00000   0.00000
       y     0.00000  11.08357   0.00000
       z     0.00000   0.00000  11.08357
--------------------------------------------------------------------------------

  High frequency dielectric constant tensor : 

-------------------------------------------------------------------------------
              x         y         z
-------------------------------------------------------------------------------
       x     1.50771   0.00000   0.00000
       y     0.00000   1.50771   0.00000
       z     0.00000   0.00000   1.50771
-------------------------------------------------------------------------------

  Static refractive indices : 

-------------------------------------------------------------------------------
    1 =    3.32920      2 =    3.32920      3 =    3.32920
-------------------------------------------------------------------------------

  High frequency refractive indices : 

-------------------------------------------------------------------------------
    1 =    1.22789      2 =    1.22789      3 =    1.22789
-------------------------------------------------------------------------------


  Time to end of optimisation =       0.0184 seconds

********************************************************************************
*  Defect calculation for configuration   1 :                                  *
********************************************************************************

  Total number of defects =      1

  Total charge on defect  =   1.00

  Defect centre is at   0.5000   0.5000   0.0000  Frac

  Region 1 radius =  13.0000      Number of ions =    762

  Number of symmetry inequivalent region 1 ions  =     86

  Region 2 radius =  24.0000      Number of ions =   4014

  Number of symmetry inequivalent region 2a ions =    329

  Region 2a mode = 4 : screened electrostatics due to region 1 
                       neglect correction to region 1 forces from 2a
                       region 2a displacements based on defects only

  Region 2a ions will only interact with defects in region 1

  Impurities:

--------------------------------------------------------------------------------
    Specification type     Symbol/Number         x          y          z
--------------------------------------------------------------------------------
    Frac/Symbol             Ba               0.500000   0.500000   0.000000
--------------------------------------------------------------------------------


  Symmetry reduced region 1 (Relative to defect centre) :

--------------------------------------------------------------------------------
   No.   Atomic       x            y             z       Radius  Multiplicity   
         Label      (Angs)       (Angs)        (Angs)    (Angs)     
--------------------------------------------------------------------------------
     1  Ba    c      0.0000       0.0000       0.0000    0.0000     1    Defect
     2  O     c      0.0000       0.0000      -2.2030 *  0.0000     2          
     3  Cl    c      2.2030 *     2.2030       0.0000    0.0000     4          
     4  Na    c      2.2030 *     0.0000      -2.2030 *  0.0000     8          
     5  Na    c      0.0000       0.0000       4.4059 *  0.0000     2          
     6  Na    c      0.0000       4.4059 *     0.0000    0.0000     4          
     7  O     c      0.0000       4.4059 *    -2.2030 *  0.0000     8          
     8  Na    c      2.2030 *     4.4059 *    -2.2030 *  0.0000    16          
     9  Cl    c      2.2030 *     2.2030       4.4059 *  0.0000     8          
    10  Na    c      0.0000       4.4059 *     4.4059 *  0.0000     8          
    11  Na    c      4.4059 *     4.4059       0.0000    0.0000     4          
    12  O     c      0.0000       0.0000       6.6089 *  0.0000     2          
    13  O     c      4.4059 *     4.4059      -2.2030 *  0.0000     8          
    14  Cl    c      2.2030 *     6.6089 *     0.0000    0.0000     8          
    15  Na    c      2.2030 *     0.0000       6.6089 *  0.0000     8          
    16  Na    c      6.6089 *     0.0000      -2.2030 *  0.0000     8          
    17  Na    c      4.4059 *     4.4059       4.4059 *  0.0000     8          
    18  O     c      0.0000       4.4059 *     6.6089 *  0.0000     8          
    19  Cl    c      2.2030 *     6.6089 *     4.4059 *  0.0000    16          
    20  Na    c      2.2030 *     4.4059 *     6.6089 *  0.0000    16          
    21  Na    c      6.6089 *     4.4059 *    -2.2030 *  0.0000    16          
    22  Na    c      0.0000       0.0000       8.8118 *  0.0000     2          
    23  Na    c      0.0000       8.8118 *     0.0000    0.0000     4          
    24  O     c      4.4059 *     4.4059       6.6089 *  0.0000     8          
    25  O     c      0.0000       8.8118 *    -2.2030 *  0.0000     8          
    26  Cl    c      2.2030 *     2.2030       8.8118 *  0.0000     8          
    27  Cl    c      6.6089 *     6.6089       0.0000    0.0000     4          
    28  Na    c      6.6089 *     0.0000       6.6089 *  0.0000     8          
    29  Na    c      2.2030 *     8.8118 *    -2.2030 *  0.0000    16          
    30  Na    c      0.0000       4.4059 *     8.8118 *  0.0000     8          
    31  Na    c      0.0000       8.8118 *     4.4059 *  0.0000     8          
    32  Na    c      4.4059 *     8.8118 *     0.0000    0.0000     8          
    33  O     c      4.4059 *     8.8118 *    -2.2030 *  0.0000    16          
    34  Cl    c      6.6089 *     6.6089       4.4059 *  0.0000     8          
    35  Na    c      6.6089 *     4.4059 *     6.6089 *  0.0000    16          
    36  Na    c      4.4059 *     8.8118 *     4.4059 *  0.0000    16          
    37  Na    c      4.4059 *     4.4059       8.8118 *  0.0000     8          
    38  O     c      0.0000       0.0000      11.0148 *  0.0000     2          
    39  O     c      0.0000       8.8118 *     6.6089 *  0.0000     8          
    40  Cl    c      2.2030 *     6.6089 *     8.8118 *  0.0000    16          
    41  Cl    c      2.2030 *    11.0148 *     0.0000    0.0000     8          
    42  Na    c      2.2030 *     0.0000      11.0148 *  0.0000     8          
    43  Na    c      2.2030 *     8.8118 *     6.6089 *  0.0000    16          
    44  Na    c     11.0148 *     0.0000      -2.2030 *  0.0000     8          
    45  Na    c      6.6089 *     8.8118 *    -2.2030 *  0.0000    16          
    46  O     c      0.0000       4.4059 *    11.0148 *  0.0000     8          
    47  O     c      4.4059 *     8.8118 *     6.6089 *  0.0000    16          
    48  Cl    c      2.2030 *    11.0148 *     4.4059 *  0.0000    16          
    49  Na    c      2.2030 *     4.4059 *    11.0148 *  0.0000    16          
    50  Na    c     11.0148 *     4.4059 *    -2.2030 *  0.0000    16          
    51  Na    c      0.0000       8.8118 *     8.8118 *  0.0000     8          
    52  Na    c      8.8118 *     8.8118       0.0000    0.0000     4          
    53  O     c      4.4059 *     4.4059      11.0148 *  0.0000     8          
    54  O     c      8.8118 *     8.8118      -2.2030 *  0.0000     8          
    55  Cl    c      6.6089 *     6.6089       8.8118 *  0.0000     8          
    56  Cl    c      6.6089 *    11.0148 *     0.0000    0.0000     8          
    57  Na    c      6.6089 *     0.0000      11.0148 *  0.0000     8          
    58  Na    c     11.0148 *     0.0000       6.6089 *  0.0000     8          
    59  Na    c      6.6089 *     8.8118 *     6.6089 *  0.0000    16          
    60  Ba    s      0.0000       0.0000       0.0000    0.0000     1    Defect
    61  O     s      0.0000       0.0000      -2.2030 *  0.0000     2          
    62  Cl    s      2.2030 *     2.2030       0.0000    0.0000     4          
    63  O     s      0.0000       4.4059 *    -2.2030 *  0.0000     8          
    64  Cl    s      2.2030 *     2.2030       4.4059 *  0.0000     8          
    65  O     s      0.0000       0.0000       6.6089 *  0.0000     2          
    66  O     s      4.4059 *     4.4059      -2.2030 *  0.0000     8          
    67  Cl    s      2.2030 *     6.6089 *     0.0000    0.0000     8          
    68  O     s      0.0000       4.4059 *     6.6089 *  0.0000     8          
    69  Cl    s      2.2030 *     6.6089 *     4.4059 *  0.0000    16          
    70  O     s      4.4059 *     4.4059       6.6089 *  0.0000     8          
    71  O     s      0.0000       8.8118 *    -2.2030 *  0.0000     8          
    72  Cl    s      2.2030 *     2.2030       8.8118 *  0.0000     8          
    73  Cl    s      6.6089 *     6.6089       0.0000    0.0000     4          
    74  O     s      4.4059 *     8.8118 *    -2.2030 *  0.0000    16          
    75  Cl    s      6.6089 *     6.6089       4.4059 *  0.0000     8          
    76  O     s      0.0000       0.0000      11.0148 *  0.0000     2          
    77  O     s      0.0000       8.8118 *     6.6089 *  0.0000     8          
    78  Cl    s      2.2030 *     6.6089 *     8.8118 *  0.0000    16          
    79  Cl    s      2.2030 *    11.0148 *     0.0000    0.0000     8          
    80  O     s      0.0000       4.4059 *    11.0148 *  0.0000     8          
    81  O     s      4.4059 *     8.8118 *     6.6089 *  0.0000    16          
    82  Cl    s      2.2030 *    11.0148 *     4.4059 *  0.0000    16          
    83  O     s      4.4059 *     4.4059      11.0148 *  0.0000     8          
    84  O     s      8.8118 *     8.8118      -2.2030 *  0.0000     8          
    85  Cl    s      6.6089 *     6.6089       8.8118 *  0.0000     8          
    86  Cl    s      6.6089 *    11.0148 *     0.0000    0.0000     8          
--------------------------------------------------------------------------------


  Constraints on symmetry reduced coordinates :

--------------------------------------------------------------------------------
  Constraint no.      Unconstrained     Constrained    Coefficient    
                         Variable         Variable
--------------------------------------------------------------------------------
           1                 3 x             3 y         1.00000
           2                 9 x             9 y         1.00000
           3                11 x            11 y         1.00000
           4                13 x            13 y         1.00000
           5                17 x            17 y         1.00000
           6                24 x            24 y         1.00000
           7                26 x            26 y         1.00000
           8                27 x            27 y         1.00000
           9                34 x            34 y         1.00000
          10                37 x            37 y         1.00000
          11                52 x            52 y         1.00000
          12                53 x            53 y         1.00000
          13                54 x            54 y         1.00000
          14                55 x            55 y         1.00000
          15                62 x            62 y         1.00000
          16                64 x            64 y         1.00000
          17                66 x            66 y         1.00000
          18                70 x            70 y         1.00000
          19                72 x            72 y         1.00000
          20                73 x            73 y         1.00000
          21                75 x            75 y         1.00000
          22                83 x            83 y         1.00000
          23                84 x            84 y         1.00000
          24                85 x            85 y         1.00000
--------------------------------------------------------------------------------


  Components of defect energy : 

--------------------------------------------------------------------------------
  Region 1 - region 1                   =    -20.98329530 eV
  Region 1 - region 2a (unrelaxed)      =     17.18059121 eV
  Region 1 - 2a (relaxed - correction)  =     -0.45984309 eV
  Region 1 (Total)                      =     -4.26254718 eV
  Region 2a                             =      0.22996478 eV
  Region 2b                             =     -0.27216525 eV
--------------------------------------------------------------------------------
  Total defect energy                   =     -4.30474765 eV
--------------------------------------------------------------------------------

  Largest displacement in region 2 =   0.0128 Angstroms


  Number of variables =      173

  Maximum number of calculations  =        1000
  Maximum Hessian update interval =          10
  Maximum step size               =   1.0000000
  Maximum parameter tolerance     =   0.0000100
  Maximum function  tolerance     =   0.0000100
  Maximum gradient  tolerance     =   0.0010000

  Symmetry adapted optimisation

  Symmetry to be used for second derivatives

  Newton-Raphson optimiser to be used

  BFGS hessian update to be used

  Lower half triangular hessian to be used

  Start of defect optimisation :

  Cycle:      0 Defect Energy:  -4.304748  Gnorm:     0.216135  CPU:    2.561
  ** Hessian calculated **
  Cycle:      1 Defect Energy:  -6.816077  Gnorm:     0.082322  CPU:    5.550
  Cycle:      2 Defect Energy:  -7.280451  Gnorm:     0.008353  CPU:    7.713
  Cycle:      3 Defect Energy:  -7.291641  Gnorm:     0.005932  CPU:    8.288
  Cycle:      4 Defect Energy:  -7.298961  Gnorm:     0.003870  CPU:    8.877
  Cycle:      5 Defect Energy:  -7.302604  Gnorm:     0.002769  CPU:    9.453
  Cycle:      6 Defect Energy:  -7.304344  Gnorm:     0.001845  CPU:   10.097
  Cycle:      7 Defect Energy:  -7.305190  Gnorm:     0.001324  CPU:   10.621
  Cycle:      8 Defect Energy:  -7.305592  Gnorm:     0.000899  CPU:   10.970
  Cycle:      9 Defect Energy:  -7.305788  Gnorm:     0.000642  CPU:   13.854
  Cycle:     10 Defect Energy:  -7.305881  Gnorm:     0.000441  CPU:   15.843
  ** Hessian calculated **
  Cycle:     11 Defect Energy:  -7.305925  Gnorm:     0.000308  CPU:   17.128
  Cycle:     12 Defect Energy:  -7.305945  Gnorm:     0.000216  CPU:   17.714
  Cycle:     13 Defect Energy:  -7.305954  Gnorm:     0.000151  CPU:   18.298
  Cycle:     14 Defect Energy:  -7.305958  Gnorm:     0.000106  CPU:   18.886


  **** Optimisation achieved ****


  Final defect energy  =       -7.30595953
  Final defect Gnorm   =        0.00007415

  Components of defect energy : 

--------------------------------------------------------------------------------
  Region 1 - region 1                   =    -23.59189870 eV
  Region 1 - region 2a (unrelaxed)      =     16.76300413 eV
  Region 1 - 2a (relaxed - correction)  =     -0.40975394 eV
  Region 1 (Total)                      =     -7.23864852 eV
  Region 2a                             =      0.20485423 eV
  Region 2b                             =     -0.27216525 eV
--------------------------------------------------------------------------------
  Total defect energy                   =     -7.30595953 eV
--------------------------------------------------------------------------------

  Largest displacement in region 2 =   0.0128 Angstroms

  Final coordinates of region 1 :

--------------------------------------------------------------------------------
   No.  Atomic        x           y           z          Radius      Charge
        Label       (Angs)      (Angs)      (Angs)       (Angs)       (e) 
--------------------------------------------------------------------------------
     1  Ba    c     2.202951    2.202951    0.000000    0.000000   -7.203000
     2  O     c     2.202951    2.202951   -2.406865    0.000000    0.183000
     3  O     c     2.202951    2.202951    2.406865    0.000000    0.183000
     4  Cl    c     4.429287    4.429287    0.000000    0.000000    1.485000
     5  Cl    c     4.429287   -0.023385    0.000000    0.000000    1.485000
     6  Cl    c    -0.023385    4.429287    0.000000    0.000000    1.485000
     7  Cl    c    -0.023385   -0.023385    0.000000    0.000000    1.485000
     8  Na    c     4.477234    2.202951   -2.614369    0.000000    1.000000
     9  Na    c     4.477234    2.202951    2.614369    0.000000    1.000000
    10  Na    c    -0.071332    2.202951   -2.614369    0.000000    1.000000
    11  Na    c    -0.071332    2.202951    2.614369    0.000000    1.000000
    12  Na    c     2.202951    4.477234   -2.614369    0.000000    1.000000
    13  Na    c     2.202951    4.477234    2.614369    0.000000    1.000000
    14  Na    c     2.202951   -0.071332   -2.614369    0.000000    1.000000
    15  Na    c     2.202951   -0.071332    2.614369    0.000000    1.000000
    16  Na    c     2.202951    2.202951    4.577078    0.000000    1.000000
    17  Na    c     2.202951    2.202951   -4.577078    0.000000    1.000000
    18  Na    c     2.202951    6.510056    0.000000    0.000000    1.000000
    19  Na    c     2.202951   -2.104153    0.000000    0.000000    1.000000
    20  Na    c     6.510056    2.202951    0.000000    0.000000    1.000000
    21  Na    c    -2.104153    2.202951    0.000000    0.000000    1.000000
    22  O     c     2.202951    6.607801   -2.230803    0.000000    0.183000
    23  O     c     2.202951    6.607801    2.230803    0.000000    0.183000
    24  O     c     2.202951   -2.201899   -2.230803    0.000000    0.183000
    25  O     c     2.202951   -2.201899    2.230803    0.000000    0.183000
    26  O     c     6.607801    2.202951   -2.230803    0.000000    0.183000
    27  O     c     6.607801    2.202951    2.230803    0.000000    0.183000
    28  O     c    -2.201899    2.202951   -2.230803    0.000000    0.183000
    29  O     c    -2.201899    2.202951    2.230803    0.000000    0.183000
    30  Na    c     4.411487    6.647491   -2.196307    0.000000    1.000000
    31  Na    c     4.411487    6.647491    2.196307    0.000000    1.000000
    32  Na    c     4.411487   -2.241588   -2.196307    0.000000    1.000000
    33  Na    c     4.411487   -2.241588    2.196307    0.000000    1.000000
    34  Na    c    -0.005585    6.647491   -2.196307    0.000000    1.000000
    35  Na    c    -0.005585    6.647491    2.196307    0.000000    1.000000
    36  Na    c    -0.005585   -2.241588   -2.196307    0.000000    1.000000
    37  Na    c    -0.005585   -2.241588    2.196307    0.000000    1.000000
    38  Na    c     6.647491    4.411487   -2.196307    0.000000    1.000000
    39  Na    c     6.647491    4.411487    2.196307    0.000000    1.000000
    40  Na    c     6.647491   -0.005585   -2.196307    0.000000    1.000000
    41  Na    c     6.647491   -0.005585    2.196307    0.000000    1.000000
    42  Na    c    -2.241588    4.411487   -2.196307    0.000000    1.000000
    43  Na    c    -2.241588    4.411487    2.196307    0.000000    1.000000
    44  Na    c    -2.241588   -0.005585   -2.196307    0.000000    1.000000
    45  Na    c    -2.241588   -0.005585    2.196307    0.000000    1.000000
    46  Cl    c     4.391155    4.391155    4.450523    0.000000    1.485000
    47  Cl    c     4.391155    4.391155   -4.450523    0.000000    1.485000
    48  Cl    c     4.391155    0.014747    4.450523    0.000000    1.485000
    49  Cl    c     4.391155    0.014747   -4.450523    0.000000    1.485000
    50  Cl    c     0.014747    4.391155    4.450523    0.000000    1.485000
    51  Cl    c     0.014747    4.391155   -4.450523    0.000000    1.485000
    52  Cl    c     0.014747    0.014747    4.450523    0.000000    1.485000
    53  Cl    c     0.014747    0.014747   -4.450523    0.000000    1.485000
    54  Na    c     2.202951    6.816839    4.447017    0.000000    1.000000
    55  Na    c     2.202951    6.816839   -4.447017    0.000000    1.000000
    56  Na    c     2.202951   -2.410937    4.447017    0.000000    1.000000
    57  Na    c     2.202951   -2.410937   -4.447017    0.000000    1.000000
    58  Na    c     6.816839    2.202951    4.447017    0.000000    1.000000
    59  Na    c     6.816839    2.202951   -4.447017    0.000000    1.000000
    60  Na    c    -2.410937    2.202951    4.447017    0.000000    1.000000
    61  Na    c    -2.410937    2.202951   -4.447017    0.000000    1.000000
    62  Na    c     6.641655    6.641655    0.000000    0.000000    1.000000
    63  Na    c     6.641655   -2.235753    0.000000    0.000000    1.000000
    64  Na    c    -2.235753    6.641655    0.000000    0.000000    1.000000
    65  Na    c    -2.235753   -2.235753    0.000000    0.000000    1.000000
    66  O     c     2.202951    2.202951    6.688098    0.000000    0.183000
    67  O     c     2.202951    2.202951   -6.688098    0.000000    0.183000
    68  O     c     6.609024    6.609024   -2.204901    0.000000    0.183000
    69  O     c     6.609024    6.609024    2.204901    0.000000    0.183000
    70  O     c     6.609024   -2.203122   -2.204901    0.000000    0.183000
    71  O     c     6.609024   -2.203122    2.204901    0.000000    0.183000
    72  O     c    -2.203122    6.609024   -2.204901    0.000000    0.183000
    73  O     c    -2.203122    6.609024    2.204901    0.000000    0.183000
    74  O     c    -2.203122   -2.203122   -2.204901    0.000000    0.183000
    75  O     c    -2.203122   -2.203122    2.204901    0.000000    0.183000
    76  Cl    c     4.392065    8.779825    0.000000    0.000000    1.485000
    77  Cl    c     4.392065   -4.373923    0.000000    0.000000    1.485000
    78  Cl    c     8.779825    4.392065    0.000000    0.000000    1.485000
    79  Cl    c     8.779825    0.013838    0.000000    0.000000    1.485000
    80  Cl    c     0.013838    8.779825    0.000000    0.000000    1.485000
    81  Cl    c     0.013838   -4.373923    0.000000    0.000000    1.485000
    82  Cl    c    -4.373923    4.392065    0.000000    0.000000    1.485000
    83  Cl    c    -4.373923    0.013838    0.000000    0.000000    1.485000
    84  Na    c     4.428529    2.202951    6.680970    0.000000    1.000000
    85  Na    c     4.428529    2.202951   -6.680970    0.000000    1.000000
    86  Na    c    -0.022626    2.202951    6.680970    0.000000    1.000000
    87  Na    c    -0.022626    2.202951   -6.680970    0.000000    1.000000
    88  Na    c     2.202951    4.428529    6.680970    0.000000    1.000000
    89  Na    c     2.202951    4.428529   -6.680970    0.000000    1.000000
    90  Na    c     2.202951   -0.022626    6.680970    0.000000    1.000000
    91  Na    c     2.202951   -0.022626   -6.680970    0.000000    1.000000
    92  Na    c     8.821232    2.202951   -2.109059    0.000000    1.000000
    93  Na    c     8.821232    2.202951    2.109059    0.000000    1.000000
    94  Na    c    -4.415330    2.202951   -2.109059    0.000000    1.000000
    95  Na    c    -4.415330    2.202951    2.109059    0.000000    1.000000
    96  Na    c     2.202951    8.821232   -2.109059    0.000000    1.000000
    97  Na    c     2.202951    8.821232    2.109059    0.000000    1.000000
    98  Na    c     2.202951   -4.415330   -2.109059    0.000000    1.000000
    99  Na    c     2.202951   -4.415330    2.109059    0.000000    1.000000
   100  Na    c     6.616604    6.616604    4.410538    0.000000    1.000000
   101  Na    c     6.616604    6.616604   -4.410538    0.000000    1.000000
   102  Na    c     6.616604   -2.210702    4.410538    0.000000    1.000000
   103  Na    c     6.616604   -2.210702   -4.410538    0.000000    1.000000
   104  Na    c    -2.210702    6.616604    4.410538    0.000000    1.000000
   105  Na    c    -2.210702    6.616604   -4.410538    0.000000    1.000000
   106  Na    c    -2.210702   -2.210702    4.410538    0.000000    1.000000
   107  Na    c    -2.210702   -2.210702   -4.410538    0.000000    1.000000
   108  O     c     2.202951    6.633562    6.632951    0.000000    0.183000
   109  O     c     2.202951    6.633562   -6.632951    0.000000    0.183000
   110  O     c     2.202951   -2.227660    6.632951    0.000000    0.183000
   111  O     c     2.202951   -2.227660   -6.632951    0.000000    0.183000
   112  O     c     6.633562    2.202951    6.632951    0.000000    0.183000
   113  O     c     6.633562    2.202951   -6.632951    0.000000    0.183000
   114  O     c    -2.227660    2.202951    6.632951    0.000000    0.183000
   115  O     c    -2.227660    2.202951   -6.632951    0.000000    0.183000
   116  Cl    c     4.400399    8.803249    4.401351    0.000000    1.485000
   117  Cl    c     4.400399    8.803249   -4.401351    0.000000    1.485000
   118  Cl    c     4.400399   -4.397346    4.401351    0.000000    1.485000
   119  Cl    c     4.400399   -4.397346   -4.401351    0.000000    1.485000
   120  Cl    c     8.803249    4.400399    4.401351    0.000000    1.485000
   121  Cl    c     8.803249    4.400399   -4.401351    0.000000    1.485000
   122  Cl    c     8.803249    0.005504    4.401351    0.000000    1.485000
   123  Cl    c     8.803249    0.005504   -4.401351    0.000000    1.485000
   124  Cl    c     0.005504    8.803249    4.401351    0.000000    1.485000
   125  Cl    c     0.005504    8.803249   -4.401351    0.000000    1.485000
   126  Cl    c     0.005504   -4.397346    4.401351    0.000000    1.485000
   127  Cl    c     0.005504   -4.397346   -4.401351    0.000000    1.485000
   128  Cl    c    -4.397346    4.400399    4.401351    0.000000    1.485000
   129  Cl    c    -4.397346    4.400399   -4.401351    0.000000    1.485000
   130  Cl    c    -4.397346    0.005504    4.401351    0.000000    1.485000
   131  Cl    c    -4.397346    0.005504   -4.401351    0.000000    1.485000
   132  Na    c     4.408351    6.620357    6.630841    0.000000    1.000000
   133  Na    c     4.408351    6.620357   -6.630841    0.000000    1.000000
   134  Na    c     4.408351   -2.214455    6.630841    0.000000    1.000000
   135  Na    c     4.408351   -2.214455   -6.630841    0.000000    1.000000
   136  Na    c    -0.002448    6.620357    6.630841    0.000000    1.000000
   137  Na    c    -0.002448    6.620357   -6.630841    0.000000    1.000000
   138  Na    c    -0.002448   -2.214455    6.630841    0.000000    1.000000
   139  Na    c    -0.002448   -2.214455   -6.630841    0.000000    1.000000
   140  Na    c     6.620357    4.408351    6.630841    0.000000    1.000000
   141  Na    c     6.620357    4.408351   -6.630841    0.000000    1.000000
   142  Na    c     6.620357   -0.002448    6.630841    0.000000    1.000000
   143  Na    c     6.620357   -0.002448   -6.630841    0.000000    1.000000
   144  Na    c    -2.214455    4.408351    6.630841    0.000000    1.000000
   145  Na    c    -2.214455    4.408351   -6.630841    0.000000    1.000000
   146  Na    c    -2.214455   -0.002448    6.630841    0.000000    1.000000
   147  Na    c    -2.214455   -0.002448   -6.630841    0.000000    1.000000
   148  Na    c     8.817809    6.623868   -2.214433    0.000000    1.000000
   149  Na    c     8.817809    6.623868    2.214433    0.000000    1.000000
   150  Na    c     8.817809   -2.217966   -2.214433    0.000000    1.000000
   151  Na    c     8.817809   -2.217966    2.214433    0.000000    1.000000
   152  Na    c    -4.411906    6.623868   -2.214433    0.000000    1.000000
   153  Na    c    -4.411906    6.623868    2.214433    0.000000    1.000000
   154  Na    c    -4.411906   -2.217966   -2.214433    0.000000    1.000000
   155  Na    c    -4.411906   -2.217966    2.214433    0.000000    1.000000
   156  Na    c     6.623868    8.817809   -2.214433    0.000000    1.000000
   157  Na    c     6.623868    8.817809    2.214433    0.000000    1.000000
   158  Na    c     6.623868   -4.411906   -2.214433    0.000000    1.000000
   159  Na    c     6.623868   -4.411906    2.214433    0.000000    1.000000
   160  Na    c    -2.217966    8.817809   -2.214433    0.000000    1.000000
   161  Na    c    -2.217966    8.817809    2.214433    0.000000    1.000000
   162  Na    c    -2.217966   -4.411906   -2.214433    0.000000    1.000000
   163  Na    c    -2.217966   -4.411906    2.214433    0.000000    1.000000
   164  Na    c     2.202951    2.202951    8.855623    0.000000    1.000000
   165  Na    c     2.202951    2.202951   -8.855623    0.000000    1.000000
   166  Na    c     2.202951   11.097446    0.000000    0.000000    1.000000
   167  Na    c     2.202951   -6.691544    0.000000    0.000000    1.000000
   168  Na    c    11.097446    2.202951    0.000000    0.000000    1.000000
   169  Na    c    -6.691544    2.202951    0.000000    0.000000    1.000000
   170  O     c     6.607893    6.607893    6.608896    0.000000    0.183000
   171  O     c     6.607893    6.607893   -6.608896    0.000000    0.183000
   172  O     c     6.607893   -2.201991    6.608896    0.000000    0.183000
   173  O     c     6.607893   -2.201991   -6.608896    0.000000    0.183000
   174  O     c    -2.201991    6.607893    6.608896    0.000000    0.183000
   175  O     c    -2.201991    6.607893   -6.608896    0.000000    0.183000
   176  O     c    -2.201991   -2.201991    6.608896    0.000000    0.183000
   177  O     c    -2.201991   -2.201991   -6.608896    0.000000    0.183000
   178  O     c     2.202951   11.015906   -2.198682    0.000000    0.183000
   179  O     c     2.202951   11.015906    2.198682    0.000000    0.183000
   180  O     c     2.202951   -6.610004   -2.198682    0.000000    0.183000
   181  O     c     2.202951   -6.610004    2.198682    0.000000    0.183000
   182  O     c    11.015906    2.202951   -2.198682    0.000000    0.183000
   183  O     c    11.015906    2.202951    2.198682    0.000000    0.183000
   184  O     c    -6.610004    2.202951   -2.198682    0.000000    0.183000
   185  O     c    -6.610004    2.202951    2.198682    0.000000    0.183000
   186  Cl    c     4.408785    4.408785    8.813881    0.000000    1.485000
   187  Cl    c     4.408785    4.408785   -8.813881    0.000000    1.485000
   188  Cl    c     4.408785   -0.002883    8.813881    0.000000    1.485000
   189  Cl    c     4.408785   -0.002883   -8.813881    0.000000    1.485000
   190  Cl    c    -0.002883    4.408785    8.813881    0.000000    1.485000
   191  Cl    c    -0.002883    4.408785   -8.813881    0.000000    1.485000
   192  Cl    c    -0.002883   -0.002883    8.813881    0.000000    1.485000
   193  Cl    c    -0.002883   -0.002883   -8.813881    0.000000    1.485000
   194  Cl    c     8.795245    8.795245    0.000000    0.000000    1.485000
   195  Cl    c     8.795245   -4.389343    0.000000    0.000000    1.485000
   196  Cl    c    -4.389343    8.795245    0.000000    0.000000    1.485000
   197  Cl    c    -4.389343   -4.389343    0.000000    0.000000    1.485000
   198  Na    c     8.835040    2.202951    6.716319    0.000000    1.000000
   199  Na    c     8.835040    2.202951   -6.716319    0.000000    1.000000
   200  Na    c    -4.429137    2.202951    6.716319    0.000000    1.000000
   201  Na    c    -4.429137    2.202951   -6.716319    0.000000    1.000000
   202  Na    c     2.202951    8.835040    6.716319    0.000000    1.000000
   203  Na    c     2.202951    8.835040   -6.716319    0.000000    1.000000
   204  Na    c     2.202951   -4.429137    6.716319    0.000000    1.000000
   205  Na    c     2.202951   -4.429137   -6.716319    0.000000    1.000000
   206  Na    c     4.406457   11.027434   -2.215887    0.000000    1.000000
   207  Na    c     4.406457   11.027434    2.215887    0.000000    1.000000
   208  Na    c     4.406457   -6.621532   -2.215887    0.000000    1.000000
   209  Na    c     4.406457   -6.621532    2.215887    0.000000    1.000000
   210  Na    c    -0.000555   11.027434   -2.215887    0.000000    1.000000
   211  Na    c    -0.000555   11.027434    2.215887    0.000000    1.000000
   212  Na    c    -0.000555   -6.621532   -2.215887    0.000000    1.000000
   213  Na    c    -0.000555   -6.621532    2.215887    0.000000    1.000000
   214  Na    c    11.027434    4.406457   -2.215887    0.000000    1.000000
   215  Na    c    11.027434    4.406457    2.215887    0.000000    1.000000
   216  Na    c    11.027434   -0.000555   -2.215887    0.000000    1.000000
   217  Na    c    11.027434   -0.000555    2.215887    0.000000    1.000000
   218  Na    c    -6.621532    4.406457   -2.215887    0.000000    1.000000
   219  Na    c    -6.621532    4.406457    2.215887    0.000000    1.000000
   220  Na    c    -6.621532   -0.000555   -2.215887    0.000000    1.000000
   221  Na    c    -6.621532   -0.000555    2.215887    0.000000    1.000000
   222  Na    c     2.202951    6.619361    8.834684    0.000000    1.000000
   223  Na    c     2.202951    6.619361   -8.834684    0.000000    1.000000
   224  Na    c     2.202951   -2.213459    8.834684    0.000000    1.000000
   225  Na    c     2.202951   -2.213459   -8.834684    0.000000    1.000000
   226  Na    c     6.619361    2.202951    8.834684    0.000000    1.000000
   227  Na    c     6.619361    2.202951   -8.834684    0.000000    1.000000
   228  Na    c    -2.213459    2.202951    8.834684    0.000000    1.000000
   229  Na    c    -2.213459    2.202951   -8.834684    0.000000    1.000000
   230  Na    c     2.202951   10.977792    4.408929    0.000000    1.000000
   231  Na    c     2.202951   10.977792   -4.408929    0.000000    1.000000
   232  Na    c     2.202951   -6.571890    4.408929    0.000000    1.000000
   233  Na    c     2.202951   -6.571890   -4.408929    0.000000    1.000000
   234  Na    c    10.977792    2.202951    4.408929    0.000000    1.000000
   235  Na    c    10.977792    2.202951   -4.408929    0.000000    1.000000
   236  Na    c    -6.571890    2.202951    4.408929    0.000000    1.000000
   237  Na    c    -6.571890    2.202951   -4.408929    0.000000    1.000000
   238  Na    c     6.604318   11.025424    0.000000    0.000000    1.000000
   239  Na    c     6.604318   -6.619522    0.000000    0.000000    1.000000
   240  Na    c    11.025424    6.604318    0.000000    0.000000    1.000000
   241  Na    c    11.025424   -2.198416    0.000000    0.000000    1.000000
   242  Na    c    -2.198416   11.025424    0.000000    0.000000    1.000000
   243  Na    c    -2.198416   -6.619522    0.000000    0.000000    1.000000
   244  Na    c    -6.619522    6.604318    0.000000    0.000000    1.000000
   245  Na    c    -6.619522   -2.198416    0.000000    0.000000    1.000000
   246  O     c     6.607974   11.014262   -2.203847    0.000000    0.183000
   247  O     c     6.607974   11.014262    2.203847    0.000000    0.183000
   248  O     c     6.607974   -6.608359   -2.203847    0.000000    0.183000
   249  O     c     6.607974   -6.608359    2.203847    0.000000    0.183000
   250  O     c    11.014262    6.607974   -2.203847    0.000000    0.183000
   251  O     c    11.014262    6.607974    2.203847    0.000000    0.183000
   252  O     c    11.014262   -2.202072   -2.203847    0.000000    0.183000
   253  O     c    11.014262   -2.202072    2.203847    0.000000    0.183000
   254  O     c    -2.202072   11.014262   -2.203847    0.000000    0.183000
   255  O     c    -2.202072   11.014262    2.203847    0.000000    0.183000
   256  O     c    -2.202072   -6.608359   -2.203847    0.000000    0.183000
   257  O     c    -2.202072   -6.608359    2.203847    0.000000    0.183000
   258  O     c    -6.608359    6.607974   -2.203847    0.000000    0.183000
   259  O     c    -6.608359    6.607974    2.203847    0.000000    0.183000
   260  O     c    -6.608359   -2.202072   -2.203847    0.000000    0.183000
   261  O     c    -6.608359   -2.202072    2.203847    0.000000    0.183000
   262  Cl    c     8.801358    8.801358    4.396702    0.000000    1.485000
   263  Cl    c     8.801358    8.801358   -4.396702    0.000000    1.485000
   264  Cl    c     8.801358   -4.395456    4.396702    0.000000    1.485000
   265  Cl    c     8.801358   -4.395456   -4.396702    0.000000    1.485000
   266  Cl    c    -4.395456    8.801358    4.396702    0.000000    1.485000
   267  Cl    c    -4.395456    8.801358   -4.396702    0.000000    1.485000
   268  Cl    c    -4.395456   -4.395456    4.396702    0.000000    1.485000
   269  Cl    c    -4.395456   -4.395456   -4.396702    0.000000    1.485000
   270  Na    c     8.814543    6.617372    6.613420    0.000000    1.000000
   271  Na    c     8.814543    6.617372   -6.613420    0.000000    1.000000
   272  Na    c     8.814543   -2.211470    6.613420    0.000000    1.000000
   273  Na    c     8.814543   -2.211470   -6.613420    0.000000    1.000000
   274  Na    c    -4.408640    6.617372    6.613420    0.000000    1.000000
   275  Na    c    -4.408640    6.617372   -6.613420    0.000000    1.000000
   276  Na    c    -4.408640   -2.211470    6.613420    0.000000    1.000000
   277  Na    c    -4.408640   -2.211470   -6.613420    0.000000    1.000000
   278  Na    c     6.617372    8.814543    6.613420    0.000000    1.000000
   279  Na    c     6.617372    8.814543   -6.613420    0.000000    1.000000
   280  Na    c     6.617372   -4.408640    6.613420    0.000000    1.000000
   281  Na    c     6.617372   -4.408640   -6.613420    0.000000    1.000000
   282  Na    c    -2.211470    8.814543    6.613420    0.000000    1.000000
   283  Na    c    -2.211470    8.814543   -6.613420    0.000000    1.000000
   284  Na    c    -2.211470   -4.408640    6.613420    0.000000    1.000000
   285  Na    c    -2.211470   -4.408640   -6.613420    0.000000    1.000000
   286  Na    c     6.621497   11.023782    4.407122    0.000000    1.000000
   287  Na    c     6.621497   11.023782   -4.407122    0.000000    1.000000
   288  Na    c     6.621497   -6.617880    4.407122    0.000000    1.000000
   289  Na    c     6.621497   -6.617880   -4.407122    0.000000    1.000000
   290  Na    c    11.023782    6.621497    4.407122    0.000000    1.000000
   291  Na    c    11.023782    6.621497   -4.407122    0.000000    1.000000
   292  Na    c    11.023782   -2.215595    4.407122    0.000000    1.000000
   293  Na    c    11.023782   -2.215595   -4.407122    0.000000    1.000000
   294  Na    c    -2.215595   11.023782    4.407122    0.000000    1.000000
   295  Na    c    -2.215595   11.023782   -4.407122    0.000000    1.000000
   296  Na    c    -2.215595   -6.617880    4.407122    0.000000    1.000000
   297  Na    c    -2.215595   -6.617880   -4.407122    0.000000    1.000000
   298  Na    c    -6.617880    6.621497    4.407122    0.000000    1.000000
   299  Na    c    -6.617880    6.621497   -4.407122    0.000000    1.000000
   300  Na    c    -6.617880   -2.215595    4.407122    0.000000    1.000000
   301  Na    c    -6.617880   -2.215595   -4.407122    0.000000    1.000000
   302  Na    c     6.613279    6.613279    8.814793    0.000000    1.000000
   303  Na    c     6.613279    6.613279   -8.814793    0.000000    1.000000
   304  Na    c     6.613279   -2.207377    8.814793    0.000000    1.000000
   305  Na    c     6.613279   -2.207377   -8.814793    0.000000    1.000000
   306  Na    c    -2.207377    6.613279    8.814793    0.000000    1.000000
   307  Na    c    -2.207377    6.613279   -8.814793    0.000000    1.000000
   308  Na    c    -2.207377   -2.207377    8.814793    0.000000    1.000000
   309  Na    c    -2.207377   -2.207377   -8.814793    0.000000    1.000000
   310  O     c     2.202951    2.202951   11.033101    0.000000    0.183000
   311  O     c     2.202951    2.202951  -11.033101    0.000000    0.183000
   312  O     c     2.202951   11.020204    6.617189    0.000000    0.183000
   313  O     c     2.202951   11.020204   -6.617189    0.000000    0.183000
   314  O     c     2.202951   -6.614302    6.617189    0.000000    0.183000
   315  O     c     2.202951   -6.614302   -6.617189    0.000000    0.183000
   316  O     c    11.020204    2.202951    6.617189    0.000000    0.183000
   317  O     c    11.020204    2.202951   -6.617189    0.000000    0.183000
   318  O     c    -6.614302    2.202951    6.617189    0.000000    0.183000
   319  O     c    -6.614302    2.202951   -6.617189    0.000000    0.183000
   320  Cl    c     4.403108    8.809913    8.808190    0.000000    1.485000
   321  Cl    c     4.403108    8.809913   -8.808190    0.000000    1.485000
   322  Cl    c     4.403108   -4.404011    8.808190    0.000000    1.485000
   323  Cl    c     4.403108   -4.404011   -8.808190    0.000000    1.485000
   324  Cl    c     8.809913    4.403108    8.808190    0.000000    1.485000
   325  Cl    c     8.809913    4.403108   -8.808190    0.000000    1.485000
   326  Cl    c     8.809913    0.002794    8.808190    0.000000    1.485000
   327  Cl    c     8.809913    0.002794   -8.808190    0.000000    1.485000
   328  Cl    c     0.002794    8.809913    8.808190    0.000000    1.485000
   329  Cl    c     0.002794    8.809913   -8.808190    0.000000    1.485000
   330  Cl    c     0.002794   -4.404011    8.808190    0.000000    1.485000
   331  Cl    c     0.002794   -4.404011   -8.808190    0.000000    1.485000
   332  Cl    c    -4.404011    4.403108    8.808190    0.000000    1.485000
   333  Cl    c    -4.404011    4.403108   -8.808190    0.000000    1.485000
   334  Cl    c    -4.404011    0.002794    8.808190    0.000000    1.485000
   335  Cl    c    -4.404011    0.002794   -8.808190    0.000000    1.485000
   336  Cl    c     4.404625   13.202870    0.000000    0.000000    1.485000
   337  Cl    c     4.404625   -8.796968    0.000000    0.000000    1.485000
   338  Cl    c    13.202870    4.404625    0.000000    0.000000    1.485000
   339  Cl    c    13.202870    0.001278    0.000000    0.000000    1.485000
   340  Cl    c     0.001278   13.202870    0.000000    0.000000    1.485000
   341  Cl    c     0.001278   -8.796968    0.000000    0.000000    1.485000
   342  Cl    c    -8.796968    4.404625    0.000000    0.000000    1.485000
   343  Cl    c    -8.796968    0.001278    0.000000    0.000000    1.485000
   344  Na    c     4.408564    2.202951   11.039004    0.000000    1.000000
   345  Na    c     4.408564    2.202951  -11.039004    0.000000    1.000000
   346  Na    c    -0.002662    2.202951   11.039004    0.000000    1.000000
   347  Na    c    -0.002662    2.202951  -11.039004    0.000000    1.000000
   348  Na    c     2.202951    4.408564   11.039004    0.000000    1.000000
   349  Na    c     2.202951    4.408564  -11.039004    0.000000    1.000000
   350  Na    c     2.202951   -0.002662   11.039004    0.000000    1.000000
   351  Na    c     2.202951   -0.002662  -11.039004    0.000000    1.000000
   352  Na    c     4.407522   11.028149    6.606940    0.000000    1.000000
   353  Na    c     4.407522   11.028149   -6.606940    0.000000    1.000000
   354  Na    c     4.407522   -6.622247    6.606940    0.000000    1.000000
   355  Na    c     4.407522   -6.622247   -6.606940    0.000000    1.000000
   356  Na    c    -0.001620   11.028149    6.606940    0.000000    1.000000
   357  Na    c    -0.001620   11.028149   -6.606940    0.000000    1.000000
   358  Na    c    -0.001620   -6.622247    6.606940    0.000000    1.000000
   359  Na    c    -0.001620   -6.622247   -6.606940    0.000000    1.000000
   360  Na    c    11.028149    4.407522    6.606940    0.000000    1.000000
   361  Na    c    11.028149    4.407522   -6.606940    0.000000    1.000000
   362  Na    c    11.028149   -0.001620    6.606940    0.000000    1.000000
   363  Na    c    11.028149   -0.001620   -6.606940    0.000000    1.000000
   364  Na    c    -6.622247    4.407522    6.606940    0.000000    1.000000
   365  Na    c    -6.622247    4.407522   -6.606940    0.000000    1.000000
   366  Na    c    -6.622247   -0.001620    6.606940    0.000000    1.000000
   367  Na    c    -6.622247   -0.001620   -6.606940    0.000000    1.000000
   368  Na    c    13.221730    2.202951   -2.233963    0.000000    1.000000
   369  Na    c    13.221730    2.202951    2.233963    0.000000    1.000000
   370  Na    c    -8.815827    2.202951   -2.233963    0.000000    1.000000
   371  Na    c    -8.815827    2.202951    2.233963    0.000000    1.000000
   372  Na    c     2.202951   13.221730   -2.233963    0.000000    1.000000
   373  Na    c     2.202951   13.221730    2.233963    0.000000    1.000000
   374  Na    c     2.202951   -8.815827   -2.233963    0.000000    1.000000
   375  Na    c     2.202951   -8.815827    2.233963    0.000000    1.000000
   376  Na    c     8.813140   11.022551   -2.195596    0.000000    1.000000
   377  Na    c     8.813140   11.022551    2.195596    0.000000    1.000000
   378  Na    c     8.813140   -6.616649   -2.195596    0.000000    1.000000
   379  Na    c     8.813140   -6.616649    2.195596    0.000000    1.000000
   380  Na    c    -4.407238   11.022551   -2.195596    0.000000    1.000000
   381  Na    c    -4.407238   11.022551    2.195596    0.000000    1.000000
   382  Na    c    -4.407238   -6.616649   -2.195596    0.000000    1.000000
   383  Na    c    -4.407238   -6.616649    2.195596    0.000000    1.000000
   384  Na    c    11.022551    8.813140   -2.195596    0.000000    1.000000
   385  Na    c    11.022551    8.813140    2.195596    0.000000    1.000000
   386  Na    c    11.022551   -4.407238   -2.195596    0.000000    1.000000
   387  Na    c    11.022551   -4.407238    2.195596    0.000000    1.000000
   388  Na    c    -6.616649    8.813140   -2.195596    0.000000    1.000000
   389  Na    c    -6.616649    8.813140    2.195596    0.000000    1.000000
   390  Na    c    -6.616649   -4.407238   -2.195596    0.000000    1.000000
   391  Na    c    -6.616649   -4.407238    2.195596    0.000000    1.000000
   392  O     c     2.202951    6.609472   11.021011    0.000000    0.183000
   393  O     c     2.202951    6.609472  -11.021011    0.000000    0.183000
   394  O     c     2.202951   -2.203569   11.021011    0.000000    0.183000
   395  O     c     2.202951   -2.203569  -11.021011    0.000000    0.183000
   396  O     c     6.609472    2.202951   11.021011    0.000000    0.183000
   397  O     c     6.609472    2.202951  -11.021011    0.000000    0.183000
   398  O     c    -2.203569    2.202951   11.021011    0.000000    0.183000
   399  O     c    -2.203569    2.202951  -11.021011    0.000000    0.183000
   400  O     c     6.609082   11.014147    6.606427    0.000000    0.183000
   401  O     c     6.609082   11.014147   -6.606427    0.000000    0.183000
   402  O     c     6.609082   -6.608245    6.606427    0.000000    0.183000
   403  O     c     6.609082   -6.608245   -6.606427    0.000000    0.183000
   404  O     c    11.014147    6.609082    6.606427    0.000000    0.183000
   405  O     c    11.014147    6.609082   -6.606427    0.000000    0.183000
   406  O     c    11.014147   -2.203179    6.606427    0.000000    0.183000
   407  O     c    11.014147   -2.203179   -6.606427    0.000000    0.183000
   408  O     c    -2.203179   11.014147    6.606427    0.000000    0.183000
   409  O     c    -2.203179   11.014147   -6.606427    0.000000    0.183000
   410  O     c    -2.203179   -6.608245    6.606427    0.000000    0.183000
   411  O     c    -2.203179   -6.608245   -6.606427    0.000000    0.183000
   412  O     c    -6.608245    6.609082    6.606427    0.000000    0.183000
   413  O     c    -6.608245    6.609082   -6.606427    0.000000    0.183000
   414  O     c    -6.608245   -2.203179    6.606427    0.000000    0.183000
   415  O     c    -6.608245   -2.203179   -6.606427    0.000000    0.183000
   416  Cl    c     4.402888   13.203851    4.401056    0.000000    1.485000
   417  Cl    c     4.402888   13.203851   -4.401056    0.000000    1.485000
   418  Cl    c     4.402888   -8.797948    4.401056    0.000000    1.485000
   419  Cl    c     4.402888   -8.797948   -4.401056    0.000000    1.485000
   420  Cl    c    13.203851    4.402888    4.401056    0.000000    1.485000
   421  Cl    c    13.203851    4.402888   -4.401056    0.000000    1.485000
   422  Cl    c    13.203851    0.003014    4.401056    0.000000    1.485000
   423  Cl    c    13.203851    0.003014   -4.401056    0.000000    1.485000
   424  Cl    c     0.003014   13.203851    4.401056    0.000000    1.485000
   425  Cl    c     0.003014   13.203851   -4.401056    0.000000    1.485000
   426  Cl    c     0.003014   -8.797948    4.401056    0.000000    1.485000
   427  Cl    c     0.003014   -8.797948   -4.401056    0.000000    1.485000
   428  Cl    c    -8.797948    4.402888    4.401056    0.000000    1.485000
   429  Cl    c    -8.797948    4.402888   -4.401056    0.000000    1.485000
   430  Cl    c    -8.797948    0.003014    4.401056    0.000000    1.485000
   431  Cl    c    -8.797948    0.003014   -4.401056    0.000000    1.485000
   432  Na    c     4.407859    6.613238   11.027703    0.000000    1.000000
   433  Na    c     4.407859    6.613238  -11.027703    0.000000    1.000000
   434  Na    c     4.407859   -2.207335   11.027703    0.000000    1.000000
   435  Na    c     4.407859   -2.207335  -11.027703    0.000000    1.000000
   436  Na    c    -0.001957    6.613238   11.027703    0.000000    1.000000
   437  Na    c    -0.001957    6.613238  -11.027703    0.000000    1.000000
   438  Na    c    -0.001957   -2.207335   11.027703    0.000000    1.000000
   439  Na    c    -0.001957   -2.207335  -11.027703    0.000000    1.000000
   440  Na    c     6.613238    4.407859   11.027703    0.000000    1.000000
   441  Na    c     6.613238    4.407859  -11.027703    0.000000    1.000000
   442  Na    c     6.613238   -0.001957   11.027703    0.000000    1.000000
   443  Na    c     6.613238   -0.001957  -11.027703    0.000000    1.000000
   444  Na    c    -2.207335    4.407859   11.027703    0.000000    1.000000
   445  Na    c    -2.207335    4.407859  -11.027703    0.000000    1.000000
   446  Na    c    -2.207335   -0.001957   11.027703    0.000000    1.000000
   447  Na    c    -2.207335   -0.001957  -11.027703    0.000000    1.000000
   448  Na    c    13.221071    6.613666   -2.203996    0.000000    1.000000
   449  Na    c    13.221071    6.613666    2.203996    0.000000    1.000000
   450  Na    c    13.221071   -2.207764   -2.203996    0.000000    1.000000
   451  Na    c    13.221071   -2.207764    2.203996    0.000000    1.000000
   452  Na    c    -8.815169    6.613666   -2.203996    0.000000    1.000000
   453  Na    c    -8.815169    6.613666    2.203996    0.000000    1.000000
   454  Na    c    -8.815169   -2.207764   -2.203996    0.000000    1.000000
   455  Na    c    -8.815169   -2.207764    2.203996    0.000000    1.000000
   456  Na    c     6.613666   13.221071   -2.203996    0.000000    1.000000
   457  Na    c     6.613666   13.221071    2.203996    0.000000    1.000000
   458  Na    c     6.613666   -8.815169   -2.203996    0.000000    1.000000
   459  Na    c     6.613666   -8.815169    2.203996    0.000000    1.000000
   460  Na    c    -2.207764   13.221071   -2.203996    0.000000    1.000000
   461  Na    c    -2.207764   13.221071    2.203996    0.000000    1.000000
   462  Na    c    -2.207764   -8.815169   -2.203996    0.000000    1.000000
   463  Na    c    -2.207764   -8.815169    2.203996    0.000000    1.000000
   464  Na    c     2.202951   11.059653    8.821471    0.000000    1.000000
   465  Na    c     2.202951   11.059653   -8.821471    0.000000    1.000000
   466  Na    c     2.202951   -6.653751    8.821471    0.000000    1.000000
   467  Na    c     2.202951   -6.653751   -8.821471    0.000000    1.000000
   468  Na    c    11.059653    2.202951    8.821471    0.000000    1.000000
   469  Na    c    11.059653    2.202951   -8.821471    0.000000    1.000000
   470  Na    c    -6.653751    2.202951    8.821471    0.000000    1.000000
   471  Na    c    -6.653751    2.202951   -8.821471    0.000000    1.000000
   472  Na    c    11.025268   11.025268    0.000000    0.000000    1.000000
   473  Na    c    11.025268   -6.619366    0.000000    0.000000    1.000000
   474  Na    c    -6.619366   11.025268    0.000000    0.000000    1.000000
   475  Na    c    -6.619366   -6.619366    0.000000    0.000000    1.000000
   476  O     c     6.607581    6.607581   11.011722    0.000000    0.183000
   477  O     c     6.607581    6.607581  -11.011722    0.000000    0.183000
   478  O     c     6.607581   -2.201678   11.011722    0.000000    0.183000
   479  O     c     6.607581   -2.201678  -11.011722    0.000000    0.183000
   480  O     c    -2.201678    6.607581   11.011722    0.000000    0.183000
   481  O     c    -2.201678    6.607581  -11.011722    0.000000    0.183000
   482  O     c    -2.201678   -2.201678   11.011722    0.000000    0.183000
   483  O     c    -2.201678   -2.201678  -11.011722    0.000000    0.183000
   484  O     c    11.011232   11.011232   -2.199891    0.000000    0.183000
   485  O     c    11.011232   11.011232    2.199891    0.000000    0.183000
   486  O     c    11.011232   -6.605330   -2.199891    0.000000    0.183000
   487  O     c    11.011232   -6.605330    2.199891    0.000000    0.183000
   488  O     c    -6.605330   11.011232   -2.199891    0.000000    0.183000
   489  O     c    -6.605330   11.011232    2.199891    0.000000    0.183000
   490  O     c    -6.605330   -6.605330   -2.199891    0.000000    0.183000
   491  O     c    -6.605330   -6.605330    2.199891    0.000000    0.183000
   492  Cl    c     8.802721    8.802721    8.798704    0.000000    1.485000
   493  Cl    c     8.802721    8.802721   -8.798704    0.000000    1.485000
   494  Cl    c     8.802721   -4.396818    8.798704    0.000000    1.485000
   495  Cl    c     8.802721   -4.396818   -8.798704    0.000000    1.485000
   496  Cl    c    -4.396818    8.802721    8.798704    0.000000    1.485000
   497  Cl    c    -4.396818    8.802721   -8.798704    0.000000    1.485000
   498  Cl    c    -4.396818   -4.396818    8.798704    0.000000    1.485000
   499  Cl    c    -4.396818   -4.396818   -8.798704    0.000000    1.485000
   500  Cl    c     8.802803   13.200451    0.000000    0.000000    1.485000
   501  Cl    c     8.802803   -8.794548    0.000000    0.000000    1.485000
   502  Cl    c    13.200451    8.802803    0.000000    0.000000    1.485000
   503  Cl    c    13.200451   -4.396900    0.000000    0.000000    1.485000
   504  Cl    c    -4.396900   13.200451    0.000000    0.000000    1.485000
   505  Cl    c    -4.396900   -8.794548    0.000000    0.000000    1.485000
   506  Cl    c    -8.794548    8.802803    0.000000    0.000000    1.485000
   507  Cl    c    -8.794548   -4.396900    0.000000    0.000000    1.485000
   508  Na    c     8.817334    2.202951   11.032313    0.000000    1.000000
   509  Na    c     8.817334    2.202951  -11.032313    0.000000    1.000000
   510  Na    c    -4.411432    2.202951   11.032313    0.000000    1.000000
   511  Na    c    -4.411432    2.202951  -11.032313    0.000000    1.000000
   512  Na    c     2.202951    8.817334   11.032313    0.000000    1.000000
   513  Na    c     2.202951    8.817334  -11.032313    0.000000    1.000000
   514  Na    c     2.202951   -4.411432   11.032313    0.000000    1.000000
   515  Na    c     2.202951   -4.411432  -11.032313    0.000000    1.000000
[...]
      6 y          6.608853      6.510056    -0.098798    Cartesian   -1.49
      6 z          0.000000      0.000000     0.000000    Cartesian    0.00
      7 x          2.202951      2.202951     0.000000    Cartesian    0.00
      7 y          6.608853      6.607801    -0.001052    Cartesian   -0.02
      7 z         -2.202951     -2.230803    -0.027852    Cartesian    1.26
      8 x          4.405902      4.411487     0.005585    Cartesian    0.13
      8 y          6.608853      6.647491     0.038637    Cartesian    0.58
      8 z         -2.202951     -2.196307     0.006644    Cartesian   -0.30
      9 x          4.405902      4.391155    -0.014747    Cartesian   -0.33
      9 y          4.405902      4.391155    -0.014747    Cartesian   -0.33
      9 z          4.405902      4.450523     0.044621    Cartesian    1.01
     10 x          2.202951      2.202951     0.000000    Cartesian    0.00
     10 y          6.608853      6.816839     0.207986    Cartesian    3.15
     10 z          4.405902      4.447017     0.041114    Cartesian    0.93
     11 x          6.608853      6.641655     0.032802    Cartesian    0.50
     11 y          6.608853      6.641655     0.032802    Cartesian    0.50
     11 z          0.000000      0.000000     0.000000    Cartesian    0.00
     12 x          2.202951      2.202951     0.000000    Cartesian    0.00
     12 y          2.202951      2.202951     0.000000    Cartesian    0.00
     12 z          6.608853      6.688098     0.079244    Cartesian    1.20
     13 x          6.608853      6.609024     0.000171    Cartesian    0.00
     13 y          6.608853      6.609024     0.000171    Cartesian    0.00
     13 z         -2.202951     -2.204901    -0.001950    Cartesian    0.09
     14 x          4.405902      4.392065    -0.013838    Cartesian   -0.31
     14 y          8.811805      8.779825    -0.031979    Cartesian   -0.36
     14 z          0.000000      0.000000     0.000000    Cartesian    0.00
     15 x          4.405902      4.428529     0.022626    Cartesian    0.51
     15 y          2.202951      2.202951     0.000000    Cartesian    0.00
     15 z          6.608853      6.680970     0.072117    Cartesian    1.09
     16 x          8.811805      8.821232     0.009427    Cartesian    0.11
     16 y          2.202951      2.202951     0.000000    Cartesian    0.00
     16 z         -2.202951     -2.109059     0.093893    Cartesian   -4.26
     17 x          6.608853      6.616604     0.007750    Cartesian    0.12
     17 y          6.608853      6.616604     0.007750    Cartesian    0.12
     17 z          4.405902      4.410538     0.004636    Cartesian    0.11
     18 x          2.202951      2.202951     0.000000    Cartesian    0.00
     18 y          6.608853      6.633562     0.024709    Cartesian    0.37
     18 z          6.608853      6.632951     0.024097    Cartesian    0.36
     19 x          4.405902      4.400399    -0.005504    Cartesian   -0.12
     19 y          8.811805      8.803249    -0.008556    Cartesian   -0.10
     19 z          4.405902      4.401351    -0.004551    Cartesian   -0.10
     20 x          4.405902      4.408351     0.002448    Cartesian    0.06
     20 y          6.608853      6.620357     0.011504    Cartesian    0.17
     20 z          6.608853      6.630841     0.021987    Cartesian    0.33
     21 x          8.811805      8.817809     0.006004    Cartesian    0.07
     21 y          6.608853      6.623868     0.015015    Cartesian    0.23
     21 z         -2.202951     -2.214433    -0.011481    Cartesian    0.52
     22 x          2.202951      2.202951     0.000000    Cartesian    0.00
     22 y          2.202951      2.202951     0.000000    Cartesian    0.00
     22 z          8.811805      8.855623     0.043819    Cartesian    0.50
     23 x          2.202951      2.202951     0.000000    Cartesian    0.00
     23 y         11.014756     11.097446     0.082691    Cartesian    0.75
     23 z          0.000000      0.000000     0.000000    Cartesian    0.00
     24 x          6.608853      6.607893    -0.000961    Cartesian   -0.01
     24 y          6.608853      6.607893    -0.000961    Cartesian   -0.01
     24 z          6.608853      6.608896     0.000042    Cartesian    0.00
     25 x          2.202951      2.202951     0.000000    Cartesian    0.00
     25 y         11.014756     11.015906     0.001150    Cartesian    0.01
     25 z         -2.202951     -2.198682     0.004269    Cartesian   -0.19
     26 x          4.405902      4.408785     0.002883    Cartesian    0.07
     26 y          4.405902      4.408785     0.002883    Cartesian    0.07
     26 z          8.811805      8.813881     0.002077    Cartesian    0.02
     27 x          8.811805      8.795245    -0.016560    Cartesian   -0.19
     27 y          8.811805      8.795245    -0.016560    Cartesian   -0.19
     27 z          0.000000      0.000000     0.000000    Cartesian    0.00
     28 x          8.811805      8.835040     0.023235    Cartesian    0.26
     28 y          2.202951      2.202951     0.000000    Cartesian    0.00
     28 z          6.608853      6.716319     0.107465    Cartesian    1.63
     29 x          4.405902      4.406457     0.000555    Cartesian    0.01
     29 y         11.014756     11.027434     0.012678    Cartesian    0.12
     29 z         -2.202951     -2.215887    -0.012936    Cartesian    0.59
     30 x          2.202951      2.202951     0.000000    Cartesian    0.00
     30 y          6.608853      6.619361     0.010508    Cartesian    0.16
     30 z          8.811805      8.834684     0.022879    Cartesian    0.26
     31 x          2.202951      2.202951     0.000000    Cartesian    0.00
     31 y         11.014756     10.977792    -0.036964    Cartesian   -0.34
     31 z          4.405902      4.408929     0.003026    Cartesian    0.07
     32 x          6.608853      6.604318    -0.004535    Cartesian   -0.07
     32 y         11.014756     11.025424     0.010668    Cartesian    0.10
     32 z          0.000000      0.000000     0.000000    Cartesian    0.00
     33 x          6.608853      6.607974    -0.000879    Cartesian   -0.01
     33 y         11.014756     11.014262    -0.000494    Cartesian   -0.00
     33 z         -2.202951     -2.203847    -0.000895    Cartesian    0.04
     34 x          8.811805      8.801358    -0.010447    Cartesian   -0.12
     34 y          8.811805      8.801358    -0.010447    Cartesian   -0.12
     34 z          4.405902      4.396702    -0.009200    Cartesian   -0.21
     35 x          8.811805      8.814543     0.002738    Cartesian    0.03
     35 y          6.608853      6.617372     0.008518    Cartesian    0.13
     35 z          6.608853      6.613420     0.004567    Cartesian    0.07
     36 x          6.608853      6.621497     0.012644    Cartesian    0.19
     36 y         11.014756     11.023782     0.009026    Cartesian    0.08
     36 z          4.405902      4.407122     0.001220    Cartesian    0.03
     37 x          6.608853      6.613279     0.004425    Cartesian    0.07
     37 y          6.608853      6.613279     0.004425    Cartesian    0.07
     37 z          8.811805      8.814793     0.002989    Cartesian    0.03
     38 x          2.202951      2.202951     0.000000    Cartesian    0.00
     38 y          2.202951      2.202951     0.000000    Cartesian    0.00
     38 z         11.014756     11.033101     0.018345    Cartesian    0.17
     39 x          2.202951      2.202951     0.000000    Cartesian    0.00
     39 y         11.014756     11.020204     0.005449    Cartesian    0.05
     39 z          6.608853      6.617189     0.008335    Cartesian    0.13
     40 x          4.405902      4.403108    -0.002794    Cartesian   -0.06
     40 y          8.811805      8.809913    -0.001892    Cartesian   -0.02
     40 z          8.811805      8.808190    -0.003615    Cartesian   -0.04
     41 x          4.405902      4.404625    -0.001278    Cartesian   -0.03
     41 y         13.217707     13.202870    -0.014837    Cartesian   -0.11
     41 z          0.000000      0.000000     0.000000    Cartesian    0.00
     42 x          4.405902      4.408564     0.002662    Cartesian    0.06
     42 y          2.202951      2.202951     0.000000    Cartesian    0.00
     42 z         11.014756     11.039004     0.024248    Cartesian    0.22
     43 x          4.405902      4.407522     0.001620    Cartesian    0.04
     43 y         11.014756     11.028149     0.013393    Cartesian    0.12
     43 z          6.608853      6.606940    -0.001913    Cartesian   -0.03
     44 x         13.217707     13.221730     0.004023    Cartesian    0.03
     44 y          2.202951      2.202951     0.000000    Cartesian    0.00
     44 z         -2.202951     -2.233963    -0.031012    Cartesian    1.41
     45 x          8.811805      8.813140     0.001336    Cartesian    0.02
     45 y         11.014756     11.022551     0.007795    Cartesian    0.07
     45 z         -2.202951     -2.195596     0.007355    Cartesian   -0.33
     46 x          2.202951      2.202951     0.000000    Cartesian    0.00
     46 y          6.608853      6.609472     0.000618    Cartesian    0.01
     46 z         11.014756     11.021011     0.006255    Cartesian    0.06
     47 x          6.608853      6.609082     0.000228    Cartesian    0.00
     47 y         11.014756     11.014147    -0.000609    Cartesian   -0.01
     47 z          6.608853      6.606427    -0.002426    Cartesian   -0.04
     48 x          4.405902      4.402888    -0.003014    Cartesian   -0.07
     48 y         13.217707     13.203851    -0.013856    Cartesian   -0.10
     48 z          4.405902      4.401056    -0.004846    Cartesian   -0.11
     49 x          4.405902      4.407859     0.001957    Cartesian    0.04
     49 y          6.608853      6.613238     0.004384    Cartesian    0.07
     49 z         11.014756     11.027703     0.012947    Cartesian    0.12
     50 x         13.217707     13.221071     0.003364    Cartesian    0.03
     50 y          6.608853      6.613666     0.004813    Cartesian    0.07
     50 z         -2.202951     -2.203996    -0.001045    Cartesian    0.05
     51 x          2.202951      2.202951     0.000000    Cartesian    0.00
     51 y         11.014756     11.059653     0.044897    Cartesian    0.41
     51 z          8.811805      8.821471     0.009667    Cartesian    0.11
     52 x         11.014756     11.025268     0.010513    Cartesian    0.10
     52 y         11.014756     11.025268     0.010513    Cartesian    0.10
     52 z          0.000000      0.000000     0.000000    Cartesian    0.00
     53 x          6.608853      6.607581    -0.001273    Cartesian   -0.02
     53 y          6.608853      6.607581    -0.001273    Cartesian   -0.02
     53 z         11.014756     11.011722    -0.003034    Cartesian   -0.03
     54 x         11.014756     11.011232    -0.003524    Cartesian   -0.03
     54 y         11.014756     11.011232    -0.003524    Cartesian   -0.03
     54 z         -2.202951     -2.199891     0.003060    Cartesian   -0.14
     55 x          8.811805      8.802721    -0.009084    Cartesian   -0.10
     55 y          8.811805      8.802721    -0.009084    Cartesian   -0.10
     55 z          8.811805      8.798704    -0.013101    Cartesian   -0.15
     56 x          8.811805      8.802803    -0.009002    Cartesian   -0.10
     56 y         13.217707     13.200451    -0.017256    Cartesian   -0.13
     56 z          0.000000      0.000000     0.000000    Cartesian    0.00
     57 x          8.811805      8.817334     0.005530    Cartesian    0.06
     57 y          2.202951      2.202951     0.000000    Cartesian    0.00
     57 z         11.014756     11.032313     0.017557    Cartesian    0.16
     58 x         13.217707     13.223339     0.005632    Cartesian    0.04
     58 y          2.202951      2.202951     0.000000    Cartesian    0.00
     58 z          6.608853      6.599885    -0.008968    Cartesian   -0.14
     59 x          8.811805      8.814963     0.003158    Cartesian    0.04
     59 y         11.014756     11.026726     0.011971    Cartesian    0.11
     59 z          6.608853      6.618946     0.010093    Cartesian    0.15
     60 x          2.202951      2.202951     0.000000    Cartesian    0.00
     60 y          2.202951      2.202951     0.000000    Cartesian    0.00
     60 z          0.000000      0.000000     0.000000    Cartesian    0.00
     61 x          2.202951      2.202951     0.000000    Cartesian    0.00
     61 y          2.202951      2.202951     0.000000    Cartesian    0.00
     61 z         -2.202951     -2.406591    -0.203639    Cartesian    9.24
     62 x          4.405902      4.405084    -0.000819    Cartesian   -0.02
     62 y          4.405902      4.405084    -0.000819    Cartesian   -0.02
     62 z          0.000000      0.000000     0.000000    Cartesian    0.00
     63 x          2.202951      2.202951     0.000000    Cartesian    0.00
     63 y          6.608853      6.607776    -0.001078    Cartesian   -0.02
     63 z         -2.202951     -2.230854    -0.027903    Cartesian    1.27
     64 x          4.405902      4.379202    -0.026700    Cartesian   -0.61
     64 y          4.405902      4.379202    -0.026700    Cartesian   -0.61
     64 z          4.405902      4.437404     0.031502    Cartesian    0.71
     65 x          2.202951      2.202951     0.000000    Cartesian    0.00
     65 y          2.202951      2.202951     0.000000    Cartesian    0.00
     65 z          6.608853      6.688013     0.079159    Cartesian    1.20
     66 x          6.608853      6.609029     0.000175    Cartesian    0.00
     66 y          6.608853      6.609029     0.000175    Cartesian    0.00
     66 z         -2.202951     -2.204901    -0.001950    Cartesian    0.09
     67 x          4.405902      4.388939    -0.016963    Cartesian   -0.39
     67 y          8.811805      8.774612    -0.037193    Cartesian   -0.42
     67 z          0.000000      0.000000     0.000000    Cartesian    0.00
     68 x          2.202951      2.202951     0.000000    Cartesian    0.00
     68 y          6.608853      6.633591     0.024738    Cartesian    0.37
     68 z          6.608853      6.632965     0.024112    Cartesian    0.36
     69 x          4.405902      4.396956    -0.008946    Cartesian   -0.20
     69 y          8.811805      8.798540    -0.013265    Cartesian   -0.15
     69 z          4.405902      4.399913    -0.005989    Cartesian   -0.14
     70 x          6.608853      6.607891    -0.000962    Cartesian   -0.01
     70 y          6.608853      6.607891    -0.000962    Cartesian   -0.01
     70 z          6.608853      6.608896     0.000043    Cartesian    0.00
     71 x          2.202951      2.202951     0.000000    Cartesian    0.00
     71 y         11.014756     11.015907     0.001152    Cartesian    0.01
     71 z         -2.202951     -2.198666     0.004285    Cartesian   -0.19
     72 x          4.405902      4.408042     0.002140    Cartesian    0.05
     72 y          4.405902      4.408042     0.002140    Cartesian    0.05
     72 z          8.811805      8.810609    -0.001196    Cartesian   -0.01
     73 x          8.811805      8.791956    -0.019848    Cartesian   -0.23
     73 y          8.811805      8.791956    -0.019848    Cartesian   -0.23
     73 z          0.000000      0.000000     0.000000    Cartesian    0.00
     74 x          6.608853      6.607976    -0.000878    Cartesian   -0.01
     74 y         11.014756     11.014257    -0.000499    Cartesian   -0.00
     74 z         -2.202951     -2.203850    -0.000899    Cartesian    0.04
     75 x          8.811805      8.798976    -0.012829    Cartesian   -0.15
     75 y          8.811805      8.798976    -0.012829    Cartesian   -0.15
     75 z          4.405902      4.394754    -0.011148    Cartesian   -0.25
     76 x          2.202951      2.202951     0.000000    Cartesian    0.00
     76 y          2.202951      2.202951     0.000000    Cartesian    0.00
     76 z         11.014756     11.033096     0.018341    Cartesian    0.17
     77 x          2.202951      2.202951     0.000000    Cartesian    0.00
     77 y         11.014756     11.020188     0.005432    Cartesian    0.05
     77 z          6.608853      6.617205     0.008352    Cartesian    0.13
     78 x          4.405902      4.401456    -0.004446    Cartesian   -0.10
     78 y          8.811805      8.808366    -0.003439    Cartesian   -0.04
     78 z          8.811805      8.805547    -0.006258    Cartesian   -0.07
     79 x          4.405902      4.403969    -0.001933    Cartesian   -0.04
     79 y         13.217707     13.199806    -0.017901    Cartesian   -0.14
     79 z          0.000000      0.000000     0.000000    Cartesian    0.00
     80 x          2.202951      2.202951     0.000000    Cartesian    0.00
     80 y          6.608853      6.609467     0.000613    Cartesian    0.01
     80 z         11.014756     11.021006     0.006250    Cartesian    0.06
     81 x          6.608853      6.609080     0.000227    Cartesian    0.00
     81 y         11.014756     11.014149    -0.000607    Cartesian   -0.01
     81 z          6.608853      6.606424    -0.002429    Cartesian   -0.04
     82 x          4.405902      4.402397    -0.003505    Cartesian   -0.08
     82 y         13.217707     13.202363    -0.015343    Cartesian   -0.12
     82 z          4.405902      4.400092    -0.005811    Cartesian   -0.13
     83 x          6.608853      6.607578    -0.001275    Cartesian   -0.02
     83 y          6.608853      6.607578    -0.001275    Cartesian   -0.02
     83 z         11.014756     11.011718    -0.003038    Cartesian   -0.03
     84 x         11.014756     11.011228    -0.003528    Cartesian   -0.03
     84 y         11.014756     11.011228    -0.003528    Cartesian   -0.03
     84 z         -2.202951     -2.199884     0.003068    Cartesian   -0.14
     85 x          8.811805      8.801384    -0.010420    Cartesian   -0.12
     85 y          8.811805      8.801384    -0.010420    Cartesian   -0.12
     85 z          8.811805      8.796968    -0.014837    Cartesian   -0.17
     86 x          8.811805      8.801631    -0.010173    Cartesian   -0.12
     86 y         13.217707     13.198048    -0.019659    Cartesian   -0.15
     86 z          0.000000      0.000000     0.000000    Cartesian    0.00
--------------------------------------------------------------------------------


  Time to end of optimisation  =       19.4790 seconds


  Peak dynamic memory used =     102.43 MB 


  Timing analysis for GULP :

--------------------------------------------------------------------------------
  Task / Subroutine                                          Time (Seconds)
--------------------------------------------------------------------------------
  Calculation of reciprocal space energy and derivatives          0.0004
  Calculation of reciprocal space energy using symmetry           0.0007
  Calculation of real space energy and derivatives                0.0023
  Calculation of real space energy using symmetry                 0.0068
  Calculation for region 1 energy and derivatives (2-b)           6.9227
  Calculation for region 2a energy                               12.2298
  Calculation for region 2b energy                                0.0003
  Calculation and manipulation of Hessian matrix                  0.1543
  Calculation of matrix inversion                                 0.0063
  Symmetry generation of equivalent positions                     0.0027
--------------------------------------------------------------------------------
  Total CPU time                                                 19.4791
--------------------------------------------------------------------------------


  Dump file written as Na3OCl.grs


  Job Finished at 13:47.33  3rd February   2021                               

