********************************************************************************
*                       GENERAL UTILITY LATTICE PROGRAM                        *
*                                 Julian Gale                                  *
*                       Curtin Institute for Computation                       *
*                    School of Molecular and Life Sciences                     *
*                    Curtin University, Western Australia                      *
********************************************************************************
* Version = 5.2.0 * Last modified =  10th September 2020                       *
********************************************************************************
*  optimise     - perform optimisation run                                     *
*  conp         - constant pressure calculation                                *
*  property     - calculate properties for final geometry                      *
*  defect       - perform defect calculation after bulk run                    *
*  compare      - compare initial and final structures                         *
********************************************************************************

  Job Started  at 13:47.20  3rd February   2021                               

  Number of CPUs =     1


  Total number of configurations input =      1

********************************************************************************
*  Input for Configuration =   1                                               *
********************************************************************************

  Formula = ClONa3                                                      

  Number of irreducible atoms/shells =       5


  Total number atoms/shells =       7

  Dimensionality = 3               :  Bulk   


  Symmetry :

  Crystal family                   :  Cubic       
  Crystal class  (Groth - 1921)    :  Cubic Hexakisoctahedral              

  Space group (centrosymmetric)    :  P M 3 M         

  Patterson group                  :  P m -3 m 

  Cartesian lattice vectors (Angstroms) :

        4.504000    0.000000    0.000000
        0.000000    4.504000    0.000000
        0.000000    0.000000    4.504000

  Cell parameters (Angstroms/Degrees):

  a =       4.5040    alpha =  90.0000
  b =       4.5040    beta  =  90.0000
  c =       4.5040    gamma =  90.0000

  Initial cell volume =          91.368216 Angs**3

  Temperature of configuration =   0.00     K 

  Pressure of configuration =         0.000 GPa 

  Fractional coordinates of asymmetric unit :

--------------------------------------------------------------------------------
   No.  Atomic       x           y          z         Charge      Occupancy
        Label      (Frac)      (Frac)     (Frac)        (e)         (Frac)  
--------------------------------------------------------------------------------
      1 Cl    c    0.000000    0.000000    0.000000     1.48500    1.000000    
      2 O     c    0.500000    0.500000    0.500000     0.18300    1.000000    
      3 Na    c    0.500000    0.500000    0.000000     1.00000    1.000000    
      4 Cl    s    0.000000    0.000000    0.000000    -2.48500    1.000000    
      5 O     s    0.500000    0.500000    0.500000    -2.18300    1.000000    
--------------------------------------------------------------------------------


  Constraints : 

--------------------------------------------------------------------------------
  Constraint no.      Unconstrained     Constrained    Coefficient    Offset
                         Variable         Variable
--------------------------------------------------------------------------------
           1              Strain 1        Strain 2       1.00000      0.0000
           2              Strain 1        Strain 3       1.00000      0.0000
--------------------------------------------------------------------------------


********************************************************************************
*  General input information                                                   *
********************************************************************************

  Species output for all configurations : 

--------------------------------------------------------------------------------
  Species    Type    Atomic    Atomic    Charge       Radii (Angs)     Library
                     Number     Mass       (e)     Cova   Ionic  VDW   Symbol
--------------------------------------------------------------------------------
    Na       Core       11      22.99   1.000000   0.970  0.000  2.300          
    O        Core        8      16.00   0.183000   0.730  0.000  1.360          
    O        Shell       8       0.00  -2.183000   0.730  0.000  1.360          
    Cl       Core       17      35.45   1.485000   0.990  0.000  1.650          
    Cl       Shell      17       0.00  -2.485000   0.990  0.000  1.650          
    Mg       Core       12      24.31   0.415000   1.100  0.000  0.000          
    Mg       Shell      12       0.00   1.585000   1.100  0.000  0.000          
    Ca       Core       20      40.08  -1.135000   0.990  0.000  0.000          
    Ca       Shell      20       0.00   3.135000   0.990  0.000  0.000          
    Sr       Core       38      87.62  -1.251000   1.120  0.000  0.000          
    Sr       Shell      38       0.00   3.251000   1.120  0.000  0.000          
    Ba       Core       56     137.33  -7.203000   1.340  0.000  0.000          
    Ba       Shell      56       0.00   9.203000   1.340  0.000  0.000          
--------------------------------------------------------------------------------


  Lattice summation method               =    Ewald          (3-D)
                                         =    Parry          (2-D)
                                         =    Saunders et al (1-D)
  Accuracy factor for lattice sums       =   12.000


  Analytic derivatives to be used

  Time limit = Infinity

  Maximum range for interatomic potentials =    100000.000000 Angstroms

  General interatomic potentials :

--------------------------------------------------------------------------------
Atom  Types   Potential      Parameter       Value         Units   Cutoffs(Ang)
  1     2                                                            Min /  Max 
--------------------------------------------------------------------------------
O    c O    s Spring (c-s)  Spring k 2       593.71600    eV*Ang^-2 0.000  0.800
                            Spring k 4       0.0000000    eV*Ang^-4 
--------------------------------------------------------------------------------
Cl   c Cl   s Spring (c-s)  Spring k 2       29.380000    eV*Ang^-2 0.000  0.800
                            Spring k 4       0.0000000    eV*Ang^-4 
--------------------------------------------------------------------------------
Mg   c Mg   s Spring (c-s)  Spring k 2       361.60000    eV*Ang^-2 0.000  0.800
                            Spring k 4       0.0000000    eV*Ang^-4 
--------------------------------------------------------------------------------
Ca   c Ca   s Spring (c-s)  Spring k 2       110.20000    eV*Ang^-2 0.000  0.800
                            Spring k 4       0.0000000    eV*Ang^-4 
--------------------------------------------------------------------------------
Sr   c Sr   s Spring (c-s)  Spring k 2       71.700000    eV*Ang^-2 0.000  0.800
                            Spring k 4       0.0000000    eV*Ang^-4 
--------------------------------------------------------------------------------
Ba   c Ba   s Spring (c-s)  Spring k 2       495.20000    eV*Ang^-2 0.000  0.800
                            Spring k 4       0.0000000    eV*Ang^-4 
--------------------------------------------------------------------------------
Na   c Na   c Buckingham    Buckingham A     1788.1900    eV        0.000 12.000
                            Buckingham rho  0.15900000    Ang       
                            Buckingham C     0.0000000    eV*Ang^6  
--------------------------------------------------------------------------------
Na   c O    s Buckingham    Buckingham A     588.38000    eV        0.000 12.000
                            Buckingham rho  0.33800000    Ang       
                            Buckingham C     0.0000000    eV*Ang^6  
--------------------------------------------------------------------------------
Na   c Cl   s Buckingham    Buckingham A     1170.4100    eV        0.000 12.000
                            Buckingham rho  0.31500000    Ang       
                            Buckingham C     0.0000000    eV*Ang^6  
--------------------------------------------------------------------------------
O    s O    s Buckingham    Buckingham A     22764.300    eV        0.000 12.000
                            Buckingham rho  0.14900000    Ang       
                            Buckingham C     13.190000    eV*Ang^6  
--------------------------------------------------------------------------------
O    s Cl   s Buckingham    Buckingham A     8286.9100    eV        0.000 12.000
                            Buckingham rho  0.25900000    Ang       
                            Buckingham C     62.200000    eV*Ang^6  
--------------------------------------------------------------------------------
Cl   s Cl   s Buckingham    Buckingham A     1227.2000    eV        0.000 12.000
                            Buckingham rho  0.32100000    Ang       
                            Buckingham C     14.530000    eV*Ang^6  
--------------------------------------------------------------------------------
O    s Mg   s Buckingham    Buckingham A     1428.5000    eV        0.000 12.000
                            Buckingham rho  0.29450000    Ang       
                            Buckingham C     0.0000000    eV*Ang^6  
--------------------------------------------------------------------------------
Mg   s Cl   s Buckingham    Buckingham A     4914.5400    eV        0.000 12.000
                            Buckingham rho  0.25700000    Ang       
                            Buckingham C     0.0000000    eV*Ang^6  
--------------------------------------------------------------------------------
O    s Ca   s Buckingham    Buckingham A     1090.4000    eV        0.000 12.000
                            Buckingham rho  0.34370000    Ang       
                            Buckingham C     0.0000000    eV*Ang^6  
--------------------------------------------------------------------------------
Cl   s Ca   s Buckingham    Buckingham A     2302.0000    eV        0.000 12.000
                            Buckingham rho  0.34020000    Ang       
                            Buckingham C     0.0000000    eV*Ang^6  
--------------------------------------------------------------------------------
O    s Sr   s Buckingham    Buckingham A     959.10000    eV        0.000 12.000
                            Buckingham rho  0.37210000    Ang       
                            Buckingham C     0.0000000    eV*Ang^6  
--------------------------------------------------------------------------------
Cl   s Sr   s Buckingham    Buckingham A     2191.0900    eV        0.000 12.000
                            Buckingham rho  0.34570000    Ang       
                            Buckingham C     0.0000000    eV*Ang^6  
--------------------------------------------------------------------------------
O    s Ba   s Buckingham    Buckingham A     905.70000    eV        0.000 12.000
                            Buckingham rho  0.39760000    Ang       
                            Buckingham C     0.0000000    eV*Ang^6  
--------------------------------------------------------------------------------
Cl   s Ba   s Buckingham    Buckingham A     2704.5500    eV        0.000 12.000
                            Buckingham rho  0.35280000    Ang       
                            Buckingham C     0.0000000    eV*Ang^6  
--------------------------------------------------------------------------------

********************************************************************************
*  Output for configuration   1                                                *
********************************************************************************


  Components of energy : 

--------------------------------------------------------------------------------
  Interatomic potentials     =           4.94315381 eV    
  Monopole - monopole (real) =         -10.03624526 eV    
  Monopole - monopole (recip)=         -29.53581274 eV    
  Monopole - monopole (total)=         -39.57205800 eV    
--------------------------------------------------------------------------------
  Total lattice energy       =         -34.62890419 eV    
--------------------------------------------------------------------------------
  Total lattice energy       =           -3341.1599 kJ/(mole unit cells)
--------------------------------------------------------------------------------


  Number of variables =        1

  Maximum number of calculations  =          1000
  Maximum Hessian update interval =            10
  Maximum step size               =   1.000000000
  Maximum parameter tolerance     =   0.000010000
  Maximum function  tolerance     =   0.000010000
  Maximum gradient  tolerance     =   0.001000000
  Maximum gradient  component     =   0.010000000

  Symmetry constrained optimisation

  Symmetry used for second derivatives

  Cell parameters to be optimised using strains

  Newton-Raphson optimiser to be used

  BFGS hessian update to be used

  Lower half triangular hessian to be used

  Start of bulk optimisation :

  Cycle:      0 Energy:       -34.628904  Gnorm:      4.328237  CPU:    0.015
  ** Hessian calculated **
  Cycle:      1 Energy:       -34.677667  Gnorm:      0.044008  CPU:    0.018
  Cycle:      2 Energy:       -34.677671  Gnorm:      0.003653  CPU:    0.022


  **** Optimisation achieved ****


  Final energy =     -34.67767136 eV
  Final Gnorm  =       0.00000010

  Components of energy : 

--------------------------------------------------------------------------------
  Interatomic potentials     =           5.77546103 eV    
  Monopole - monopole (real) =         -10.25970290 eV    
  Monopole - monopole (recip)=         -30.19342950 eV    
  Monopole - monopole (total)=         -40.45313239 eV    
--------------------------------------------------------------------------------
  Total lattice energy       =         -34.67767136 eV    
--------------------------------------------------------------------------------
  Total lattice energy       =           -3345.8652 kJ/(mole unit cells)
--------------------------------------------------------------------------------

  Final asymmetric unit coordinates :

--------------------------------------------------------------------------------
   No.  Atomic        x           y           z         Radius
        Label       (Frac)      (Frac)      (Frac)       (Angs) 
--------------------------------------------------------------------------------
     1  Cl    c     0.000000    0.000000    0.000000    0.000000
     2  O     c     0.500000    0.500000    0.500000    0.000000
     3  Na    c     0.500000    0.500000    0.000000    0.000000
     4  Cl    s     0.000000    0.000000    0.000000    0.000000
     5  O     s     0.500000    0.500000    0.500000    0.000000
--------------------------------------------------------------------------------

  Final Cartesian lattice vectors (Angstroms) :

        4.405902    0.000000    0.000000
        0.000000    4.405902    0.000000
        0.000000    0.000000    4.405902


  Final cell parameters and derivatives :

--------------------------------------------------------------------------------
       a            4.405902 Angstrom     dE/de1(xx)     0.000000 eV/strain
       b            4.405902 Angstrom     dE/de2(yy)     0.000000 eV/strain
       c            4.405902 Angstrom     dE/de3(zz)     0.000000 eV/strain
       alpha       90.000000 Degrees      dE/de4(yz)     0.000000 eV/strain
       beta        90.000000 Degrees      dE/de5(xz)     0.000000 eV/strain
       gamma       90.000000 Degrees      dE/de6(xy)     0.000000 eV/strain
--------------------------------------------------------------------------------

  Primitive cell volume =            85.527266 Angs**3

  Density of cell =      2.338030 g/cm**3

  Non-primitive cell volume =            85.527266 Angs**3


  Final internal derivatives :

--------------------------------------------------------------------------------
   No.  Atomic          a             b             c           Radius
        Label          (eV)          (eV)          (eV)        (eV/Angs)
--------------------------------------------------------------------------------
      1 Cl    c       0.000000      0.000000      0.000000      0.000000
      2 O     c       0.000000      0.000000      0.000000      0.000000
      3 Na    c       0.000000      0.000000      0.000000      0.000000
      4 Cl    s       0.000000      0.000000      0.000000      0.000000
      5 O     s       0.000000      0.000000      0.000000      0.000000
--------------------------------------------------------------------------------
  Maximum abs         0.000000      0.000000      0.000000      0.000000
--------------------------------------------------------------------------------

  Comparison of initial and final structures : 

--------------------------------------------------------------------------------
  Parameter   Initial value   Final value   Difference    Units      Percent
--------------------------------------------------------------------------------
    Volume        91.368216     85.527266    -5.840950    Angs**3     -6.39
    a              4.504000      4.405902    -0.098098    Angstroms   -2.18
    b              4.504000      4.405902    -0.098098    Angstroms   -2.18
    c              4.504000      4.405902    -0.098098    Angstroms   -2.18
    alpha         90.000000     90.000000     0.000000    Degrees      0.00
    beta          90.000000     90.000000     0.000000    Degrees      0.00
    gamma         90.000000     90.000000     0.000000    Degrees      0.00
      1 x          0.000000      0.000000     0.000000    Fractional   0.00
      1 y          0.000000      0.000000     0.000000    Fractional   0.00
      1 z          0.000000      0.000000     0.000000    Fractional   0.00
      2 x          0.500000      0.500000     0.000000    Fractional   0.00
      2 y          0.500000      0.500000     0.000000    Fractional   0.00
      2 z          0.500000      0.500000     0.000000    Fractional   0.00
      3 x          0.500000      0.500000     0.000000    Fractional   0.00
      3 y          0.500000      0.500000     0.000000    Fractional   0.00
      3 z          0.000000      0.000000     0.000000    Fractional   0.00
      4 x          0.000000      0.000000     0.000000    Fractional   0.00
      4 y          0.000000      0.000000     0.000000    Fractional   0.00
      4 z          0.000000      0.000000     0.000000    Fractional   0.00
      5 x          0.500000      0.500000     0.000000    Fractional   0.00
      5 y          0.500000      0.500000     0.000000    Fractional   0.00
      5 z          0.500000      0.500000     0.000000    Fractional   0.00
--------------------------------------------------------------------------------


  Born effective charge tensors : 

-------------------------------------------------------------------------------
  Atom             x           y             z
-------------------------------------------------------------------------------
    1 Cl    x      -0.9918     -0.0000     -0.0000
            y      -0.0000     -0.9918     -0.0000
            z      -0.0000     -0.0000     -0.9918
-------------------------------------------------------------------------------
    2 O     x      -2.2939      0.0000      0.0000
            y       0.0000     -2.2939      0.0000
            z       0.0000      0.0000     -2.2939
-------------------------------------------------------------------------------
    3 Na    x       1.2243      0.0000      0.0000
            y       0.0000      1.2243     -0.0000
            z       0.0000      0.0000      0.8372
-------------------------------------------------------------------------------




  Elastic Constant Matrix: (Units=GPa)

-------------------------------------------------------------------------------
  Indices      1         2         3         4         5         6    
-------------------------------------------------------------------------------
       1     82.7680   24.3534   24.3534   -0.0000    0.0000   -0.0000
       2     24.3534   82.7680   24.3534    0.0000   -0.0000   -0.0000
       3     24.3534   24.3534   82.7680    0.0000   -0.0000    0.0000
       4     -0.0000    0.0000    0.0000   24.3534   -0.0000    0.0000
       5      0.0000   -0.0000   -0.0000   -0.0000   24.3534    0.0000
       6     -0.0000   -0.0000    0.0000    0.0000    0.0000   24.3534
-------------------------------------------------------------------------------


  Elastic Compliance Matrix: (Units=1/GPa)

-------------------------------------------------------------------------------
  Indices      1         2         3         4         5         6    
-------------------------------------------------------------------------------
       1    0.013948 -0.003171 -0.003171  0.000000 -0.000000  0.000000
       2   -0.003171  0.013948 -0.003171 -0.000000  0.000000 -0.000000
       3   -0.003171 -0.003171  0.013948 -0.000000  0.000000 -0.000000
       4    0.000000 -0.000000 -0.000000  0.041062  0.000000 -0.000000
       5   -0.000000  0.000000  0.000000  0.000000  0.041062 -0.000000
       6    0.000000 -0.000000 -0.000000 -0.000000 -0.000000  0.041062
-------------------------------------------------------------------------------

  Mechanical properties :

-------------------------------------------------------------------------------
  Convention :                    Reuss         Voigt         Hill
-------------------------------------------------------------------------------
  Bulk  Modulus (GPa)     =      43.82493      43.82493      43.82493
  Shear Modulus (GPa)     =      26.08758      26.29496      26.19127
-------------------------------------------------------------------------------
  Velocity S-wave (km/s)  =       3.34035       3.35360       3.34698
  Velocity P-wave (km/s)  =       5.79842       5.80861       5.80351
-------------------------------------------------------------------------------
  Compressibility (1/GPa) =    0.02281806
-------------------------------------------------------------------------------
  Stress axis :                     x             y             z
-------------------------------------------------------------------------------
  Youngs Moduli (GPa)     =      71.69479      71.69479      71.69479
-------------------------------------------------------------------------------
  Poissons Ratio (x)      =                     0.22734       0.22734
  Poissons Ratio (y)      =       0.22734                     0.22734
  Poissons Ratio (z)      =       0.22734       0.22734
-------------------------------------------------------------------------------


  Piezoelectric Strain Matrix: (Units=C/m**2)

-------------------------------------------------------------------------------
  Indices      1         2         3         4         5         6    
-------------------------------------------------------------------------------
       x    -0.00000  -0.00000  -0.00000  -0.00000   0.00000  -0.00000
       y     0.00000  -0.00000   0.00000   0.00000  -0.00000   0.00000
       z    -0.00000  -0.00000   0.00000  -0.00000   0.00000  -0.00000
-------------------------------------------------------------------------------


  Piezoelectric Stress Matrix: (Units=10**-11 C/N)

-------------------------------------------------------------------------------
  Indices      1         2         3         4         5         6    
-------------------------------------------------------------------------------
       x     0.00000  -0.00000  -0.00000  -0.00000   0.00000  -0.00000
       y     0.00000  -0.00000   0.00000   0.00000  -0.00000   0.00000
       z    -0.00000  -0.00000   0.00000  -0.00000   0.00000  -0.00000
-------------------------------------------------------------------------------


  Static dielectric constant tensor : 

-------------------------------------------------------------------------------
              x         y         z
-------------------------------------------------------------------------------
       x    11.08357   0.00000   0.00000
       y     0.00000  11.08357   0.00000
       z     0.00000   0.00000  11.08357
--------------------------------------------------------------------------------

  High frequency dielectric constant tensor : 

-------------------------------------------------------------------------------
              x         y         z
-------------------------------------------------------------------------------
       x     1.50771   0.00000   0.00000
       y     0.00000   1.50771   0.00000
       z     0.00000   0.00000   1.50771
-------------------------------------------------------------------------------

  Static refractive indices : 

-------------------------------------------------------------------------------
    1 =    3.32920      2 =    3.32920      3 =    3.32920
-------------------------------------------------------------------------------

  High frequency refractive indices : 

-------------------------------------------------------------------------------
    1 =    1.22789      2 =    1.22789      3 =    1.22789
-------------------------------------------------------------------------------


  Time to end of optimisation =       0.0307 seconds

********************************************************************************
*  Defect calculation for configuration   1 :                                  *
********************************************************************************

  Total number of defects =      1

  Total charge on defect  =   1.00

  Defect centre is at   0.5000   0.5000   0.0000  Frac

  Region 1 radius =  19.0000      Number of ions =   2438

  Number of symmetry inequivalent region 1 ions  =    229

  Region 2 radius =  24.0000      Number of ions =   2338

  Number of symmetry inequivalent region 2a ions =    186

  Region 2a mode = 4 : screened electrostatics due to region 1 
                       neglect correction to region 1 forces from 2a
                       region 2a displacements based on defects only

  Region 2a ions will only interact with defects in region 1

  Impurities:

--------------------------------------------------------------------------------
    Specification type     Symbol/Number         x          y          z
--------------------------------------------------------------------------------
    Frac/Symbol             Ba               0.500000   0.500000   0.000000
--------------------------------------------------------------------------------


  Symmetry reduced region 1 (Relative to defect centre) :

--------------------------------------------------------------------------------
   No.   Atomic       x            y             z       Radius  Multiplicity   
         Label      (Angs)       (Angs)        (Angs)    (Angs)     
--------------------------------------------------------------------------------
     1  Ba    c      0.0000       0.0000       0.0000    0.0000     1    Defect
     2  O     c      0.0000       0.0000      -2.2030 *  0.0000     2          
     3  Cl    c      2.2030 *     2.2030       0.0000    0.0000     4          
     4  Na    c      2.2030 *     0.0000      -2.2030 *  0.0000     8          
     5  Na    c      0.0000       0.0000       4.4059 *  0.0000     2          
     6  Na    c      0.0000       4.4059 *     0.0000    0.0000     4          
     7  O     c      0.0000       4.4059 *    -2.2030 *  0.0000     8          
     8  Na    c      2.2030 *     4.4059 *    -2.2030 *  0.0000    16          
     9  Cl    c      2.2030 *     2.2030       4.4059 *  0.0000     8          
    10  Na    c      0.0000       4.4059 *     4.4059 *  0.0000     8          
    11  Na    c      4.4059 *     4.4059       0.0000    0.0000     4          
    12  O     c      0.0000       0.0000       6.6089 *  0.0000     2          
    13  O     c      4.4059 *     4.4059      -2.2030 *  0.0000     8          
    14  Cl    c      2.2030 *     6.6089 *     0.0000    0.0000     8          
    15  Na    c      2.2030 *     0.0000       6.6089 *  0.0000     8          
    16  Na    c      6.6089 *     0.0000      -2.2030 *  0.0000     8          
    17  Na    c      4.4059 *     4.4059       4.4059 *  0.0000     8          
    18  O     c      0.0000       4.4059 *     6.6089 *  0.0000     8          
    19  Cl    c      2.2030 *     6.6089 *     4.4059 *  0.0000    16          
    20  Na    c      2.2030 *     4.4059 *     6.6089 *  0.0000    16          
    21  Na    c      6.6089 *     4.4059 *    -2.2030 *  0.0000    16          
    22  Na    c      0.0000       0.0000       8.8118 *  0.0000     2          
    23  Na    c      0.0000       8.8118 *     0.0000    0.0000     4          
    24  O     c      4.4059 *     4.4059       6.6089 *  0.0000     8          
    25  O     c      0.0000       8.8118 *    -2.2030 *  0.0000     8          
    26  Cl    c      2.2030 *     2.2030       8.8118 *  0.0000     8          
    27  Cl    c      6.6089 *     6.6089       0.0000    0.0000     4          
    28  Na    c      6.6089 *     0.0000       6.6089 *  0.0000     8          
    29  Na    c      2.2030 *     8.8118 *    -2.2030 *  0.0000    16          
    30  Na    c      0.0000       4.4059 *     8.8118 *  0.0000     8          
    31  Na    c      0.0000       8.8118 *     4.4059 *  0.0000     8          
    32  Na    c      4.4059 *     8.8118 *     0.0000    0.0000     8          
    33  O     c      4.4059 *     8.8118 *    -2.2030 *  0.0000    16          
    34  Cl    c      6.6089 *     6.6089       4.4059 *  0.0000     8          
    35  Na    c      6.6089 *     4.4059 *     6.6089 *  0.0000    16          
    36  Na    c      4.4059 *     8.8118 *     4.4059 *  0.0000    16          
    37  Na    c      4.4059 *     4.4059       8.8118 *  0.0000     8          
    38  O     c      0.0000       0.0000      11.0148 *  0.0000     2          
    39  O     c      0.0000       8.8118 *     6.6089 *  0.0000     8          
    40  Cl    c      2.2030 *     6.6089 *     8.8118 *  0.0000    16          
    41  Cl    c      2.2030 *    11.0148 *     0.0000    0.0000     8          
    42  Na    c      2.2030 *     0.0000      11.0148 *  0.0000     8          
    43  Na    c      2.2030 *     8.8118 *     6.6089 *  0.0000    16          
    44  Na    c     11.0148 *     0.0000      -2.2030 *  0.0000     8          
    45  Na    c      6.6089 *     8.8118 *    -2.2030 *  0.0000    16          
    46  O     c      0.0000       4.4059 *    11.0148 *  0.0000     8          
    47  O     c      4.4059 *     8.8118 *     6.6089 *  0.0000    16          
    48  Cl    c      2.2030 *    11.0148 *     4.4059 *  0.0000    16          
    49  Na    c      2.2030 *     4.4059 *    11.0148 *  0.0000    16          
    50  Na    c     11.0148 *     4.4059 *    -2.2030 *  0.0000    16          
    51  Na    c      0.0000       8.8118 *     8.8118 *  0.0000     8          
    52  Na    c      8.8118 *     8.8118       0.0000    0.0000     4          
    53  O     c      4.4059 *     4.4059      11.0148 *  0.0000     8          
    54  O     c      8.8118 *     8.8118      -2.2030 *  0.0000     8          
    55  Cl    c      6.6089 *     6.6089       8.8118 *  0.0000     8          
    56  Cl    c      6.6089 *    11.0148 *     0.0000    0.0000     8          
    57  Na    c      6.6089 *     0.0000      11.0148 *  0.0000     8          
    58  Na    c     11.0148 *     0.0000       6.6089 *  0.0000     8          
    59  Na    c      6.6089 *     8.8118 *     6.6089 *  0.0000    16          
    60  Na    c      0.0000       0.0000      13.2177 *  0.0000     2          
    61  Na    c      0.0000      13.2177 *     0.0000    0.0000     4          
    62  Na    c      4.4059 *     8.8118 *     8.8118 *  0.0000    16          
    63  Na    c      8.8118 *     8.8118       4.4059 *  0.0000     8          
    64  O     c      0.0000      13.2177 *    -2.2030 *  0.0000     8          
    65  Cl    c      6.6089 *    11.0148 *     4.4059 *  0.0000    16          
    66  Na    c      2.2030 *    13.2177 *    -2.2030 *  0.0000    16          
    67  Cl    c      2.2030 *     2.2030      13.2177 *  0.0000     8          
    68  Na    c      6.6089 *     4.4059 *    11.0148 *  0.0000    16          
    69  Na    c     11.0148 *     4.4059 *     6.6089 *  0.0000    16          
    70  Na    c      0.0000       4.4059 *    13.2177 *  0.0000     8          
    71  Na    c      0.0000      13.2177 *     4.4059 *  0.0000     8          
    72  Na    c      4.4059 *    13.2177 *     0.0000    0.0000     8          
    73  O     c      4.4059 *    13.2177 *    -2.2030 *  0.0000    16          
    74  O     c      0.0000       8.8118 *    11.0148 *  0.0000     8          
    75  O     c      8.8118 *     8.8118       6.6089 *  0.0000     8          
    76  Cl    c      2.2030 *    11.0148 *     8.8118 *  0.0000    16          
    77  Na    c      2.2030 *     8.8118 *    11.0148 *  0.0000    16          
    78  Na    c     11.0148 *     8.8118 *    -2.2030 *  0.0000    16          
    79  Na    c      4.4059 *    13.2177 *     4.4059 *  0.0000    16          
    80  Na    c      4.4059 *     4.4059      13.2177 *  0.0000     8          
    81  O     c      4.4059 *     8.8118 *    11.0148 *  0.0000    16          
    82  O     c      0.0000      13.2177 *     6.6089 *  0.0000     8          
    83  Cl    c      2.2030 *     6.6089 *    13.2177 *  0.0000    16          
    84  Na    c      2.2030 *    13.2177 *     6.6089 *  0.0000    16          
    85  Na    c      6.6089 *    13.2177 *    -2.2030 *  0.0000    16          
    86  Na    c      8.8118 *     8.8118       8.8118 *  0.0000     8          
    87  O     c      0.0000       0.0000      15.4207 *  0.0000     2          
    88  O     c      4.4059 *    13.2177 *     6.6089 *  0.0000    16          
    89  Cl    c      2.2030 *    15.4207 *     0.0000    0.0000     8          
    90  Cl    c      6.6089 *    11.0148 *     8.8118 *  0.0000    16          
    91  Cl    c     11.0148 *    11.0148       0.0000    0.0000     4          
    92  Na    c      2.2030 *     0.0000      15.4207 *  0.0000     8          
    93  Na    c     11.0148 *     0.0000      11.0148 *  0.0000     8          
    94  Na    c     15.4207 *     0.0000      -2.2030 *  0.0000     8          
    95  Na    c      6.6089 *     8.8118 *    11.0148 *  0.0000    16          
    96  Na    c     11.0148 *     8.8118 *     6.6089 *  0.0000    16          
    97  Na    c      0.0000       8.8118 *    13.2177 *  0.0000     8          
    98  Na    c      0.0000      13.2177 *     8.8118 *  0.0000     8          
    99  Na    c      8.8118 *    13.2177 *     0.0000    0.0000     8          
   100  O     c      0.0000       4.4059 *    15.4207 *  0.0000     8          
   101  O     c      8.8118 *    13.2177 *    -2.2030 *  0.0000    16          
   102  Cl    c      2.2030 *    15.4207 *     4.4059 *  0.0000    16          
   103  Cl    c      6.6089 *     6.6089      13.2177 *  0.0000     8          
   104  Cl    c     11.0148 *    11.0148       4.4059 *  0.0000     8          
   105  Na    c      2.2030 *     4.4059 *    15.4207 *  0.0000    16          
   106  Na    c      6.6089 *    13.2177 *     6.6089 *  0.0000    16          
   107  Na    c     11.0148 *     4.4059 *    11.0148 *  0.0000    16          
   108  Na    c     15.4207 *     4.4059 *    -2.2030 *  0.0000    16          
   109  Na    c      4.4059 *     8.8118 *    13.2177 *  0.0000    16          
   110  Na    c      4.4059 *    13.2177 *     8.8118 *  0.0000    16          
   111  Na    c      8.8118 *    13.2177 *     4.4059 *  0.0000    16          
   112  O     c      4.4059 *     4.4059      15.4207 *  0.0000     8          
   113  O     c      8.8118 *     8.8118      11.0148 *  0.0000     8          
   114  Cl    c      6.6089 *    15.4207 *     0.0000    0.0000     8          
   115  Na    c      6.6089 *     0.0000      15.4207 *  0.0000     8          
   116  Na    c     15.4207 *     0.0000       6.6089 *  0.0000     8          
   117  O     c      0.0000      13.2177 *    11.0148 *  0.0000     8          
   118  O     c      8.8118 *    13.2177 *     6.6089 *  0.0000    16          
   119  Cl    c      2.2030 *    11.0148 *    13.2177 *  0.0000    16          
   120  Na    c      2.2030 *    13.2177 *    11.0148 *  0.0000    16          
   121  Na    c      6.6089 *     4.4059 *    15.4207 *  0.0000    16          
   122  Cl    c      6.6089 *    15.4207 *     4.4059 *  0.0000    16          
   123  Na    c     11.0148 *    13.2177 *    -2.2030 *  0.0000    16          
   124  Na    c     15.4207 *     4.4059 *     6.6089 *  0.0000    16          
   125  Na    c      0.0000       0.0000      17.6236 *  0.0000     2          
   126  Na    c      0.0000      17.6236 *     0.0000    0.0000     4          
   127  O     c      4.4059 *    13.2177 *    11.0148 *  0.0000    16          
   128  O     c      0.0000       8.8118 *    15.4207 *  0.0000     8          
   129  O     c      0.0000      17.6236 *    -2.2030 *  0.0000     8          
   130  Cl    c      2.2030 *     2.2030      17.6236 *  0.0000     8          
   131  Cl    c      2.2030 *    15.4207 *     8.8118 *  0.0000    16          
   132  Cl    c     11.0148 *    11.0148       8.8118 *  0.0000     8          
   133  Na    c      2.2030 *     8.8118 *    15.4207 *  0.0000    16          
   134  Na    c     11.0148 *     8.8118 *    11.0148 *  0.0000    16          
   135  Na    c      2.2030 *    17.6236 *    -2.2030 *  0.0000    16          
   136  Na    c     15.4207 *     8.8118 *    -2.2030 *  0.0000    16          
   137  Na    c      8.8118 *     8.8118      13.2177 *  0.0000     8          
   138  Na    c      8.8118 *    13.2177 *     8.8118 *  0.0000    16          
   139  Na    c      0.0000       4.4059 *    17.6236 *  0.0000     8          
   140  Na    c      0.0000      17.6236 *     4.4059 *  0.0000     8          
   141  Na    c      4.4059 *    17.6236 *     0.0000    0.0000     8          
   142  O     c      4.4059 *     8.8118 *    15.4207 *  0.0000    16          
   143  O     c      4.4059 *    17.6236 *    -2.2030 *  0.0000    16          
   144  Cl    c      6.6089 *    11.0148 *    13.2177 *  0.0000    16          
   145  Na    c      6.6089 *    13.2177 *    11.0148 *  0.0000    16          
   146  Na    c     11.0148 *    13.2177 *     6.6089 *  0.0000    16          
   147  Na    c      0.0000      13.2177 *    13.2177 *  0.0000     8          
   148  Na    c      4.4059 *     4.4059      17.6236 *  0.0000     8          
   149  Na    c     13.2177 *    13.2177       0.0000    0.0000     4          
   150  Na    c      4.4059 *    17.6236 *     4.4059 *  0.0000    16          
   151  O     c      0.0000      17.6236 *     6.6089 *  0.0000     8          
   152  O     c     13.2177 *    13.2177      -2.2030 *  0.0000     8          
   153  Cl    c      2.2030 *     6.6089 *    17.6236 *  0.0000    16          
   154  Cl    c      6.6089 *    15.4207 *     8.8118 *  0.0000    16          
   155  Cl    c     11.0148 *    15.4207 *     0.0000    0.0000     8          
   156  Na    c      6.6089 *     8.8118 *    15.4207 *  0.0000    16          
   157  Na    c     11.0148 *     0.0000      15.4207 *  0.0000     8          
   158  Na    c     15.4207 *     0.0000      11.0148 *  0.0000     8          
   159  Na    c      2.2030 *    17.6236 *     6.6089 *  0.0000    16          
   160  Na    c      6.6089 *    17.6236 *    -2.2030 *  0.0000    16          
   161  Na    c     15.4207 *     8.8118 *     6.6089 *  0.0000    16          
   162  Ba    s      0.0000       0.0000       0.0000    0.0000     1    Defect
   163  O     s      0.0000       0.0000      -2.2030 *  0.0000     2          
   164  Cl    s      2.2030 *     2.2030       0.0000    0.0000     4          
   165  O     s      0.0000       4.4059 *    -2.2030 *  0.0000     8          
   166  Cl    s      2.2030 *     2.2030       4.4059 *  0.0000     8          
   167  O     s      0.0000       0.0000       6.6089 *  0.0000     2          
   168  O     s      4.4059 *     4.4059      -2.2030 *  0.0000     8          
   169  Cl    s      2.2030 *     6.6089 *     0.0000    0.0000     8          
   170  O     s      0.0000       4.4059 *     6.6089 *  0.0000     8          
   171  Cl    s      2.2030 *     6.6089 *     4.4059 *  0.0000    16          
   172  O     s      4.4059 *     4.4059       6.6089 *  0.0000     8          
   173  O     s      0.0000       8.8118 *    -2.2030 *  0.0000     8          
   174  Cl    s      2.2030 *     2.2030       8.8118 *  0.0000     8          
   175  Cl    s      6.6089 *     6.6089       0.0000    0.0000     4          
   176  O     s      4.4059 *     8.8118 *    -2.2030 *  0.0000    16          
   177  Cl    s      6.6089 *     6.6089       4.4059 *  0.0000     8          
   178  O     s      0.0000       0.0000      11.0148 *  0.0000     2          
   179  O     s      0.0000       8.8118 *     6.6089 *  0.0000     8          
   180  Cl    s      2.2030 *     6.6089 *     8.8118 *  0.0000    16          
   181  Cl    s      2.2030 *    11.0148 *     0.0000    0.0000     8          
   182  O     s      0.0000       4.4059 *    11.0148 *  0.0000     8          
   183  O     s      4.4059 *     8.8118 *     6.6089 *  0.0000    16          
   184  Cl    s      2.2030 *    11.0148 *     4.4059 *  0.0000    16          
   185  O     s      4.4059 *     4.4059      11.0148 *  0.0000     8          
   186  O     s      8.8118 *     8.8118      -2.2030 *  0.0000     8          
   187  Cl    s      6.6089 *     6.6089       8.8118 *  0.0000     8          
   188  Cl    s      6.6089 *    11.0148 *     0.0000    0.0000     8          
   189  O     s      0.0000      13.2177 *    -2.2030 *  0.0000     8          
   190  Cl    s      6.6089 *    11.0148 *     4.4059 *  0.0000    16          
   191  Cl    s      2.2030 *     2.2030      13.2177 *  0.0000     8          
   192  O     s      4.4059 *    13.2177 *    -2.2030 *  0.0000    16          
   193  O     s      0.0000       8.8118 *    11.0148 *  0.0000     8          
   194  O     s      8.8118 *     8.8118       6.6089 *  0.0000     8          
   195  Cl    s      2.2030 *    11.0148 *     8.8118 *  0.0000    16          
   196  O     s      4.4059 *     8.8118 *    11.0148 *  0.0000    16          
   197  O     s      0.0000      13.2177 *     6.6089 *  0.0000     8          
   198  Cl    s      2.2030 *     6.6089 *    13.2177 *  0.0000    16          
   199  O     s      0.0000       0.0000      15.4207 *  0.0000     2          
   200  O     s      4.4059 *    13.2177 *     6.6089 *  0.0000    16          
   201  Cl    s      2.2030 *    15.4207 *     0.0000    0.0000     8          
   202  Cl    s      6.6089 *    11.0148 *     8.8118 *  0.0000    16          
   203  Cl    s     11.0148 *    11.0148       0.0000    0.0000     4          
   204  O     s      0.0000       4.4059 *    15.4207 *  0.0000     8          
   205  O     s      8.8118 *    13.2177 *    -2.2030 *  0.0000    16          
   206  Cl    s      2.2030 *    15.4207 *     4.4059 *  0.0000    16          
   207  Cl    s      6.6089 *     6.6089      13.2177 *  0.0000     8          
   208  Cl    s     11.0148 *    11.0148       4.4059 *  0.0000     8          
   209  O     s      4.4059 *     4.4059      15.4207 *  0.0000     8          
   210  O     s      8.8118 *     8.8118      11.0148 *  0.0000     8          
   211  Cl    s      6.6089 *    15.4207 *     0.0000    0.0000     8          
   212  O     s      0.0000      13.2177 *    11.0148 *  0.0000     8          
   213  O     s      8.8118 *    13.2177 *     6.6089 *  0.0000    16          
   214  Cl    s      2.2030 *    11.0148 *    13.2177 *  0.0000    16          
   215  Cl    s      6.6089 *    15.4207 *     4.4059 *  0.0000    16          
   216  O     s      4.4059 *    13.2177 *    11.0148 *  0.0000    16          
   217  O     s      0.0000       8.8118 *    15.4207 *  0.0000     8          
   218  O     s      0.0000      17.6236 *    -2.2030 *  0.0000     8          
   219  Cl    s      2.2030 *     2.2030      17.6236 *  0.0000     8          
   220  Cl    s      2.2030 *    15.4207 *     8.8118 *  0.0000    16          
   221  Cl    s     11.0148 *    11.0148       8.8118 *  0.0000     8          
   222  O     s      4.4059 *     8.8118 *    15.4207 *  0.0000    16          
   223  O     s      4.4059 *    17.6236 *    -2.2030 *  0.0000    16          
   224  Cl    s      6.6089 *    11.0148 *    13.2177 *  0.0000    16          
   225  O     s      0.0000      17.6236 *     6.6089 *  0.0000     8          
   226  O     s     13.2177 *    13.2177      -2.2030 *  0.0000     8          
   227  Cl    s      2.2030 *     6.6089 *    17.6236 *  0.0000    16          
   228  Cl    s      6.6089 *    15.4207 *     8.8118 *  0.0000    16          
   229  Cl    s     11.0148 *    15.4207 *     0.0000    0.0000     8          
--------------------------------------------------------------------------------


  Constraints on symmetry reduced coordinates :

--------------------------------------------------------------------------------
  Constraint no.      Unconstrained     Constrained    Coefficient    
                         Variable         Variable
--------------------------------------------------------------------------------
           1                 3 x             3 y         1.00000
           2                 9 x             9 y         1.00000
           3                11 x            11 y         1.00000
           4                13 x            13 y         1.00000
           5                17 x            17 y         1.00000
           6                24 x            24 y         1.00000
           7                26 x            26 y         1.00000
           8                27 x            27 y         1.00000
           9                34 x            34 y         1.00000
          10                37 x            37 y         1.00000
          11                52 x            52 y         1.00000
          12                53 x            53 y         1.00000
          13                54 x            54 y         1.00000
          14                55 x            55 y         1.00000
          15                63 x            63 y         1.00000
          16                67 x            67 y         1.00000
          17                75 x            75 y         1.00000
          18                80 x            80 y         1.00000
          19                86 x            86 y         1.00000
          20                91 x            91 y         1.00000
          21               103 x           103 y         1.00000
          22               104 x           104 y         1.00000
          23               112 x           112 y         1.00000
          24               113 x           113 y         1.00000
          25               130 x           130 y         1.00000
          26               132 x           132 y         1.00000
          27               137 x           137 y         1.00000
          28               148 x           148 y         1.00000
          29               149 x           149 y         1.00000
          30               152 x           152 y         1.00000
          31               164 x           164 y         1.00000
          32               166 x           166 y         1.00000
          33               168 x           168 y         1.00000
          34               172 x           172 y         1.00000
          35               174 x           174 y         1.00000
          36               175 x           175 y         1.00000
          37               177 x           177 y         1.00000
          38               185 x           185 y         1.00000
          39               186 x           186 y         1.00000
          40               187 x           187 y         1.00000
          41               191 x           191 y         1.00000
          42               194 x           194 y         1.00000
          43               203 x           203 y         1.00000
          44               207 x           207 y         1.00000
          45               208 x           208 y         1.00000
          46               209 x           209 y         1.00000
          47               210 x           210 y         1.00000
          48               219 x           219 y         1.00000
          49               221 x           221 y         1.00000
          50               226 x           226 y         1.00000
--------------------------------------------------------------------------------


  Components of defect energy : 

--------------------------------------------------------------------------------
  Region 1 - region 1                   =     14.87167264 eV
  Region 1 - region 2a (unrelaxed)      =    -18.67437412 eV
  Region 1 - 2a (relaxed - correction)  =     -0.13398006 eV
  Region 1 (Total)                      =     -3.93668155 eV
  Region 2a                             =      0.06699612 eV
  Region 2b                             =     -0.27216525 eV
--------------------------------------------------------------------------------
  Total defect energy                   =     -4.14185068 eV
--------------------------------------------------------------------------------

  Largest displacement in region 2 =   0.0062 Angstroms


  Number of variables =      522

  Maximum number of calculations  =        1000
  Maximum Hessian update interval =          10
  Maximum step size               =   1.0000000
  Maximum parameter tolerance     =   0.0000100
  Maximum function  tolerance     =   0.0000100
  Maximum gradient  tolerance     =   0.0010000

  Symmetry adapted optimisation

  Symmetry to be used for second derivatives

  Newton-Raphson optimiser to be used

  BFGS hessian update to be used

  Lower half triangular hessian to be used

  Start of defect optimisation :

  Cycle:      0 Defect Energy:  -4.141851  Gnorm:     0.075763  CPU:   19.751
  ** Hessian calculated **
  Cycle:      1 Defect Energy:  -6.845779  Gnorm:     0.027724  CPU:   30.287
  Cycle:      2 Defect Energy:  -7.302492  Gnorm:     0.002377  CPU:   34.414
  Cycle:      3 Defect Energy:  -7.315698  Gnorm:     0.001745  CPU:   35.635
  Cycle:      4 Defect Energy:  -7.323243  Gnorm:     0.001061  CPU:   36.710
  Cycle:      5 Defect Energy:  -7.326602  Gnorm:     0.000761  CPU:   37.798
  Cycle:      6 Defect Energy:  -7.328247  Gnorm:     0.000512  CPU:   38.971
  Cycle:      7 Defect Energy:  -7.329063  Gnorm:     0.000360  CPU:   40.363
  Cycle:      8 Defect Energy:  -7.329453  Gnorm:     0.000243  CPU:   41.213
  Cycle:      9 Defect Energy:  -7.329639  Gnorm:     0.000171  CPU:   41.907
  Cycle:     10 Defect Energy:  -7.329725  Gnorm:     0.000117  CPU:   42.634
  ** Hessian calculated **
  Cycle:     11 Defect Energy:  -7.329767  Gnorm:     0.000082  CPU:   45.066
  Cycle:     12 Defect Energy:  -7.329788  Gnorm:     0.000058  CPU:   45.726
  Cycle:     13 Defect Energy:  -7.329798  Gnorm:     0.000044  CPU:   46.376


  **** Optimisation achieved ****


  Final defect energy  =       -7.32980342
  Final defect Gnorm   =        0.00002999

  Components of defect energy : 

--------------------------------------------------------------------------------
  Region 1 - region 1                   =      9.97661783 eV
  Region 1 - region 2a (unrelaxed)      =    -16.97807913 eV
  Region 1 - 2a (relaxed - correction)  =     -0.11233766 eV
  Region 1 (Total)                      =     -7.11379896 eV
  Region 2a                             =      0.05616079 eV
  Region 2b                             =     -0.27216525 eV
--------------------------------------------------------------------------------
  Total defect energy                   =     -7.32980342 eV
--------------------------------------------------------------------------------

  Largest displacement in region 2 =   0.0062 Angstroms

  Final coordinates of region 1 :

--------------------------------------------------------------------------------
   No.  Atomic        x           y           z          Radius      Charge
        Label       (Angs)      (Angs)      (Angs)       (Angs)       (e) 
--------------------------------------------------------------------------------
     1  Ba    c     2.202951    2.202951    0.000000    0.000000   -7.203000
     2  O     c     2.202951    2.202951   -2.409643    0.000000    0.183000
     3  O     c     2.202951    2.202951    2.409643    0.000000    0.183000
     4  Cl    c     4.429306    4.429306    0.000000    0.000000    1.485000
     5  Cl    c     4.429306   -0.023403    0.000000    0.000000    1.485000
     6  Cl    c    -0.023403    4.429306    0.000000    0.000000    1.485000
     7  Cl    c    -0.023403   -0.023403    0.000000    0.000000    1.485000
     8  Na    c     4.478800    2.202951   -2.621954    0.000000    1.000000
     9  Na    c     4.478800    2.202951    2.621954    0.000000    1.000000
    10  Na    c    -0.072898    2.202951   -2.621954    0.000000    1.000000
    11  Na    c    -0.072898    2.202951    2.621954    0.000000    1.000000
    12  Na    c     2.202951    4.478800   -2.621954    0.000000    1.000000
    13  Na    c     2.202951    4.478800    2.621954    0.000000    1.000000
    14  Na    c     2.202951   -0.072898   -2.621954    0.000000    1.000000
    15  Na    c     2.202951   -0.072898    2.621954    0.000000    1.000000
    16  Na    c     2.202951    2.202951    4.580162    0.000000    1.000000
    17  Na    c     2.202951    2.202951   -4.580162    0.000000    1.000000
    18  Na    c     2.202951    6.492508    0.000000    0.000000    1.000000
    19  Na    c     2.202951   -2.086606    0.000000    0.000000    1.000000
    20  Na    c     6.492508    2.202951    0.000000    0.000000    1.000000
    21  Na    c    -2.086606    2.202951    0.000000    0.000000    1.000000
    22  O     c     2.202951    6.608916   -2.230276    0.000000    0.183000
    23  O     c     2.202951    6.608916    2.230276    0.000000    0.183000
    24  O     c     2.202951   -2.203014   -2.230276    0.000000    0.183000
    25  O     c     2.202951   -2.203014    2.230276    0.000000    0.183000
    26  O     c     6.608916    2.202951   -2.230276    0.000000    0.183000
    27  O     c     6.608916    2.202951    2.230276    0.000000    0.183000
    28  O     c    -2.203014    2.202951   -2.230276    0.000000    0.183000
    29  O     c    -2.203014    2.202951    2.230276    0.000000    0.183000
    30  Na    c     4.411751    6.649096   -2.199066    0.000000    1.000000
    31  Na    c     4.411751    6.649096    2.199066    0.000000    1.000000
    32  Na    c     4.411751   -2.243193   -2.199066    0.000000    1.000000
    33  Na    c     4.411751   -2.243193    2.199066    0.000000    1.000000
    34  Na    c    -0.005849    6.649096   -2.199066    0.000000    1.000000
    35  Na    c    -0.005849    6.649096    2.199066    0.000000    1.000000
    36  Na    c    -0.005849   -2.243193   -2.199066    0.000000    1.000000
    37  Na    c    -0.005849   -2.243193    2.199066    0.000000    1.000000
    38  Na    c     6.649096    4.411751   -2.199066    0.000000    1.000000
    39  Na    c     6.649096    4.411751    2.199066    0.000000    1.000000
    40  Na    c     6.649096   -0.005849   -2.199066    0.000000    1.000000
    41  Na    c     6.649096   -0.005849    2.199066    0.000000    1.000000
    42  Na    c    -2.243193    4.411751   -2.199066    0.000000    1.000000
    43  Na    c    -2.243193    4.411751    2.199066    0.000000    1.000000
    44  Na    c    -2.243193   -0.005849   -2.199066    0.000000    1.000000
    45  Na    c    -2.243193   -0.005849    2.199066    0.000000    1.000000
    46  Cl    c     4.391162    4.391162    4.455360    0.000000    1.485000
    47  Cl    c     4.391162    4.391162   -4.455360    0.000000    1.485000
    48  Cl    c     4.391162    0.014740    4.455360    0.000000    1.485000
    49  Cl    c     4.391162    0.014740   -4.455360    0.000000    1.485000
    50  Cl    c     0.014740    4.391162    4.455360    0.000000    1.485000
    51  Cl    c     0.014740    4.391162   -4.455360    0.000000    1.485000
    52  Cl    c     0.014740    0.014740    4.455360    0.000000    1.485000
    53  Cl    c     0.014740    0.014740   -4.455360    0.000000    1.485000
    54  Na    c     2.202951    6.833938    4.450657    0.000000    1.000000
    55  Na    c     2.202951    6.833938   -4.450657    0.000000    1.000000
    56  Na    c     2.202951   -2.428035    4.450657    0.000000    1.000000
    57  Na    c     2.202951   -2.428035   -4.450657    0.000000    1.000000
    58  Na    c     6.833938    2.202951    4.450657    0.000000    1.000000
    59  Na    c     6.833938    2.202951   -4.450657    0.000000    1.000000
    60  Na    c    -2.428035    2.202951    4.450657    0.000000    1.000000
    61  Na    c    -2.428035    2.202951   -4.450657    0.000000    1.000000
    62  Na    c     6.643401    6.643401    0.000000    0.000000    1.000000
    63  Na    c     6.643401   -2.237499    0.000000    0.000000    1.000000
    64  Na    c    -2.237499    6.643401    0.000000    0.000000    1.000000
    65  Na    c    -2.237499   -2.237499    0.000000    0.000000    1.000000
    66  O     c     2.202951    2.202951    6.692904    0.000000    0.183000
    67  O     c     2.202951    2.202951   -6.692904    0.000000    0.183000
    68  O     c     6.609648    6.609648   -2.207701    0.000000    0.183000
    69  O     c     6.609648    6.609648    2.207701    0.000000    0.183000
    70  O     c     6.609648   -2.203745   -2.207701    0.000000    0.183000
    71  O     c     6.609648   -2.203745    2.207701    0.000000    0.183000
    72  O     c    -2.203745    6.609648   -2.207701    0.000000    0.183000
    73  O     c    -2.203745    6.609648    2.207701    0.000000    0.183000
    74  O     c    -2.203745   -2.203745   -2.207701    0.000000    0.183000
    75  O     c    -2.203745   -2.203745    2.207701    0.000000    0.183000
    76  Cl    c     4.394296    8.779048    0.000000    0.000000    1.485000
    77  Cl    c     4.394296   -4.373145    0.000000    0.000000    1.485000
    78  Cl    c     8.779048    4.394296    0.000000    0.000000    1.485000
    79  Cl    c     8.779048    0.011606    0.000000    0.000000    1.485000
    80  Cl    c     0.011606    8.779048    0.000000    0.000000    1.485000
    81  Cl    c     0.011606   -4.373145    0.000000    0.000000    1.485000
    82  Cl    c    -4.373145    4.394296    0.000000    0.000000    1.485000
    83  Cl    c    -4.373145    0.011606    0.000000    0.000000    1.485000
    84  Na    c     4.427931    2.202951    6.678915    0.000000    1.000000
    85  Na    c     4.427931    2.202951   -6.678915    0.000000    1.000000
    86  Na    c    -0.022029    2.202951    6.678915    0.000000    1.000000
    87  Na    c    -0.022029    2.202951   -6.678915    0.000000    1.000000
    88  Na    c     2.202951    4.427931    6.678915    0.000000    1.000000
    89  Na    c     2.202951    4.427931   -6.678915    0.000000    1.000000
    90  Na    c     2.202951   -0.022029    6.678915    0.000000    1.000000
    91  Na    c     2.202951   -0.022029   -6.678915    0.000000    1.000000
    92  Na    c     8.821479    2.202951   -2.076779    0.000000    1.000000
    93  Na    c     8.821479    2.202951    2.076779    0.000000    1.000000
    94  Na    c    -4.415577    2.202951   -2.076779    0.000000    1.000000
    95  Na    c    -4.415577    2.202951    2.076779    0.000000    1.000000
    96  Na    c     2.202951    8.821479   -2.076779    0.000000    1.000000
    97  Na    c     2.202951    8.821479    2.076779    0.000000    1.000000
    98  Na    c     2.202951   -4.415577   -2.076779    0.000000    1.000000
    99  Na    c     2.202951   -4.415577    2.076779    0.000000    1.000000
   100  Na    c     6.615590    6.615590    4.414520    0.000000    1.000000
   101  Na    c     6.615590    6.615590   -4.414520    0.000000    1.000000
   102  Na    c     6.615590   -2.209688    4.414520    0.000000    1.000000
   103  Na    c     6.615590   -2.209688   -4.414520    0.000000    1.000000
   104  Na    c    -2.209688    6.615590    4.414520    0.000000    1.000000
   105  Na    c    -2.209688    6.615590   -4.414520    0.000000    1.000000
   106  Na    c    -2.209688   -2.209688    4.414520    0.000000    1.000000
   107  Na    c    -2.209688   -2.209688   -4.414520    0.000000    1.000000
   108  O     c     2.202951    6.633743    6.640004    0.000000    0.183000
   109  O     c     2.202951    6.633743   -6.640004    0.000000    0.183000
   110  O     c     2.202951   -2.227841    6.640004    0.000000    0.183000
   111  O     c     2.202951   -2.227841   -6.640004    0.000000    0.183000
   112  O     c     6.633743    2.202951    6.640004    0.000000    0.183000
   113  O     c     6.633743    2.202951   -6.640004    0.000000    0.183000
   114  O     c    -2.227841    2.202951    6.640004    0.000000    0.183000
   115  O     c    -2.227841    2.202951   -6.640004    0.000000    0.183000
   116  Cl    c     4.403901    8.803680    4.403142    0.000000    1.485000
   117  Cl    c     4.403901    8.803680   -4.403142    0.000000    1.485000
   118  Cl    c     4.403901   -4.397778    4.403142    0.000000    1.485000
   119  Cl    c     4.403901   -4.397778   -4.403142    0.000000    1.485000
   120  Cl    c     8.803680    4.403901    4.403142    0.000000    1.485000
   121  Cl    c     8.803680    4.403901   -4.403142    0.000000    1.485000
   122  Cl    c     8.803680    0.002001    4.403142    0.000000    1.485000
   123  Cl    c     8.803680    0.002001   -4.403142    0.000000    1.485000
   124  Cl    c     0.002001    8.803680    4.403142    0.000000    1.485000
   125  Cl    c     0.002001    8.803680   -4.403142    0.000000    1.485000
   126  Cl    c     0.002001   -4.397778    4.403142    0.000000    1.485000
   127  Cl    c     0.002001   -4.397778   -4.403142    0.000000    1.485000
   128  Cl    c    -4.397778    4.403901    4.403142    0.000000    1.485000
   129  Cl    c    -4.397778    4.403901   -4.403142    0.000000    1.485000
   130  Cl    c    -4.397778    0.002001    4.403142    0.000000    1.485000
   131  Cl    c    -4.397778    0.002001   -4.403142    0.000000    1.485000
   132  Na    c     4.408331    6.620763    6.636338    0.000000    1.000000
   133  Na    c     4.408331    6.620763   -6.636338    0.000000    1.000000
   134  Na    c     4.408331   -2.214861    6.636338    0.000000    1.000000
   135  Na    c     4.408331   -2.214861   -6.636338    0.000000    1.000000
   136  Na    c    -0.002429    6.620763    6.636338    0.000000    1.000000
   137  Na    c    -0.002429    6.620763   -6.636338    0.000000    1.000000
   138  Na    c    -0.002429   -2.214861    6.636338    0.000000    1.000000
   139  Na    c    -0.002429   -2.214861   -6.636338    0.000000    1.000000
   140  Na    c     6.620763    4.408331    6.636338    0.000000    1.000000
   141  Na    c     6.620763    4.408331   -6.636338    0.000000    1.000000
   142  Na    c     6.620763   -0.002429    6.636338    0.000000    1.000000
   143  Na    c     6.620763   -0.002429   -6.636338    0.000000    1.000000
   144  Na    c    -2.214861    4.408331    6.636338    0.000000    1.000000
   145  Na    c    -2.214861    4.408331   -6.636338    0.000000    1.000000
   146  Na    c    -2.214861   -0.002429    6.636338    0.000000    1.000000
   147  Na    c    -2.214861   -0.002429   -6.636338    0.000000    1.000000
   148  Na    c     8.818318    6.624937   -2.221243    0.000000    1.000000
   149  Na    c     8.818318    6.624937    2.221243    0.000000    1.000000
   150  Na    c     8.818318   -2.219035   -2.221243    0.000000    1.000000
   151  Na    c     8.818318   -2.219035    2.221243    0.000000    1.000000
   152  Na    c    -4.412416    6.624937   -2.221243    0.000000    1.000000
   153  Na    c    -4.412416    6.624937    2.221243    0.000000    1.000000
   154  Na    c    -4.412416   -2.219035   -2.221243    0.000000    1.000000
   155  Na    c    -4.412416   -2.219035    2.221243    0.000000    1.000000
   156  Na    c     6.624937    8.818318   -2.221243    0.000000    1.000000
   157  Na    c     6.624937    8.818318    2.221243    0.000000    1.000000
   158  Na    c     6.624937   -4.412416   -2.221243    0.000000    1.000000
   159  Na    c     6.624937   -4.412416    2.221243    0.000000    1.000000
   160  Na    c    -2.219035    8.818318   -2.221243    0.000000    1.000000
   161  Na    c    -2.219035    8.818318    2.221243    0.000000    1.000000
   162  Na    c    -2.219035   -4.412416   -2.221243    0.000000    1.000000
   163  Na    c    -2.219035   -4.412416    2.221243    0.000000    1.000000
   164  Na    c     2.202951    2.202951    8.868671    0.000000    1.000000
   165  Na    c     2.202951    2.202951   -8.868671    0.000000    1.000000
   166  Na    c     2.202951   11.148905    0.000000    0.000000    1.000000
   167  Na    c     2.202951   -6.743003    0.000000    0.000000    1.000000
   168  Na    c    11.148905    2.202951    0.000000    0.000000    1.000000
   169  Na    c    -6.743003    2.202951    0.000000    0.000000    1.000000
   170  O     c     6.608923    6.608923    6.613806    0.000000    0.183000
   171  O     c     6.608923    6.608923   -6.613806    0.000000    0.183000
   172  O     c     6.608923   -2.203020    6.613806    0.000000    0.183000
   173  O     c     6.608923   -2.203020   -6.613806    0.000000    0.183000
   174  O     c    -2.203020    6.608923    6.613806    0.000000    0.183000
   175  O     c    -2.203020    6.608923   -6.613806    0.000000    0.183000
   176  O     c    -2.203020   -2.203020    6.613806    0.000000    0.183000
   177  O     c    -2.203020   -2.203020   -6.613806    0.000000    0.183000
   178  O     c     2.202951   11.015851   -2.201272    0.000000    0.183000
   179  O     c     2.202951   11.015851    2.201272    0.000000    0.183000
   180  O     c     2.202951   -6.609949   -2.201272    0.000000    0.183000
   181  O     c     2.202951   -6.609949    2.201272    0.000000    0.183000
   182  O     c    11.015851    2.202951   -2.201272    0.000000    0.183000
   183  O     c    11.015851    2.202951    2.201272    0.000000    0.183000
   184  O     c    -6.609949    2.202951   -2.201272    0.000000    0.183000
   185  O     c    -6.609949    2.202951    2.201272    0.000000    0.183000
   186  Cl    c     4.409771    4.409771    8.819880    0.000000    1.485000
   187  Cl    c     4.409771    4.409771   -8.819880    0.000000    1.485000
   188  Cl    c     4.409771   -0.003869    8.819880    0.000000    1.485000
   189  Cl    c     4.409771   -0.003869   -8.819880    0.000000    1.485000
   190  Cl    c    -0.003869    4.409771    8.819880    0.000000    1.485000
   191  Cl    c    -0.003869    4.409771   -8.819880    0.000000    1.485000
   192  Cl    c    -0.003869   -0.003869    8.819880    0.000000    1.485000
   193  Cl    c    -0.003869   -0.003869   -8.819880    0.000000    1.485000
   194  Cl    c     8.798608    8.798608    0.000000    0.000000    1.485000
   195  Cl    c     8.798608   -4.392706    0.000000    0.000000    1.485000
   196  Cl    c    -4.392706    8.798608    0.000000    0.000000    1.485000
   197  Cl    c    -4.392706   -4.392706    0.000000    0.000000    1.485000
   198  Na    c     8.835353    2.202951    6.757720    0.000000    1.000000
   199  Na    c     8.835353    2.202951   -6.757720    0.000000    1.000000
   200  Na    c    -4.429450    2.202951    6.757720    0.000000    1.000000
   201  Na    c    -4.429450    2.202951   -6.757720    0.000000    1.000000
   202  Na    c     2.202951    8.835353    6.757720    0.000000    1.000000
   203  Na    c     2.202951    8.835353   -6.757720    0.000000    1.000000
   204  Na    c     2.202951   -4.429450    6.757720    0.000000    1.000000
   205  Na    c     2.202951   -4.429450   -6.757720    0.000000    1.000000
   206  Na    c     4.406339   11.026865   -2.212776    0.000000    1.000000
   207  Na    c     4.406339   11.026865    2.212776    0.000000    1.000000
   208  Na    c     4.406339   -6.620962   -2.212776    0.000000    1.000000
   209  Na    c     4.406339   -6.620962    2.212776    0.000000    1.000000
   210  Na    c    -0.000437   11.026865   -2.212776    0.000000    1.000000
   211  Na    c    -0.000437   11.026865    2.212776    0.000000    1.000000
   212  Na    c    -0.000437   -6.620962   -2.212776    0.000000    1.000000
   213  Na    c    -0.000437   -6.620962    2.212776    0.000000    1.000000
   214  Na    c    11.026865    4.406339   -2.212776    0.000000    1.000000
   215  Na    c    11.026865    4.406339    2.212776    0.000000    1.000000
   216  Na    c    11.026865   -0.000437   -2.212776    0.000000    1.000000
   217  Na    c    11.026865   -0.000437    2.212776    0.000000    1.000000
   218  Na    c    -6.620962    4.406339   -2.212776    0.000000    1.000000
   219  Na    c    -6.620962    4.406339    2.212776    0.000000    1.000000
   220  Na    c    -6.620962   -0.000437   -2.212776    0.000000    1.000000
   221  Na    c    -6.620962   -0.000437    2.212776    0.000000    1.000000
   222  Na    c     2.202951    6.593285    8.842443    0.000000    1.000000
   223  Na    c     2.202951    6.593285   -8.842443    0.000000    1.000000
   224  Na    c     2.202951   -2.187383    8.842443    0.000000    1.000000
   225  Na    c     2.202951   -2.187383   -8.842443    0.000000    1.000000
   226  Na    c     6.593285    2.202951    8.842443    0.000000    1.000000
   227  Na    c     6.593285    2.202951   -8.842443    0.000000    1.000000
   228  Na    c    -2.187383    2.202951    8.842443    0.000000    1.000000
   229  Na    c    -2.187383    2.202951   -8.842443    0.000000    1.000000
   230  Na    c     2.202951   10.926012    4.410593    0.000000    1.000000
   231  Na    c     2.202951   10.926012   -4.410593    0.000000    1.000000
   232  Na    c     2.202951   -6.520110    4.410593    0.000000    1.000000
   233  Na    c     2.202951   -6.520110   -4.410593    0.000000    1.000000
   234  Na    c    10.926012    2.202951    4.410593    0.000000    1.000000
   235  Na    c    10.926012    2.202951   -4.410593    0.000000    1.000000
   236  Na    c    -6.520110    2.202951    4.410593    0.000000    1.000000
   237  Na    c    -6.520110    2.202951   -4.410593    0.000000    1.000000
   238  Na    c     6.609373   11.016312    0.000000    0.000000    1.000000
   239  Na    c     6.609373   -6.610410    0.000000    0.000000    1.000000
   240  Na    c    11.016312    6.609373    0.000000    0.000000    1.000000
   241  Na    c    11.016312   -2.203470    0.000000    0.000000    1.000000
   242  Na    c    -2.203470   11.016312    0.000000    0.000000    1.000000
   243  Na    c    -2.203470   -6.610410    0.000000    0.000000    1.000000
   244  Na    c    -6.610410    6.609373    0.000000    0.000000    1.000000
   245  Na    c    -6.610410   -2.203470    0.000000    0.000000    1.000000
   246  O     c     6.608136   11.014364   -2.202984    0.000000    0.183000
   247  O     c     6.608136   11.014364    2.202984    0.000000    0.183000
   248  O     c     6.608136   -6.608462   -2.202984    0.000000    0.183000
   249  O     c     6.608136   -6.608462    2.202984    0.000000    0.183000
   250  O     c    11.014364    6.608136   -2.202984    0.000000    0.183000
   251  O     c    11.014364    6.608136    2.202984    0.000000    0.183000
   252  O     c    11.014364   -2.202234   -2.202984    0.000000    0.183000
   253  O     c    11.014364   -2.202234    2.202984    0.000000    0.183000
   254  O     c    -2.202234   11.014364   -2.202984    0.000000    0.183000
   255  O     c    -2.202234   11.014364    2.202984    0.000000    0.183000
   256  O     c    -2.202234   -6.608462   -2.202984    0.000000    0.183000
   257  O     c    -2.202234   -6.608462    2.202984    0.000000    0.183000
   258  O     c    -6.608462    6.608136   -2.202984    0.000000    0.183000
   259  O     c    -6.608462    6.608136    2.202984    0.000000    0.183000
   260  O     c    -6.608462   -2.202234   -2.202984    0.000000    0.183000
   261  O     c    -6.608462   -2.202234    2.202984    0.000000    0.183000
   262  Cl    c     8.802677    8.802677    4.400681    0.000000    1.485000
   263  Cl    c     8.802677    8.802677   -4.400681    0.000000    1.485000
   264  Cl    c     8.802677   -4.396775    4.400681    0.000000    1.485000
   265  Cl    c     8.802677   -4.396775   -4.400681    0.000000    1.485000
   266  Cl    c    -4.396775    8.802677    4.400681    0.000000    1.485000
   267  Cl    c    -4.396775    8.802677   -4.400681    0.000000    1.485000
   268  Cl    c    -4.396775   -4.396775    4.400681    0.000000    1.485000
   269  Cl    c    -4.396775   -4.396775   -4.400681    0.000000    1.485000
   270  Na    c     8.815932    6.614349    6.614546    0.000000    1.000000
   271  Na    c     8.815932    6.614349   -6.614546    0.000000    1.000000
   272  Na    c     8.815932   -2.208446    6.614546    0.000000    1.000000
   273  Na    c     8.815932   -2.208446   -6.614546    0.000000    1.000000
   274  Na    c    -4.410030    6.614349    6.614546    0.000000    1.000000
   275  Na    c    -4.410030    6.614349   -6.614546    0.000000    1.000000
   276  Na    c    -4.410030   -2.208446    6.614546    0.000000    1.000000
   277  Na    c    -4.410030   -2.208446   -6.614546    0.000000    1.000000
   278  Na    c     6.614349    8.815932    6.614546    0.000000    1.000000
   279  Na    c     6.614349    8.815932   -6.614546    0.000000    1.000000
   280  Na    c     6.614349   -4.410030    6.614546    0.000000    1.000000
   281  Na    c     6.614349   -4.410030   -6.614546    0.000000    1.000000
   282  Na    c    -2.208446    8.815932    6.614546    0.000000    1.000000
   283  Na    c    -2.208446    8.815932   -6.614546    0.000000    1.000000
   284  Na    c    -2.208446   -4.410030    6.614546    0.000000    1.000000
   285  Na    c    -2.208446   -4.410030   -6.614546    0.000000    1.000000
   286  Na    c     6.618874   11.033559    4.408553    0.000000    1.000000
   287  Na    c     6.618874   11.033559   -4.408553    0.000000    1.000000
   288  Na    c     6.618874   -6.627656    4.408553    0.000000    1.000000
   289  Na    c     6.618874   -6.627656   -4.408553    0.000000    1.000000
   290  Na    c    11.033559    6.618874    4.408553    0.000000    1.000000
   291  Na    c    11.033559    6.618874   -4.408553    0.000000    1.000000
   292  Na    c    11.033559   -2.212972    4.408553    0.000000    1.000000
   293  Na    c    11.033559   -2.212972   -4.408553    0.000000    1.000000
   294  Na    c    -2.212972   11.033559    4.408553    0.000000    1.000000
   295  Na    c    -2.212972   11.033559   -4.408553    0.000000    1.000000
   296  Na    c    -2.212972   -6.627656    4.408553    0.000000    1.000000
   297  Na    c    -2.212972   -6.627656   -4.408553    0.000000    1.000000
   298  Na    c    -6.627656    6.618874    4.408553    0.000000    1.000000
   299  Na    c    -6.627656    6.618874   -4.408553    0.000000    1.000000
   300  Na    c    -6.627656   -2.212972    4.408553    0.000000    1.000000
   301  Na    c    -6.627656   -2.212972   -4.408553    0.000000    1.000000
   302  Na    c     6.615959    6.615959    8.821856    0.000000    1.000000
   303  Na    c     6.615959    6.615959   -8.821856    0.000000    1.000000
   304  Na    c     6.615959   -2.210057    8.821856    0.000000    1.000000
   305  Na    c     6.615959   -2.210057   -8.821856    0.000000    1.000000
   306  Na    c    -2.210057    6.615959    8.821856    0.000000    1.000000
   307  Na    c    -2.210057    6.615959   -8.821856    0.000000    1.000000
   308  Na    c    -2.210057   -2.210057    8.821856    0.000000    1.000000
   309  Na    c    -2.210057   -2.210057   -8.821856    0.000000    1.000000
   310  O     c     2.202951    2.202951   11.053140    0.000000    0.183000
   311  O     c     2.202951    2.202951  -11.053140    0.000000    0.183000
   312  O     c     2.202951   11.020186    6.616148    0.000000    0.183000
   313  O     c     2.202951   11.020186   -6.616148    0.000000    0.183000
   314  O     c     2.202951   -6.614283    6.616148    0.000000    0.183000
   315  O     c     2.202951   -6.614283   -6.616148    0.000000    0.183000
   316  O     c    11.020186    2.202951    6.616148    0.000000    0.183000
   317  O     c    11.020186    2.202951   -6.616148    0.000000    0.183000
   318  O     c    -6.614283    2.202951    6.616148    0.000000    0.183000
   319  O     c    -6.614283    2.202951   -6.616148    0.000000    0.183000
   320  Cl    c     4.403534    8.809979    8.815426    0.000000    1.485000
   321  Cl    c     4.403534    8.809979   -8.815426    0.000000    1.485000
   322  Cl    c     4.403534   -4.404077    8.815426    0.000000    1.485000
   323  Cl    c     4.403534   -4.404077   -8.815426    0.000000    1.485000
   324  Cl    c     8.809979    4.403534    8.815426    0.000000    1.485000
   325  Cl    c     8.809979    4.403534   -8.815426    0.000000    1.485000
   326  Cl    c     8.809979    0.002368    8.815426    0.000000    1.485000
   327  Cl    c     8.809979    0.002368   -8.815426    0.000000    1.485000
   328  Cl    c     0.002368    8.809979    8.815426    0.000000    1.485000
   329  Cl    c     0.002368    8.809979   -8.815426    0.000000    1.485000
   330  Cl    c     0.002368   -4.404077    8.815426    0.000000    1.485000
   331  Cl    c     0.002368   -4.404077   -8.815426    0.000000    1.485000
   332  Cl    c    -4.404077    4.403534    8.815426    0.000000    1.485000
   333  Cl    c    -4.404077    4.403534   -8.815426    0.000000    1.485000
   334  Cl    c    -4.404077    0.002368    8.815426    0.000000    1.485000
   335  Cl    c    -4.404077    0.002368   -8.815426    0.000000    1.485000
   336  Cl    c     4.407007   13.207691    0.000000    0.000000    1.485000
   337  Cl    c     4.407007   -8.801789    0.000000    0.000000    1.485000
   338  Cl    c    13.207691    4.407007    0.000000    0.000000    1.485000
   339  Cl    c    13.207691   -0.001105    0.000000    0.000000    1.485000
   340  Cl    c    -0.001105   13.207691    0.000000    0.000000    1.485000
   341  Cl    c    -0.001105   -8.801789    0.000000    0.000000    1.485000
   342  Cl    c    -8.801789    4.407007    0.000000    0.000000    1.485000
   343  Cl    c    -8.801789   -0.001105    0.000000    0.000000    1.485000
   344  Na    c     4.408826    2.202951   11.067808    0.000000    1.000000
   345  Na    c     4.408826    2.202951  -11.067808    0.000000    1.000000
[...]
    149 y         15.420658     15.425410     0.004751    Cartesian    0.03
    149 z          0.000000      0.000000     0.000000    Cartesian    0.00
    150 x          6.608853      6.613075     0.004221    Cartesian    0.06
    150 y         19.826560     19.834051     0.007491    Cartesian    0.04
    150 z          4.405902      4.406808     0.000906    Cartesian    0.02
    151 x          2.202951      2.202951     0.000000    Cartesian    0.00
    151 y         19.826560     19.823988    -0.002573    Cartesian   -0.01
    151 z          6.608853      6.610068     0.001214    Cartesian    0.02
    152 x         15.420658     15.418933    -0.001725    Cartesian   -0.01
    152 y         15.420658     15.418933    -0.001725    Cartesian   -0.01
    152 z         -2.202951     -2.201585     0.001366    Cartesian   -0.06
    153 x          4.405902      4.404597    -0.001305    Cartesian   -0.03
    153 y          8.811805      8.809907    -0.001898    Cartesian   -0.02
    153 z         17.623609     17.616804    -0.006805    Cartesian   -0.04
    154 x          8.811805      8.809136    -0.002669    Cartesian   -0.03
    154 y         17.623609     17.615663    -0.007946    Cartesian   -0.05
    154 z          8.811805      8.808250    -0.003554    Cartesian   -0.04
    155 x         13.217707     13.212652    -0.005054    Cartesian   -0.04
    155 y         17.623609     17.615901    -0.007709    Cartesian   -0.04
    155 z          0.000000      0.000000     0.000000    Cartesian    0.00
    156 x          8.811805      8.812912     0.001108    Cartesian    0.01
    156 y         11.014756     11.018003     0.003247    Cartesian    0.03
    156 z         15.420658     15.427758     0.007100    Cartesian    0.05
    157 x         13.217707     13.219200     0.001493    Cartesian    0.01
    157 y          2.202951      2.202951     0.000000    Cartesian    0.00
    157 z         15.420658     15.422787     0.002128    Cartesian    0.01
    158 x         17.623609     17.624950     0.001340    Cartesian    0.01
    158 y          2.202951      2.202951     0.000000    Cartesian    0.00
    158 z         11.014756     11.007339    -0.007416    Cartesian   -0.07
    159 x          4.405902      4.405933     0.000031    Cartesian    0.00
    159 y         19.826560     19.835648     0.009088    Cartesian    0.05
    159 z          6.608853      6.608405    -0.000449    Cartesian   -0.01
    160 x          8.811805      8.812778     0.000974    Cartesian    0.01
    160 y         19.826560     19.834260     0.007700    Cartesian    0.04
    160 z         -2.202951     -2.201953     0.000998    Cartesian   -0.05
    161 x         17.623609     17.626195     0.002586    Cartesian    0.01
    161 y         11.014756     11.020393     0.005637    Cartesian    0.05
    161 z          6.608853      6.612007     0.003154    Cartesian    0.05
    162 x          2.202951      2.202951     0.000000    Cartesian    0.00
    162 y          2.202951      2.202951     0.000000    Cartesian    0.00
    162 z          0.000000      0.000000     0.000000    Cartesian    0.00
    163 x          2.202951      2.202951     0.000000    Cartesian    0.00
    163 y          2.202951      2.202951     0.000000    Cartesian    0.00
    163 z         -2.202951     -2.409376    -0.206425    Cartesian    9.37
    164 x          4.405902      4.404885    -0.001017    Cartesian   -0.02
    164 y          4.405902      4.404885    -0.001017    Cartesian   -0.02
    164 z          0.000000      0.000000     0.000000    Cartesian    0.00
    165 x          2.202951      2.202951     0.000000    Cartesian    0.00
    165 y          6.608853      6.608890     0.000037    Cartesian    0.00
    165 z         -2.202951     -2.230319    -0.027368    Cartesian    1.24
    166 x          4.405902      4.378970    -0.026932    Cartesian   -0.61
    166 y          4.405902      4.378970    -0.026932    Cartesian   -0.61
    166 z          4.405902      4.442359     0.036457    Cartesian    0.83
    167 x          2.202951      2.202951     0.000000    Cartesian    0.00
    167 y          2.202951      2.202951     0.000000    Cartesian    0.00
    167 z          6.608853      6.692806     0.083953    Cartesian    1.27
    168 x          6.608853      6.609652     0.000799    Cartesian    0.01
    168 y          6.608853      6.609652     0.000799    Cartesian    0.01
    168 z         -2.202951     -2.207704    -0.004753    Cartesian    0.22
    169 x          4.405902      4.390665    -0.015238    Cartesian   -0.35
    169 y          8.811805      8.773624    -0.038181    Cartesian   -0.43
    169 z          0.000000      0.000000     0.000000    Cartesian    0.00
    170 x          2.202951      2.202951     0.000000    Cartesian    0.00
    170 y          6.608853      6.633769     0.024916    Cartesian    0.38
    170 z          6.608853      6.640027     0.031173    Cartesian    0.47
    171 x          4.405902      4.400288    -0.005614    Cartesian   -0.13
    171 y          8.811805      8.799265    -0.012540    Cartesian   -0.14
    171 z          4.405902      4.401539    -0.004364    Cartesian   -0.10
    172 x          6.608853      6.608921     0.000067    Cartesian    0.00
    172 y          6.608853      6.608921     0.000067    Cartesian    0.00
    172 z          6.608853      6.613804     0.004951    Cartesian    0.07
    173 x          2.202951      2.202951     0.000000    Cartesian    0.00
    173 y         11.014756     11.015851     0.001096    Cartesian    0.01
    173 z         -2.202951     -2.201265     0.001686    Cartesian   -0.08
    174 x          4.405902      4.409447     0.003545    Cartesian    0.08
    174 y          4.405902      4.409447     0.003545    Cartesian    0.08
    174 z          8.811805      8.816211     0.004407    Cartesian    0.05
    175 x          8.811805      8.795561    -0.016243    Cartesian   -0.18
    175 y          8.811805      8.795561    -0.016243    Cartesian   -0.18
    175 z          0.000000      0.000000     0.000000    Cartesian    0.00
    176 x          6.608853      6.608136    -0.000717    Cartesian   -0.01
    176 y         11.014756     11.014360    -0.000396    Cartesian   -0.00
    176 z         -2.202951     -2.202984    -0.000033    Cartesian    0.00
    177 x          8.811805      8.800496    -0.011308    Cartesian   -0.13
    177 y          8.811805      8.800496    -0.011308    Cartesian   -0.13
    177 z          4.405902      4.399013    -0.006889    Cartesian   -0.16
    178 x          2.202951      2.202951     0.000000    Cartesian    0.00
    178 y          2.202951      2.202951     0.000000    Cartesian    0.00
    178 z         11.014756     11.053142     0.038386    Cartesian    0.35
    179 x          2.202951      2.202951     0.000000    Cartesian    0.00
    179 y         11.014756     11.020172     0.005416    Cartesian    0.05
    179 z          6.608853      6.616158     0.007304    Cartesian    0.11
    180 x          4.405902      4.401399    -0.004503    Cartesian   -0.10
    180 y          8.811805      8.807966    -0.003838    Cartesian   -0.04
    180 z          8.811805      8.812700     0.000895    Cartesian    0.01
    181 x          4.405902      4.405968     0.000066    Cartesian    0.00
    181 y         13.217707     13.205018    -0.012689    Cartesian   -0.10
    181 z          0.000000      0.000000     0.000000    Cartesian    0.00
    182 x          2.202951      2.202951     0.000000    Cartesian    0.00
    182 y          6.608853      6.611863     0.003010    Cartesian    0.05
    182 z         11.014756     11.028592     0.013836    Cartesian    0.13
    183 x          6.608853      6.609473     0.000620    Cartesian    0.01
    183 y         11.014756     11.016402     0.001647    Cartesian    0.01
    183 z          6.608853      6.610015     0.001161    Cartesian    0.02
    184 x          4.405902      4.405112    -0.000790    Cartesian   -0.02
    184 y         13.217707     13.205942    -0.011765    Cartesian   -0.09
    184 z          4.405902      4.402926    -0.002976    Cartesian   -0.07
    185 x          6.608853      6.611180     0.002327    Cartesian    0.04
    185 y          6.608853      6.611180     0.002327    Cartesian    0.04
    185 z         11.014756     11.021775     0.007019    Cartesian    0.06
    186 x         11.014756     11.014688    -0.000068    Cartesian   -0.00
    186 y         11.014756     11.014688    -0.000068    Cartesian   -0.00
    186 z         -2.202951     -2.202456     0.000495    Cartesian   -0.02
    187 x          8.811805      8.806546    -0.005258    Cartesian   -0.06
    187 y          8.811805      8.806546    -0.005258    Cartesian   -0.06
    187 z          8.811805      8.805268    -0.006537    Cartesian   -0.07
    188 x          8.811805      8.806178    -0.005627    Cartesian   -0.06
    188 y         13.217707     13.207169    -0.010538    Cartesian   -0.08
    188 z          0.000000      0.000000     0.000000    Cartesian    0.00
    189 x          2.202951      2.202951     0.000000    Cartesian    0.00
    189 y         15.420658     15.418967    -0.001691    Cartesian   -0.01
    189 z         -2.202951     -2.205461    -0.002510    Cartesian    0.11
    190 x          8.811805      8.806859    -0.004946    Cartesian   -0.06
    190 y         13.217707     13.209025    -0.008682    Cartesian   -0.07
    190 z          4.405902      4.402523    -0.003379    Cartesian   -0.08
    191 x          4.405902      4.406193     0.000290    Cartesian    0.01
    191 y          4.405902      4.406193     0.000290    Cartesian    0.01
    191 z         13.217707     13.218157     0.000450    Cartesian    0.00
    192 x          6.608853      6.608941     0.000087    Cartesian    0.00
    192 y         15.420658     15.420920     0.000262    Cartesian    0.00
    192 z         -2.202951     -2.202335     0.000616    Cartesian   -0.03
    193 x          2.202951      2.202951     0.000000    Cartesian    0.00
    193 y         11.014756     11.024213     0.009457    Cartesian    0.09
    193 z         11.014756     11.020697     0.005941    Cartesian    0.05
    194 x         11.014756     11.014743    -0.000013    Cartesian   -0.00
    194 y         11.014756     11.014743    -0.000013    Cartesian   -0.00
    194 z          6.608853      6.608833    -0.000021    Cartesian   -0.00
    195 x          4.405902      4.405433    -0.000469    Cartesian   -0.01
    195 y         13.217707     13.213549    -0.004158    Cartesian   -0.03
    195 z          8.811805      8.808766    -0.003038    Cartesian   -0.03
    196 x          6.608853      6.609505     0.000652    Cartesian    0.01
    196 y         11.014756     11.015223     0.000467    Cartesian    0.00
    196 z         11.014756     11.015344     0.000588    Cartesian    0.01
    197 x          2.202951      2.202951     0.000000    Cartesian    0.00
    197 y         15.420658     15.423269     0.002611    Cartesian    0.02
    197 z          6.608853      6.605652    -0.003201    Cartesian   -0.05
    198 x          4.405902      4.405147    -0.000756    Cartesian   -0.02
    198 y          8.811805      8.811004    -0.000801    Cartesian   -0.01
    198 z         13.217707     13.214227    -0.003480    Cartesian   -0.03
    199 x          2.202951      2.202951     0.000000    Cartesian    0.00
    199 y          2.202951      2.202951     0.000000    Cartesian    0.00
    199 z         15.420658     15.431003     0.010345    Cartesian    0.07
    200 x          6.608853      6.608829    -0.000024    Cartesian   -0.00
    200 y         15.420658     15.420787     0.000129    Cartesian    0.00
    200 z          6.608853      6.608495    -0.000359    Cartesian   -0.01
    201 x          4.405902      4.404656    -0.001246    Cartesian   -0.03
    201 y         17.623609     17.616653    -0.006956    Cartesian   -0.04
    201 z          0.000000      0.000000     0.000000    Cartesian    0.00
    202 x          8.811805      8.808816    -0.002989    Cartesian   -0.03
    202 y         13.217707     13.211881    -0.005826    Cartesian   -0.04
    202 z          8.811805      8.806520    -0.005285    Cartesian   -0.06
    203 x         13.217707     13.210016    -0.007691    Cartesian   -0.06
    203 y         13.217707     13.210016    -0.007691    Cartesian   -0.06
    203 z          0.000000      0.000000     0.000000    Cartesian    0.00
    204 x          2.202951      2.202951     0.000000    Cartesian    0.00
    204 y          6.608853      6.611338     0.002485    Cartesian    0.04
    204 z         15.420658     15.426757     0.006099    Cartesian    0.04
    205 x         11.014756     11.014230    -0.000526    Cartesian   -0.00
    205 y         15.420658     15.420662     0.000004    Cartesian    0.00
    205 z         -2.202951     -2.203810    -0.000859    Cartesian    0.04
    206 x          4.405902      4.405182    -0.000720    Cartesian   -0.02
    206 y         17.623609     17.616976    -0.006633    Cartesian   -0.04
    206 z          4.405902      4.402923    -0.002979    Cartesian   -0.07
    207 x          8.811805      8.808949    -0.002855    Cartesian   -0.03
    207 y          8.811805      8.808949    -0.002855    Cartesian   -0.03
    207 z         13.217707     13.212554    -0.005153    Cartesian   -0.04
    208 x         13.217707     13.212388    -0.005319    Cartesian   -0.04
    208 y         13.217707     13.212388    -0.005319    Cartesian   -0.04
    208 z          4.405902      4.403626    -0.002276    Cartesian   -0.05
    209 x          6.608853      6.610060     0.001206    Cartesian    0.02
    209 y          6.608853      6.610060     0.001206    Cartesian    0.02
    209 z         15.420658     15.423474     0.002816    Cartesian    0.02
    210 x         11.014756     11.015683     0.000927    Cartesian    0.01
    210 y         11.014756     11.015683     0.000927    Cartesian    0.01
    210 z         11.014756     11.014699    -0.000057    Cartesian   -0.00
    211 x          8.811805      8.809917    -0.001888    Cartesian   -0.02
    211 y         17.623609     17.617666    -0.005943    Cartesian   -0.03
    211 z          0.000000      0.000000     0.000000    Cartesian    0.00
    212 x          2.202951      2.202951     0.000000    Cartesian    0.00
    212 y         15.420658     15.421068     0.000410    Cartesian    0.00
    212 z         11.014756     11.018503     0.003747    Cartesian    0.03
    213 x         11.014756     11.016032     0.001276    Cartesian    0.01
    213 y         15.420658     15.421907     0.001249    Cartesian    0.01
    213 z          6.608853      6.608193    -0.000661    Cartesian   -0.01
    214 x          4.405902      4.405717    -0.000185    Cartesian   -0.00
    214 y         13.217707     13.215189    -0.002518    Cartesian   -0.02
    214 z         13.217707     13.214161    -0.003546    Cartesian   -0.03
    215 x          8.811805      8.809591    -0.002214    Cartesian   -0.03
    215 y         17.623609     17.617953    -0.005656    Cartesian   -0.03
    215 z          4.405902      4.404385    -0.001517    Cartesian   -0.03
    216 x          6.608853      6.609056     0.000203    Cartesian    0.00
    216 y         15.420658     15.420727     0.000069    Cartesian    0.00
    216 z         11.014756     11.013774    -0.000982    Cartesian   -0.01
    217 x          2.202951      2.202951     0.000000    Cartesian    0.00
    217 y         11.014756     11.013934    -0.000822    Cartesian   -0.01
    217 z         15.420658     15.422353     0.001695    Cartesian    0.01
    218 x          2.202951      2.202951     0.000000    Cartesian    0.00
    218 y         19.826560     19.825643    -0.000917    Cartesian   -0.00
    218 z         -2.202951     -2.198716     0.004235    Cartesian   -0.19
    219 x          4.405902      4.406009     0.000107    Cartesian    0.00
    219 y          4.405902      4.406009     0.000107    Cartesian    0.00
    219 z         17.623609     17.618905    -0.004704    Cartesian   -0.03
    220 x          4.405902      4.404300    -0.001602    Cartesian   -0.04
    220 y         17.623609     17.617939    -0.005670    Cartesian   -0.03
    220 z          8.811805      8.809324    -0.002480    Cartesian   -0.03
    221 x         13.217707     13.213504    -0.004203    Cartesian   -0.03
    221 y         13.217707     13.213504    -0.004203    Cartesian   -0.03
    221 z          8.811805      8.808436    -0.003368    Cartesian   -0.04
    222 x          6.608853      6.609368     0.000515    Cartesian    0.01
    222 y         11.014756     11.014805     0.000050    Cartesian    0.00
    222 z         15.420658     15.420096    -0.000562    Cartesian   -0.00
    223 x          6.608853      6.609029     0.000176    Cartesian    0.00
    223 y         19.826560     19.826159    -0.000401    Cartesian   -0.00
    223 z         -2.202951     -2.203865    -0.000914    Cartesian    0.04
    224 x          8.811805      8.809088    -0.002716    Cartesian   -0.03
    224 y         13.217707     13.213589    -0.004118    Cartesian   -0.03
    224 z         13.217707     13.211759    -0.005948    Cartesian   -0.04
    225 x          2.202951      2.202951     0.000000    Cartesian    0.00
    225 y         19.826560     19.823982    -0.002579    Cartesian   -0.01
    225 z          6.608853      6.610077     0.001223    Cartesian    0.02
    226 x         15.420658     15.418931    -0.001727    Cartesian   -0.01
    226 y         15.420658     15.418931    -0.001727    Cartesian   -0.01
    226 z         -2.202951     -2.201581     0.001370    Cartesian   -0.06
    227 x          4.405902      4.404146    -0.001757    Cartesian   -0.04
    227 y          8.811805      8.809529    -0.002276    Cartesian   -0.03
    227 z         17.623609     17.615587    -0.008022    Cartesian   -0.05
    228 x          8.811805      8.808716    -0.003089    Cartesian   -0.04
    228 y         17.623609     17.614438    -0.009171    Cartesian   -0.05
    228 z          8.811805      8.807861    -0.003944    Cartesian   -0.04
    229 x         13.217707     13.212056    -0.005651    Cartesian   -0.04
    229 y         17.623609     17.614832    -0.008777    Cartesian   -0.05
    229 z          0.000000      0.000000     0.000000    Cartesian    0.00
--------------------------------------------------------------------------------


  Time to end of optimisation  =       47.0410 seconds


  Peak dynamic memory used =     993.20 MB 


  Timing analysis for GULP :

--------------------------------------------------------------------------------
  Task / Subroutine                                          Time (Seconds)
--------------------------------------------------------------------------------
  Calculation of reciprocal space energy and derivatives          0.0006
  Calculation of reciprocal space energy using symmetry           0.0011
  Calculation of real space energy and derivatives                0.0036
  Calculation of real space energy using symmetry                 0.0117
  Calculation for region 1 energy and derivatives (2-b)          33.3517
  Calculation for region 2a energy                                8.6231
  Calculation for region 2b energy                                0.0003
  Calculation and manipulation of Hessian matrix                  3.9369
  Calculation of matrix inversion                                 0.1191
  Symmetry generation of equivalent positions                     0.0050
--------------------------------------------------------------------------------
  Total CPU time                                                 47.0410
--------------------------------------------------------------------------------


  Dump file written as Na3OCl.grs


  Job Finished at 13:48.09  3rd February   2021                               

