********************************************************************************
*                       GENERAL UTILITY LATTICE PROGRAM                        *
*                                 Julian Gale                                  *
*                       Curtin Institute for Computation                       *
*                    School of Molecular and Life Sciences                     *
*                    Curtin University, Western Australia                      *
********************************************************************************
* Version = 5.2.0 * Last modified =  10th September 2020                       *
********************************************************************************
*  optimise     - perform optimisation run                                     *
*  conp         - constant pressure calculation                                *
*  property     - calculate properties for final geometry                      *
*  defect       - perform defect calculation after bulk run                    *
*  compare      - compare initial and final structures                         *
********************************************************************************

  Job Started  at 14:26.06  3rd January    2021                               

  Number of CPUs =     1


  Total number of configurations input =      1

********************************************************************************
*  Input for Configuration =   1                                               *
********************************************************************************

  Formula = ClONa3                                                      

  Number of irreducible atoms/shells =       5


  Total number atoms/shells =       7

  Dimensionality = 3               :  Bulk   


  Symmetry :

  Crystal family                   :  Cubic       
  Crystal class  (Groth - 1921)    :  Cubic Hexakisoctahedral              

  Space group (centrosymmetric)    :  P M 3 M         

  Patterson group                  :  P m -3 m 

  Cartesian lattice vectors (Angstroms) :

        4.504000    0.000000    0.000000
        0.000000    4.504000    0.000000
        0.000000    0.000000    4.504000

  Cell parameters (Angstroms/Degrees):

  a =       4.5040    alpha =  90.0000
  b =       4.5040    beta  =  90.0000
  c =       4.5040    gamma =  90.0000

  Initial cell volume =          91.368216 Angs**3

  Temperature of configuration =   0.00     K 

  Pressure of configuration =         0.000 GPa 

  Fractional coordinates of asymmetric unit :

--------------------------------------------------------------------------------
   No.  Atomic       x           y          z         Charge      Occupancy
        Label      (Frac)      (Frac)     (Frac)        (e)         (Frac)  
--------------------------------------------------------------------------------
      1 Cl    c    0.000000    0.000000    0.000000     1.48500    1.000000    
      2 O     c    0.500000    0.500000    0.500000     0.18300    1.000000    
      3 Na    c    0.500000    0.500000    0.000000     1.00000    1.000000    
      4 Cl    s    0.000000    0.000000    0.000000    -2.48500    1.000000    
      5 O     s    0.500000    0.500000    0.500000    -2.18300    1.000000    
--------------------------------------------------------------------------------


  Constraints : 

--------------------------------------------------------------------------------
  Constraint no.      Unconstrained     Constrained    Coefficient    Offset
                         Variable         Variable
--------------------------------------------------------------------------------
           1              Strain 1        Strain 2       1.00000      0.0000
           2              Strain 1        Strain 3       1.00000      0.0000
--------------------------------------------------------------------------------


********************************************************************************
*  General input information                                                   *
********************************************************************************

  Species output for all configurations : 

--------------------------------------------------------------------------------
  Species    Type    Atomic    Atomic    Charge       Radii (Angs)     Library
                     Number     Mass       (e)     Cova   Ionic  VDW   Symbol
--------------------------------------------------------------------------------
    Na       Core       11      22.99   1.000000   0.970  0.000  2.300          
    O        Core        8      16.00   0.183000   0.730  0.000  1.360          
    O        Shell       8       0.00  -2.183000   0.730  0.000  1.360          
    Cl       Core       17      35.45   1.485000   0.990  0.000  1.650          
    Cl       Shell      17       0.00  -2.485000   0.990  0.000  1.650          
    Mg       Core       12      24.31   0.415000   1.100  0.000  0.000          
    Mg       Shell      12       0.00   1.585000   1.100  0.000  0.000          
    Ca       Core       20      40.08  -1.135000   0.990  0.000  0.000          
    Ca       Shell      20       0.00   3.135000   0.990  0.000  0.000          
    Sr       Core       38      87.62  -1.251000   1.120  0.000  0.000          
    Sr       Shell      38       0.00   3.251000   1.120  0.000  0.000          
    Ba       Core       56     137.33  -7.203000   1.340  0.000  0.000          
    Ba       Shell      56       0.00   9.203000   1.340  0.000  0.000          
--------------------------------------------------------------------------------


  Lattice summation method               =    Ewald          (3-D)
                                         =    Parry          (2-D)
                                         =    Saunders et al (1-D)
  Accuracy factor for lattice sums       =   12.000


  Analytic derivatives to be used

  Time limit = Infinity

  Maximum range for interatomic potentials =    100000.000000 Angstroms

  General interatomic potentials :

--------------------------------------------------------------------------------
Atom  Types   Potential      Parameter       Value         Units   Cutoffs(Ang)
  1     2                                                            Min /  Max 
--------------------------------------------------------------------------------
O    c O    s Spring (c-s)  Spring k 2       593.71600    eV*Ang^-2 0.000  0.800
                            Spring k 4       0.0000000    eV*Ang^-4 
--------------------------------------------------------------------------------
Cl   c Cl   s Spring (c-s)  Spring k 2       29.380000    eV*Ang^-2 0.000  0.800
                            Spring k 4       0.0000000    eV*Ang^-4 
--------------------------------------------------------------------------------
Mg   c Mg   s Spring (c-s)  Spring k 2       361.60000    eV*Ang^-2 0.000  0.800
                            Spring k 4       0.0000000    eV*Ang^-4 
--------------------------------------------------------------------------------
Ca   c Ca   s Spring (c-s)  Spring k 2       110.20000    eV*Ang^-2 0.000  0.800
                            Spring k 4       0.0000000    eV*Ang^-4 
--------------------------------------------------------------------------------
Sr   c Sr   s Spring (c-s)  Spring k 2       71.700000    eV*Ang^-2 0.000  0.800
                            Spring k 4       0.0000000    eV*Ang^-4 
--------------------------------------------------------------------------------
Ba   c Ba   s Spring (c-s)  Spring k 2       495.20000    eV*Ang^-2 0.000  0.800
                            Spring k 4       0.0000000    eV*Ang^-4 
--------------------------------------------------------------------------------
Na   c Na   c Buckingham    Buckingham A     1788.1900    eV        0.000 12.000
                            Buckingham rho  0.15900000    Ang       
                            Buckingham C     0.0000000    eV*Ang^6  
--------------------------------------------------------------------------------
Na   c O    s Buckingham    Buckingham A     369.22000    eV        0.000 12.000
                            Buckingham rho  0.37600000    Ang       
                            Buckingham C     0.0000000    eV*Ang^6  
--------------------------------------------------------------------------------
Na   c Cl   s Buckingham    Buckingham A     1775.1200    eV        0.000 12.000
                            Buckingham rho  0.30000000    Ang       
                            Buckingham C     0.0000000    eV*Ang^6  
--------------------------------------------------------------------------------
O    s O    s Buckingham    Buckingham A     22764.300    eV        0.000 12.000
                            Buckingham rho  0.14900000    Ang       
                            Buckingham C     13.190000    eV*Ang^6  
--------------------------------------------------------------------------------
O    s Cl   s Buckingham    Buckingham A     8286.9100    eV        0.000 12.000
                            Buckingham rho  0.25900000    Ang       
                            Buckingham C     62.200000    eV*Ang^6  
--------------------------------------------------------------------------------
Cl   s Cl   s Buckingham    Buckingham A     1227.2000    eV        0.000 12.000
                            Buckingham rho  0.32100000    Ang       
                            Buckingham C     14.530000    eV*Ang^6  
--------------------------------------------------------------------------------
O    s Mg   s Buckingham    Buckingham A     1428.5000    eV        0.000 12.000
                            Buckingham rho  0.29450000    Ang       
                            Buckingham C     0.0000000    eV*Ang^6  
--------------------------------------------------------------------------------
Mg   s Cl   s Buckingham    Buckingham A     4914.5400    eV        0.000 12.000
                            Buckingham rho  0.25700000    Ang       
                            Buckingham C     0.0000000    eV*Ang^6  
--------------------------------------------------------------------------------
O    s Ca   s Buckingham    Buckingham A     1090.4000    eV        0.000 12.000
                            Buckingham rho  0.34370000    Ang       
                            Buckingham C     0.0000000    eV*Ang^6  
--------------------------------------------------------------------------------
Cl   s Ca   s Buckingham    Buckingham A     2302.0000    eV        0.000 12.000
                            Buckingham rho  0.34020000    Ang       
                            Buckingham C     0.0000000    eV*Ang^6  
--------------------------------------------------------------------------------
O    s Sr   s Buckingham    Buckingham A     959.10000    eV        0.000 12.000
                            Buckingham rho  0.37210000    Ang       
                            Buckingham C     0.0000000    eV*Ang^6  
--------------------------------------------------------------------------------
Cl   s Sr   s Buckingham    Buckingham A     2191.0900    eV        0.000 12.000
                            Buckingham rho  0.34570000    Ang       
                            Buckingham C     0.0000000    eV*Ang^6  
--------------------------------------------------------------------------------
O    s Ba   s Buckingham    Buckingham A     905.70000    eV        0.000 12.000
                            Buckingham rho  0.39760000    Ang       
                            Buckingham C     0.0000000    eV*Ang^6  
--------------------------------------------------------------------------------
Cl   s Ba   s Buckingham    Buckingham A     2704.5500    eV        0.000 12.000
                            Buckingham rho  0.35280000    Ang       
                            Buckingham C     0.0000000    eV*Ang^6  
--------------------------------------------------------------------------------

********************************************************************************
*  Output for configuration   1                                                *
********************************************************************************


  Components of energy : 

--------------------------------------------------------------------------------
  Interatomic potentials     =           5.94260302 eV    
  Monopole - monopole (real) =         -10.03624526 eV    
  Monopole - monopole (recip)=         -29.53581274 eV    
  Monopole - monopole (total)=         -39.57205800 eV    
--------------------------------------------------------------------------------
  Total lattice energy       =         -33.62945497 eV    
--------------------------------------------------------------------------------
  Total lattice energy       =           -3244.7283 kJ/(mole unit cells)
--------------------------------------------------------------------------------


  Number of variables =        1

  Maximum number of calculations  =          1000
  Maximum Hessian update interval =            10
  Maximum step size               =   1.000000000
  Maximum parameter tolerance     =   0.000010000
  Maximum function  tolerance     =   0.000010000
  Maximum gradient  tolerance     =   0.001000000
  Maximum gradient  component     =   0.010000000

  Symmetry constrained optimisation

  Symmetry used for second derivatives

  Cell parameters to be optimised using strains

  Newton-Raphson optimiser to be used

  BFGS hessian update to be used

  Lower half triangular hessian to be used

  Start of bulk optimisation :

  Cycle:      0 Energy:       -33.629455  Gnorm:      1.259168  CPU:    0.005
  ** Hessian calculated **
  Cycle:      1 Energy:       -33.633782  Gnorm:      0.004576  CPU:    0.006


  **** Optimisation achieved ****


  Final energy =     -33.63378233 eV
  Final Gnorm  =       0.00011077

  Components of energy : 

--------------------------------------------------------------------------------
  Interatomic potentials     =           6.20931397 eV    
  Monopole - monopole (real) =         -10.10498585 eV    
  Monopole - monopole (recip)=         -29.73811044 eV    
  Monopole - monopole (total)=         -39.84309629 eV    
--------------------------------------------------------------------------------
  Total lattice energy       =         -33.63378233 eV    
--------------------------------------------------------------------------------
  Total lattice energy       =           -3245.1459 kJ/(mole unit cells)
--------------------------------------------------------------------------------

  Final asymmetric unit coordinates :

--------------------------------------------------------------------------------
   No.  Atomic        x           y           z         Radius
        Label       (Frac)      (Frac)      (Frac)       (Angs) 
--------------------------------------------------------------------------------
     1  Cl    c     0.000000    0.000000    0.000000    0.000000
     2  O     c     0.500000    0.500000    0.500000    0.000000
     3  Na    c     0.500000    0.500000    0.000000    0.000000
     4  Cl    s     0.000000    0.000000    0.000000    0.000000
     5  O     s     0.500000    0.500000    0.500000    0.000000
--------------------------------------------------------------------------------

  Final Cartesian lattice vectors (Angstroms) :

        4.473361    0.000000    0.000000
        0.000000    4.473361    0.000000
        0.000000    0.000000    4.473361


  Final cell parameters and derivatives :

--------------------------------------------------------------------------------
       a            4.473361 Angstrom     dE/de1(xx)     0.000111 eV/strain
       b            4.473361 Angstrom     dE/de2(yy)     0.000000 eV/strain
       c            4.473361 Angstrom     dE/de3(zz)     0.000000 eV/strain
       alpha       90.000000 Degrees      dE/de4(yz)     0.000000 eV/strain
       beta        90.000000 Degrees      dE/de5(xz)     0.000000 eV/strain
       gamma       90.000000 Degrees      dE/de6(xy)     0.000000 eV/strain
--------------------------------------------------------------------------------

  Primitive cell volume =            89.516236 Angs**3

  Density of cell =      2.233844 g/cm**3

  Non-primitive cell volume =            89.516236 Angs**3


  Final internal derivatives :

--------------------------------------------------------------------------------
   No.  Atomic          a             b             c           Radius
        Label          (eV)          (eV)          (eV)        (eV/Angs)
--------------------------------------------------------------------------------
      1 Cl    c       0.000000      0.000000      0.000000      0.000000
      2 O     c       0.000000      0.000000      0.000000      0.000000
      3 Na    c       0.000000      0.000000      0.000000      0.000000
      4 Cl    s       0.000000      0.000000      0.000000      0.000000
      5 O     s       0.000000      0.000000      0.000000      0.000000
--------------------------------------------------------------------------------
  Maximum abs         0.000000      0.000000      0.000000      0.000000
--------------------------------------------------------------------------------

  Comparison of initial and final structures : 

--------------------------------------------------------------------------------
  Parameter   Initial value   Final value   Difference    Units      Percent
--------------------------------------------------------------------------------
    Volume        91.368216     89.516236    -1.851980    Angs**3     -2.03
    a              4.504000      4.473361    -0.030639    Angstroms   -0.68
    b              4.504000      4.473361    -0.030639    Angstroms   -0.68
    c              4.504000      4.473361    -0.030639    Angstroms   -0.68
    alpha         90.000000     90.000000     0.000000    Degrees      0.00
    beta          90.000000     90.000000     0.000000    Degrees      0.00
    gamma         90.000000     90.000000     0.000000    Degrees      0.00
      1 x          0.000000      0.000000     0.000000    Fractional   0.00
      1 y          0.000000      0.000000     0.000000    Fractional   0.00
      1 z          0.000000      0.000000     0.000000    Fractional   0.00
      2 x          0.500000      0.500000     0.000000    Fractional   0.00
      2 y          0.500000      0.500000     0.000000    Fractional   0.00
      2 z          0.500000      0.500000     0.000000    Fractional   0.00
      3 x          0.500000      0.500000     0.000000    Fractional   0.00
      3 y          0.500000      0.500000     0.000000    Fractional   0.00
      3 z          0.000000      0.000000     0.000000    Fractional   0.00
      4 x          0.000000      0.000000     0.000000    Fractional   0.00
      4 y          0.000000      0.000000     0.000000    Fractional   0.00
      4 z          0.000000      0.000000     0.000000    Fractional   0.00
      5 x          0.500000      0.500000     0.000000    Fractional   0.00
      5 y          0.500000      0.500000     0.000000    Fractional   0.00
      5 z          0.500000      0.500000     0.000000    Fractional   0.00
--------------------------------------------------------------------------------


  Born effective charge tensors : 

-------------------------------------------------------------------------------
  Atom             x           y             z
-------------------------------------------------------------------------------
    1 Cl    x      -1.0058     -0.0000      0.0000
            y      -0.0000     -1.0058      0.0000
            z       0.0000      0.0000     -1.0058
-------------------------------------------------------------------------------
    2 O     x      -2.2847      0.0000     -0.0000
            y       0.0000     -2.2847     -0.0000
            z      -0.0000     -0.0000     -2.2847
-------------------------------------------------------------------------------
    3 Na    x       1.2228      0.0000      0.0000
            y       0.0000      1.2228     -0.0000
            z       0.0000     -0.0000      0.8451
-------------------------------------------------------------------------------




  Elastic Constant Matrix: (Units=GPa)

-------------------------------------------------------------------------------
  Indices      1         2         3         4         5         6    
-------------------------------------------------------------------------------
       1     68.5642   21.8813   21.8813   -0.0000    0.0000    0.0000
       2     21.8813   68.5642   21.8813    0.0000   -0.0000    0.0000
       3     21.8813   21.8813   68.5642   -0.0000    0.0000    0.0000
       4     -0.0000    0.0000   -0.0000   21.8814    0.0000    0.0000
       5      0.0000   -0.0000    0.0000    0.0000   21.8814    0.0000
       6      0.0000    0.0000    0.0000    0.0000    0.0000   21.8814
-------------------------------------------------------------------------------


  Elastic Compliance Matrix: (Units=1/GPa)

-------------------------------------------------------------------------------
  Indices      1         2         3         4         5         6    
-------------------------------------------------------------------------------
       1    0.017248 -0.004173 -0.004173  0.000000 -0.000000 -0.000000
       2   -0.004173  0.017248 -0.004173 -0.000000  0.000000 -0.000000
       3   -0.004173 -0.004173  0.017248  0.000000  0.000000  0.000000
       4    0.000000 -0.000000  0.000000  0.045701 -0.000000 -0.000000
       5   -0.000000  0.000000  0.000000 -0.000000  0.045701 -0.000000
       6   -0.000000 -0.000000  0.000000 -0.000000 -0.000000  0.045701
-------------------------------------------------------------------------------

  Mechanical properties :

-------------------------------------------------------------------------------
  Convention :                    Reuss         Voigt         Hill
-------------------------------------------------------------------------------
  Bulk  Modulus (GPa)     =      37.44228      37.44228      37.44228
  Shear Modulus (GPa)     =      22.44293      22.46541      22.45417
-------------------------------------------------------------------------------
  Velocity S-wave (km/s)  =       3.16966       3.17125       3.17046
  Velocity P-wave (km/s)  =       5.49155       5.49277       5.49216
-------------------------------------------------------------------------------
  Compressibility (1/GPa) =    0.02670777
-------------------------------------------------------------------------------
  Stress axis :                     x             y             z
-------------------------------------------------------------------------------
  Youngs Moduli (GPa)     =      57.97678      57.97678      57.97678
-------------------------------------------------------------------------------
  Poissons Ratio (x)      =                     0.24193       0.24193
  Poissons Ratio (y)      =       0.24193                     0.24193
  Poissons Ratio (z)      =       0.24193       0.24193
-------------------------------------------------------------------------------


  Piezoelectric Strain Matrix: (Units=C/m**2)

-------------------------------------------------------------------------------
  Indices      1         2         3         4         5         6    
-------------------------------------------------------------------------------
       x     0.00000   0.00000   0.00000   0.00000   0.00000   0.00000
       y    -0.00000  -0.00000  -0.00000   0.00000   0.00000  -0.00000
       z    -0.00000  -0.00000  -0.00000  -0.00000  -0.00000   0.00000
-------------------------------------------------------------------------------


  Piezoelectric Stress Matrix: (Units=10**-11 C/N)

-------------------------------------------------------------------------------
  Indices      1         2         3         4         5         6    
-------------------------------------------------------------------------------
       x     0.00000   0.00000   0.00000   0.00000   0.00000   0.00000
       y    -0.00000   0.00000  -0.00000   0.00000   0.00000  -0.00000
       z     0.00000   0.00000  -0.00000  -0.00000  -0.00000   0.00000
-------------------------------------------------------------------------------


  Static dielectric constant tensor : 

-------------------------------------------------------------------------------
              x         y         z
-------------------------------------------------------------------------------
       x    15.76662  -0.00000  -0.00000
       y    -0.00000  15.76662  -0.00000
       z    -0.00000  -0.00000  15.76662
--------------------------------------------------------------------------------

  High frequency dielectric constant tensor : 

-------------------------------------------------------------------------------
              x         y         z
-------------------------------------------------------------------------------
       x     1.48553   0.00000  -0.00000
       y     0.00000   1.48553  -0.00000
       z    -0.00000  -0.00000   1.48553
-------------------------------------------------------------------------------

  Static refractive indices : 

-------------------------------------------------------------------------------
    1 =    3.97072      2 =    3.97072      3 =    3.97072
-------------------------------------------------------------------------------

  High frequency refractive indices : 

-------------------------------------------------------------------------------
    1 =    1.21882      2 =    1.21882      3 =    1.21882
-------------------------------------------------------------------------------


  Time to end of optimisation =       0.0094 seconds

********************************************************************************
*  Defect calculation for configuration   1 :                                  *
********************************************************************************

  Total number of defects =      1

  Total charge on defect  =  -1.00

  Defect centre is at   0.5000   0.5000   0.0000  Frac

  Region 1 radius =  16.0000      Number of ions =   1346

  Number of symmetry inequivalent region 1 ions  =    136

  Region 2 radius =  24.0000      Number of ions =   3180

  Number of symmetry inequivalent region 2a ions =    258

  Region 2a mode = 4 : screened electrostatics due to region 1 
                       neglect correction to region 1 forces from 2a
                       region 2a displacements based on defects only

  Region 2a ions will only interact with defects in region 1

  Vacancies:

--------------------------------------------------------------------------------
    Specification type     Symbol/Number         x          y          z
--------------------------------------------------------------------------------
    Fractional                               0.500000   0.500000   0.000000
--------------------------------------------------------------------------------


  Symmetry reduced region 1 (Relative to defect centre) :

--------------------------------------------------------------------------------
   No.   Atomic       x            y             z       Radius  Multiplicity   
         Label      (Angs)       (Angs)        (Angs)    (Angs)     
--------------------------------------------------------------------------------
     1  O     c      0.0000       0.0000      -2.2367 *  0.0000     2          
     2  Cl    c      2.2367 *     2.2367       0.0000    0.0000     4          
     3  Na    c      2.2367 *     0.0000      -2.2367 *  0.0000     8          
     4  Na    c      0.0000       0.0000       4.4734 *  0.0000     2          
     5  Na    c      0.0000       4.4734 *     0.0000    0.0000     4          
     6  O     c      0.0000       4.4734 *    -2.2367 *  0.0000     8          
     7  Na    c      2.2367 *     4.4734 *    -2.2367 *  0.0000    16          
     8  Cl    c      2.2367 *     2.2367       4.4734 *  0.0000     8          
     9  Na    c      0.0000       4.4734 *     4.4734 *  0.0000     8          
    10  Na    c      4.4734 *     4.4734       0.0000    0.0000     4          
    11  O     c      0.0000       0.0000       6.7100 *  0.0000     2          
    12  O     c      4.4734 *     4.4734      -2.2367 *  0.0000     8          
    13  Cl    c      2.2367 *     6.7100 *     0.0000    0.0000     8          
    14  Na    c      2.2367 *     0.0000       6.7100 *  0.0000     8          
    15  Na    c      6.7100 *     0.0000      -2.2367 *  0.0000     8          
    16  Na    c      4.4734 *     4.4734       4.4734 *  0.0000     8          
    17  O     c      0.0000       4.4734 *     6.7100 *  0.0000     8          
    18  Cl    c      2.2367 *     6.7100 *     4.4734 *  0.0000    16          
    19  Na    c      2.2367 *     4.4734 *     6.7100 *  0.0000    16          
    20  Na    c      6.7100 *     4.4734 *    -2.2367 *  0.0000    16          
    21  Na    c      0.0000       0.0000       8.9467 *  0.0000     2          
    22  Na    c      0.0000       8.9467 *     0.0000    0.0000     4          
    23  O     c      0.0000       8.9467 *    -2.2367 *  0.0000     8          
    24  O     c      4.4734 *     4.4734       6.7100 *  0.0000     8          
    25  Cl    c      2.2367 *     2.2367       8.9467 *  0.0000     8          
    26  Cl    c      6.7100 *     6.7100       0.0000    0.0000     4          
    27  Na    c      2.2367 *     8.9467 *    -2.2367 *  0.0000    16          
    28  Na    c      6.7100 *     0.0000       6.7100 *  0.0000     8          
    29  Na    c      0.0000       4.4734 *     8.9467 *  0.0000     8          
    30  Na    c      0.0000       8.9467 *     4.4734 *  0.0000     8          
    31  Na    c      4.4734 *     8.9467 *     0.0000    0.0000     8          
    32  O     c      4.4734 *     8.9467 *    -2.2367 *  0.0000    16          
    33  Cl    c      6.7100 *     6.7100       4.4734 *  0.0000     8          
    34  Na    c      6.7100 *     4.4734 *     6.7100 *  0.0000    16          
    35  Na    c      4.4734 *     8.9467 *     4.4734 *  0.0000    16          
    36  Na    c      4.4734 *     4.4734       8.9467 *  0.0000     8          
    37  O     c      0.0000       8.9467 *     6.7100 *  0.0000     8          
    38  O     c      0.0000       0.0000      11.1834 *  0.0000     2          
    39  Cl    c      2.2367 *     6.7100 *     8.9467 *  0.0000    16          
    40  Na    c      2.2367 *     8.9467 *     6.7100 *  0.0000    16          
    41  Na    c      6.7100 *     8.9467 *    -2.2367 *  0.0000    16          
    42  Cl    c      2.2367 *    11.1834 *     0.0000    0.0000     8          
    43  Na    c      2.2367 *     0.0000      11.1834 *  0.0000     8          
    44  Na    c     11.1834 *     0.0000      -2.2367 *  0.0000     8          
    45  O     c      4.4734 *     8.9467 *     6.7100 *  0.0000    16          
    46  O     c      0.0000       4.4734 *    11.1834 *  0.0000     8          
    47  Cl    c      2.2367 *    11.1834 *     4.4734 *  0.0000    16          
    48  Na    c      2.2367 *     4.4734 *    11.1834 *  0.0000    16          
    49  Na    c     11.1834 *     4.4734 *    -2.2367 *  0.0000    16          
    50  Na    c      0.0000       8.9467 *     8.9467 *  0.0000     8          
    51  Na    c      8.9467 *     8.9467       0.0000    0.0000     4          
    52  O     c      4.4734 *     4.4734      11.1834 *  0.0000     8          
    53  O     c      8.9467 *     8.9467      -2.2367 *  0.0000     8          
    54  Cl    c      6.7100 *     6.7100       8.9467 *  0.0000     8          
    55  Na    c      6.7100 *     8.9467 *     6.7100 *  0.0000    16          
    56  Cl    c      6.7100 *    11.1834 *     0.0000    0.0000     8          
    57  Na    c      6.7100 *     0.0000      11.1834 *  0.0000     8          
    58  Na    c     11.1834 *     0.0000       6.7100 *  0.0000     8          
    59  Na    c      0.0000      13.4201 *     0.0000    0.0000     4          
    60  Na    c      0.0000       0.0000      13.4201 *  0.0000     2          
    61  Na    c      4.4734 *     8.9467 *     8.9467 *  0.0000    16          
    62  Na    c      8.9467 *     8.9467       4.4734 *  0.0000     8          
    63  O     c      0.0000      13.4201 *    -2.2367 *  0.0000     8          
    64  Na    c      2.2367 *    13.4201 *    -2.2367 *  0.0000    16          
    65  Cl    c      2.2367 *     2.2367      13.4201 *  0.0000     8          
    66  Cl    c      6.7100 *    11.1834 *     4.4734 *  0.0000    16          
    67  Na    c      6.7100 *     4.4734 *    11.1834 *  0.0000    16          
    68  Na    c     11.1834 *     4.4734 *     6.7100 *  0.0000    16          
    69  Na    c      0.0000      13.4201 *     4.4734 *  0.0000     8          
    70  Na    c      4.4734 *    13.4201 *     0.0000    0.0000     8          
    71  Na    c      0.0000       4.4734 *    13.4201 *  0.0000     8          
    72  O     c      4.4734 *    13.4201 *    -2.2367 *  0.0000    16          
    73  O     c      0.0000       8.9467 *    11.1834 *  0.0000     8          
    74  O     c      8.9467 *     8.9467       6.7100 *  0.0000     8          
    75  Na    c      2.2367 *     8.9467 *    11.1834 *  0.0000    16          
    76  Na    c     11.1834 *     8.9467 *    -2.2367 *  0.0000    16          
    77  Cl    c      2.2367 *    11.1834 *     8.9467 *  0.0000    16          
    78  Na    c      4.4734 *    13.4201 *     4.4734 *  0.0000    16          
    79  Na    c      4.4734 *     4.4734      13.4201 *  0.0000     8          
    80  O     c      0.0000      13.4201 *     6.7100 *  0.0000     8          
    81  O     c      4.4734 *     8.9467 *    11.1834 *  0.0000    16          
    82  Na    c      2.2367 *    13.4201 *     6.7100 *  0.0000    16          
    83  Na    c      6.7100 *    13.4201 *    -2.2367 *  0.0000    16          
    84  Cl    c      2.2367 *     6.7100 *    13.4201 *  0.0000    16          
    85  Na    c      8.9467 *     8.9467       8.9467 *  0.0000     8          
    86  O     c      4.4734 *    13.4201 *     6.7100 *  0.0000    16          
    87  O     c      0.0000       0.0000      15.6568 *  0.0000     2          
    88  Cl    c      2.2367 *    15.6568 *     0.0000    0.0000     8          
    89  Na    c     15.6568 *     0.0000      -2.2367 *  0.0000     8          
    90  Na    c      6.7100 *     8.9467 *    11.1834 *  0.0000    16          
    91  Na    c     11.1834 *     8.9467 *     6.7100 *  0.0000    16          
    92  Cl    c      6.7100 *    11.1834 *     8.9467 *  0.0000    16          
    93  Cl    c     11.1834 *    11.1834       0.0000    0.0000     4          
    94  Na    c      2.2367 *     0.0000      15.6568 *  0.0000     8          
    95  Na    c     11.1834 *     0.0000      11.1834 *  0.0000     8          
    96  O     s      0.0000       0.0000      -2.2367 *  0.0000     2          
    97  Cl    s      2.2367 *     2.2367       0.0000    0.0000     4          
    98  O     s      0.0000       4.4734 *    -2.2367 *  0.0000     8          
    99  Cl    s      2.2367 *     2.2367       4.4734 *  0.0000     8          
   100  O     s      0.0000       0.0000       6.7100 *  0.0000     2          
   101  O     s      4.4734 *     4.4734      -2.2367 *  0.0000     8          
   102  Cl    s      2.2367 *     6.7100 *     0.0000    0.0000     8          
   103  O     s      0.0000       4.4734 *     6.7100 *  0.0000     8          
   104  Cl    s      2.2367 *     6.7100 *     4.4734 *  0.0000    16          
   105  O     s      0.0000       8.9467 *    -2.2367 *  0.0000     8          
   106  O     s      4.4734 *     4.4734       6.7100 *  0.0000     8          
   107  Cl    s      2.2367 *     2.2367       8.9467 *  0.0000     8          
   108  Cl    s      6.7100 *     6.7100       0.0000    0.0000     4          
   109  O     s      4.4734 *     8.9467 *    -2.2367 *  0.0000    16          
   110  Cl    s      6.7100 *     6.7100       4.4734 *  0.0000     8          
   111  O     s      0.0000       8.9467 *     6.7100 *  0.0000     8          
   112  O     s      0.0000       0.0000      11.1834 *  0.0000     2          
   113  Cl    s      2.2367 *     6.7100 *     8.9467 *  0.0000    16          
   114  Cl    s      2.2367 *    11.1834 *     0.0000    0.0000     8          
   115  O     s      4.4734 *     8.9467 *     6.7100 *  0.0000    16          
   116  O     s      0.0000       4.4734 *    11.1834 *  0.0000     8          
   117  Cl    s      2.2367 *    11.1834 *     4.4734 *  0.0000    16          
   118  O     s      4.4734 *     4.4734      11.1834 *  0.0000     8          
   119  O     s      8.9467 *     8.9467      -2.2367 *  0.0000     8          
   120  Cl    s      6.7100 *     6.7100       8.9467 *  0.0000     8          
   121  Cl    s      6.7100 *    11.1834 *     0.0000    0.0000     8          
   122  O     s      0.0000      13.4201 *    -2.2367 *  0.0000     8          
   123  Cl    s      2.2367 *     2.2367      13.4201 *  0.0000     8          
   124  Cl    s      6.7100 *    11.1834 *     4.4734 *  0.0000    16          
   125  O     s      4.4734 *    13.4201 *    -2.2367 *  0.0000    16          
   126  O     s      0.0000       8.9467 *    11.1834 *  0.0000     8          
   127  O     s      8.9467 *     8.9467       6.7100 *  0.0000     8          
   128  Cl    s      2.2367 *    11.1834 *     8.9467 *  0.0000    16          
   129  O     s      0.0000      13.4201 *     6.7100 *  0.0000     8          
   130  O     s      4.4734 *     8.9467 *    11.1834 *  0.0000    16          
   131  Cl    s      2.2367 *     6.7100 *    13.4201 *  0.0000    16          
   132  O     s      4.4734 *    13.4201 *     6.7100 *  0.0000    16          
   133  O     s      0.0000       0.0000      15.6568 *  0.0000     2          
   134  Cl    s      2.2367 *    15.6568 *     0.0000    0.0000     8          
   135  Cl    s      6.7100 *    11.1834 *     8.9467 *  0.0000    16          
   136  Cl    s     11.1834 *    11.1834       0.0000    0.0000     4          
--------------------------------------------------------------------------------


  Constraints on symmetry reduced coordinates :

--------------------------------------------------------------------------------
  Constraint no.      Unconstrained     Constrained    Coefficient    
                         Variable         Variable
--------------------------------------------------------------------------------
           1                 2 x             2 y         1.00000
           2                 8 x             8 y         1.00000
           3                10 x            10 y         1.00000
           4                12 x            12 y         1.00000
           5                16 x            16 y         1.00000
           6                24 x            24 y         1.00000
           7                25 x            25 y         1.00000
           8                26 x            26 y         1.00000
           9                33 x            33 y         1.00000
          10                36 x            36 y         1.00000
          11                51 x            51 y         1.00000
          12                52 x            52 y         1.00000
          13                53 x            53 y         1.00000
          14                54 x            54 y         1.00000
          15                62 x            62 y         1.00000
          16                65 x            65 y         1.00000
          17                74 x            74 y         1.00000
          18                79 x            79 y         1.00000
          19                85 x            85 y         1.00000
          20                93 x            93 y         1.00000
          21                97 x            97 y         1.00000
          22                99 x            99 y         1.00000
          23               101 x           101 y         1.00000
          24               106 x           106 y         1.00000
          25               107 x           107 y         1.00000
          26               108 x           108 y         1.00000
          27               110 x           110 y         1.00000
          28               118 x           118 y         1.00000
          29               119 x           119 y         1.00000
          30               120 x           120 y         1.00000
          31               123 x           123 y         1.00000
          32               127 x           127 y         1.00000
          33               136 x           136 y         1.00000
--------------------------------------------------------------------------------


  Components of defect energy : 

--------------------------------------------------------------------------------
  Region 1 - region 1                   =     16.66378874 eV
  Region 1 - region 2a (unrelaxed)      =     -8.39226078 eV
  Region 1 - 2a (relaxed - correction)  =     -0.27940475 eV
  Region 1 (Total)                      =      7.99212321 eV
  Region 2a                             =      0.13968262 eV
  Region 2b                             =     -0.28057235 eV
--------------------------------------------------------------------------------
  Total defect energy                   =      7.85123349 eV
--------------------------------------------------------------------------------

  Largest displacement in region 2 =   0.0097 Angstroms


  Number of variables =      296

  Maximum number of calculations  =        1000
  Maximum Hessian update interval =          10
  Maximum step size               =   1.0000000
  Maximum parameter tolerance     =   0.0000100
  Maximum function  tolerance     =   0.0000100
  Maximum gradient  tolerance     =   0.0010000

  Symmetry adapted optimisation

  Symmetry to be used for second derivatives

  Newton-Raphson optimiser to be used

  BFGS hessian update to be used

  Lower half triangular hessian to be used

  Start of defect optimisation :

  Cycle:      0 Defect Energy:   7.851233  Gnorm:     0.135193  CPU:   10.135
  ** Hessian calculated **
  Cycle:      1 Defect Energy:   5.618833  Gnorm:     0.075912  CPU:   17.354
  Cycle:      2 Defect Energy:   4.900584  Gnorm:     0.029148  CPU:   22.559
  ** Hessian calculated **
  Cycle:      3 Defect Energy:   4.570882  Gnorm:     0.008389  CPU:   29.134
  Cycle:      4 Defect Energy:   4.526989  Gnorm:     0.005955  CPU:   30.221
  Cycle:      5 Defect Energy:   4.483230  Gnorm:     0.005876  CPU:   31.381
  Cycle:      6 Defect Energy:   4.420758  Gnorm:     0.006846  CPU:   32.432
  Cycle:      7 Defect Energy:   4.337029  Gnorm:     0.010509  CPU:   33.474
  Cycle:      8 Defect Energy:   4.287586  Gnorm:     0.011623  CPU:   34.564
  Cycle:      9 Defect Energy:   4.268616  Gnorm:     0.009060  CPU:   35.681
  Cycle:     10 Defect Energy:   4.249668  Gnorm:     0.007036  CPU:   36.799
  Cycle:     11 Defect Energy:   4.233554  Gnorm:     0.004991  CPU:   39.592
  Cycle:     12 Defect Energy:   4.223042  Gnorm:     0.003608  CPU:   42.402
  ** Hessian calculated **
  Cycle:     13 Defect Energy:   4.221113  Gnorm:     0.001758  CPU:   45.454
  Cycle:     14 Defect Energy:   4.220059  Gnorm:     0.001350  CPU:   46.774
  Cycle:     15 Defect Energy:   4.219156  Gnorm:     0.001032  CPU:   48.206
  Cycle:     16 Defect Energy:   4.218427  Gnorm:     0.000969  CPU:   49.413
  Cycle:     17 Defect Energy:   4.217779  Gnorm:     0.000959  CPU:   50.617
  Cycle:     18 Defect Energy:   4.217281  Gnorm:     0.001022  CPU:   51.824
  Cycle:     19 Defect Energy:   4.216786  Gnorm:     0.001093  CPU:   53.143
  Cycle:     20 Defect Energy:   4.216339  Gnorm:     0.001149  CPU:   54.341
  Cycle:     21 Defect Energy:   4.215852  Gnorm:     0.001177  CPU:   55.508
  Cycle:     22 Defect Energy:   4.215461  Gnorm:     0.001179  CPU:   56.644
  ** Hessian calculated **
  Cycle:     23 Defect Energy:   4.214881  Gnorm:     0.001167  CPU:   59.395
  Cycle:     24 Defect Energy:   4.214035  Gnorm:     0.001154  CPU:   60.527
  Cycle:     25 Defect Energy:   4.212819  Gnorm:     0.001144  CPU:   61.664
  Cycle:     26 Defect Energy:   4.211045  Gnorm:     0.001148  CPU:   62.866
  Cycle:     27 Defect Energy:   4.208415  Gnorm:     0.001212  CPU:   63.950
  Cycle:     28 Defect Energy:   4.204718  Gnorm:     0.001460  CPU:   64.961
  Cycle:     29 Defect Energy:   4.202350  Gnorm:     0.001224  CPU:   65.538
  Cycle:     30 Defect Energy:   4.201513  Gnorm:     0.000838  CPU:   66.186
  Cycle:     31 Defect Energy:   4.201179  Gnorm:     0.000693  CPU:   66.877
  Cycle:     32 Defect Energy:   4.200994  Gnorm:     0.000473  CPU:   67.513
  ** Hessian calculated **
  Cycle:     33 Defect Energy:   4.200922  Gnorm:     0.000332  CPU:   68.974
  Cycle:     34 Defect Energy:   4.200895  Gnorm:     0.000233  CPU:   69.612
  Cycle:     35 Defect Energy:   4.200887  Gnorm:     0.000163  CPU:   70.160
  Cycle:     36 Defect Energy:   4.200888  Gnorm:     0.000114  CPU:   70.791


  **** Optimisation achieved ****


  Final defect energy  =        4.20089091
  Final defect Gnorm   =        0.00008018

  Components of defect energy : 

--------------------------------------------------------------------------------
  Region 1 - region 1                   =     13.09908481 eV
  Region 1 - region 2a (unrelaxed)      =     -8.49857138 eV
  Region 1 - 2a (relaxed - correction)  =     -0.23812623 eV
  Region 1 (Total)                      =      4.36238719 eV
  Region 2a                             =      0.11907606 eV
  Region 2b                             =     -0.28057235 eV
--------------------------------------------------------------------------------
  Total defect energy                   =      4.20089091 eV
--------------------------------------------------------------------------------

  Largest displacement in region 2 =   0.0097 Angstroms

  Final coordinates of region 1 :

--------------------------------------------------------------------------------
   No.  Atomic        x           y           z          Radius      Charge
        Label       (Angs)      (Angs)      (Angs)       (Angs)       (e) 
--------------------------------------------------------------------------------
     1  O     c     2.236680    2.236680   -2.337316    0.000000    0.183000
     2  O     c     2.236680    2.236680    2.337316    0.000000    0.183000
     3  Cl    c     4.583642    4.583642    0.000000    0.000000    1.485000
     4  Cl    c     4.583642   -0.110281    0.000000    0.000000    1.485000
     5  Cl    c    -0.110281    4.583642    0.000000    0.000000    1.485000
     6  Cl    c    -0.110281   -0.110281    0.000000    0.000000    1.485000
     7  Na    c     4.373422    2.236680   -1.870154    0.000000    1.000000
     8  Na    c     4.373422    2.236680    1.870154    0.000000    1.000000
     9  Na    c     0.099939    2.236680   -1.870154    0.000000    1.000000
    10  Na    c     0.099939    2.236680    1.870154    0.000000    1.000000
    11  Na    c     2.236680    4.373422   -1.870154    0.000000    1.000000
    12  Na    c     2.236680    4.373422    1.870154    0.000000    1.000000
    13  Na    c     2.236680    0.099939   -1.870154    0.000000    1.000000
    14  Na    c     2.236680    0.099939    1.870154    0.000000    1.000000
    15  Na    c     2.236680    2.236680    4.475012    0.000000    1.000000
    16  Na    c     2.236680    2.236680   -4.475012    0.000000    1.000000
    17  Na    c     2.236680    6.995668    0.000000    0.000000    1.000000
    18  Na    c     2.236680   -2.522307    0.000000    0.000000    1.000000
    19  Na    c     6.995668    2.236680    0.000000    0.000000    1.000000
    20  Na    c    -2.522307    2.236680    0.000000    0.000000    1.000000
    21  O     c     2.236680    6.686545   -2.216993    0.000000    0.183000
    22  O     c     2.236680    6.686545    2.216993    0.000000    0.183000
    23  O     c     2.236680   -2.213184   -2.216993    0.000000    0.183000
    24  O     c     2.236680   -2.213184    2.216993    0.000000    0.183000
    25  O     c     6.686545    2.236680   -2.216993    0.000000    0.183000
    26  O     c     6.686545    2.236680    2.216993    0.000000    0.183000
    27  O     c    -2.213184    2.236680   -2.216993    0.000000    0.183000
    28  O     c    -2.213184    2.236680    2.216993    0.000000    0.183000
    29  Na    c     4.467877    6.678919   -2.178450    0.000000    1.000000
    30  Na    c     4.467877    6.678919    2.178450    0.000000    1.000000
    31  Na    c     4.467877   -2.205558   -2.178450    0.000000    1.000000
    32  Na    c     4.467877   -2.205558    2.178450    0.000000    1.000000
    33  Na    c     0.005484    6.678919   -2.178450    0.000000    1.000000
    34  Na    c     0.005484    6.678919    2.178450    0.000000    1.000000
    35  Na    c     0.005484   -2.205558   -2.178450    0.000000    1.000000
    36  Na    c     0.005484   -2.205558    2.178450    0.000000    1.000000
    37  Na    c     6.678919    4.467877   -2.178450    0.000000    1.000000
    38  Na    c     6.678919    4.467877    2.178450    0.000000    1.000000
    39  Na    c     6.678919    0.005484   -2.178450    0.000000    1.000000
    40  Na    c     6.678919    0.005484    2.178450    0.000000    1.000000
    41  Na    c    -2.205558    4.467877   -2.178450    0.000000    1.000000
    42  Na    c    -2.205558    4.467877    2.178450    0.000000    1.000000
    43  Na    c    -2.205558    0.005484   -2.178450    0.000000    1.000000
    44  Na    c    -2.205558    0.005484    2.178450    0.000000    1.000000
    45  Cl    c     4.541077    4.541077    4.577756    0.000000    1.485000
    46  Cl    c     4.541077    4.541077   -4.577756    0.000000    1.485000
    47  Cl    c     4.541077   -0.067716    4.577756    0.000000    1.485000
    48  Cl    c     4.541077   -0.067716   -4.577756    0.000000    1.485000
    49  Cl    c    -0.067716    4.541077    4.577756    0.000000    1.485000
    50  Cl    c    -0.067716    4.541077   -4.577756    0.000000    1.485000
    51  Cl    c    -0.067716   -0.067716    4.577756    0.000000    1.485000
    52  Cl    c    -0.067716   -0.067716   -4.577756    0.000000    1.485000
    53  Na    c     2.236680    6.360511    4.435796    0.000000    1.000000
    54  Na    c     2.236680    6.360511   -4.435796    0.000000    1.000000
    55  Na    c     2.236680   -1.887150    4.435796    0.000000    1.000000
    56  Na    c     2.236680   -1.887150   -4.435796    0.000000    1.000000
    57  Na    c     6.360511    2.236680    4.435796    0.000000    1.000000
    58  Na    c     6.360511    2.236680   -4.435796    0.000000    1.000000
    59  Na    c    -1.887150    2.236680    4.435796    0.000000    1.000000
    60  Na    c    -1.887150    2.236680   -4.435796    0.000000    1.000000
    61  Na    c     6.775652    6.775652    0.000000    0.000000    1.000000
    62  Na    c     6.775652   -2.302291    0.000000    0.000000    1.000000
    63  Na    c    -2.302291    6.775652    0.000000    0.000000    1.000000
    64  Na    c    -2.302291   -2.302291    0.000000    0.000000    1.000000
    65  O     c     2.236680    2.236680    6.769525    0.000000    0.183000
    66  O     c     2.236680    2.236680   -6.769525    0.000000    0.183000
    67  O     c     6.715218    6.715218   -2.251788    0.000000    0.183000
    68  O     c     6.715218    6.715218    2.251788    0.000000    0.183000
    69  O     c     6.715218   -2.241857   -2.251788    0.000000    0.183000
    70  O     c     6.715218   -2.241857    2.251788    0.000000    0.183000
    71  O     c    -2.241857    6.715218   -2.251788    0.000000    0.183000
    72  O     c    -2.241857    6.715218    2.251788    0.000000    0.183000
    73  O     c    -2.241857   -2.241857   -2.251788    0.000000    0.183000
    74  O     c    -2.241857   -2.241857    2.251788    0.000000    0.183000
    75  Cl    c     4.496196    8.959055    0.000000    0.000000    1.485000
    76  Cl    c     4.496196   -4.485694    0.000000    0.000000    1.485000
    77  Cl    c     8.959055    4.496196    0.000000    0.000000    1.485000
    78  Cl    c     8.959055   -0.022835    0.000000    0.000000    1.485000
    79  Cl    c    -0.022835    8.959055    0.000000    0.000000    1.485000
    80  Cl    c    -0.022835   -4.485694    0.000000    0.000000    1.485000
    81  Cl    c    -4.485694    4.496196    0.000000    0.000000    1.485000
    82  Cl    c    -4.485694   -0.022835    0.000000    0.000000    1.485000
    83  Na    c     4.467212    2.236680    6.819566    0.000000    1.000000
    84  Na    c     4.467212    2.236680   -6.819566    0.000000    1.000000
    85  Na    c     0.006149    2.236680    6.819566    0.000000    1.000000
    86  Na    c     0.006149    2.236680   -6.819566    0.000000    1.000000
    87  Na    c     2.236680    4.467212    6.819566    0.000000    1.000000
    88  Na    c     2.236680    4.467212   -6.819566    0.000000    1.000000
    89  Na    c     2.236680    0.006149    6.819566    0.000000    1.000000
    90  Na    c     2.236680    0.006149   -6.819566    0.000000    1.000000
    91  Na    c     8.921972    2.236680   -2.549849    0.000000    1.000000
    92  Na    c     8.921972    2.236680    2.549849    0.000000    1.000000
    93  Na    c    -4.448611    2.236680   -2.549849    0.000000    1.000000
    94  Na    c    -4.448611    2.236680    2.549849    0.000000    1.000000
    95  Na    c     2.236680    8.921972   -2.549849    0.000000    1.000000
    96  Na    c     2.236680    8.921972    2.549849    0.000000    1.000000
    97  Na    c     2.236680   -4.448611   -2.549849    0.000000    1.000000
    98  Na    c     2.236680   -4.448611    2.549849    0.000000    1.000000
    99  Na    c     6.626371    6.626371    4.476864    0.000000    1.000000
   100  Na    c     6.626371    6.626371   -4.476864    0.000000    1.000000
   101  Na    c     6.626371   -2.153011    4.476864    0.000000    1.000000
   102  Na    c     6.626371   -2.153011   -4.476864    0.000000    1.000000
   103  Na    c    -2.153011    6.626371    4.476864    0.000000    1.000000
   104  Na    c    -2.153011    6.626371   -4.476864    0.000000    1.000000
   105  Na    c    -2.153011   -2.153011    4.476864    0.000000    1.000000
   106  Na    c    -2.153011   -2.153011   -4.476864    0.000000    1.000000
   107  O     c     2.236680    6.702956    6.689706    0.000000    0.183000
   108  O     c     2.236680    6.702956   -6.689706    0.000000    0.183000
   109  O     c     2.236680   -2.229595    6.689706    0.000000    0.183000
   110  O     c     2.236680   -2.229595   -6.689706    0.000000    0.183000
   111  O     c     6.702956    2.236680    6.689706    0.000000    0.183000
   112  O     c     6.702956    2.236680   -6.689706    0.000000    0.183000
   113  O     c    -2.229595    2.236680    6.689706    0.000000    0.183000
   114  O     c    -2.229595    2.236680   -6.689706    0.000000    0.183000
   115  Cl    c     4.502606    8.975939    4.475417    0.000000    1.485000
   116  Cl    c     4.502606    8.975939   -4.475417    0.000000    1.485000
   117  Cl    c     4.502606   -4.502578    4.475417    0.000000    1.485000
   118  Cl    c     4.502606   -4.502578   -4.475417    0.000000    1.485000
   119  Cl    c     8.975939    4.502606    4.475417    0.000000    1.485000
   120  Cl    c     8.975939    4.502606   -4.475417    0.000000    1.485000
   121  Cl    c     8.975939   -0.029245    4.475417    0.000000    1.485000
   122  Cl    c     8.975939   -0.029245   -4.475417    0.000000    1.485000
   123  Cl    c    -0.029245    8.975939    4.475417    0.000000    1.485000
   124  Cl    c    -0.029245    8.975939   -4.475417    0.000000    1.485000
   125  Cl    c    -0.029245   -4.502578    4.475417    0.000000    1.485000
   126  Cl    c    -0.029245   -4.502578   -4.475417    0.000000    1.485000
   127  Cl    c    -4.502578    4.502606    4.475417    0.000000    1.485000
   128  Cl    c    -4.502578    4.502606   -4.475417    0.000000    1.485000
   129  Cl    c    -4.502578   -0.029245    4.475417    0.000000    1.485000
   130  Cl    c    -4.502578   -0.029245   -4.475417    0.000000    1.485000
   131  Na    c     4.473219    6.702673    6.710745    0.000000    1.000000
   132  Na    c     4.473219    6.702673   -6.710745    0.000000    1.000000
   133  Na    c     4.473219   -2.229312    6.710745    0.000000    1.000000
   134  Na    c     4.473219   -2.229312   -6.710745    0.000000    1.000000
   135  Na    c     0.000142    6.702673    6.710745    0.000000    1.000000
   136  Na    c     0.000142    6.702673   -6.710745    0.000000    1.000000
   137  Na    c     0.000142   -2.229312    6.710745    0.000000    1.000000
   138  Na    c     0.000142   -2.229312   -6.710745    0.000000    1.000000
   139  Na    c     6.702673    4.473219    6.710745    0.000000    1.000000
   140  Na    c     6.702673    4.473219   -6.710745    0.000000    1.000000
   141  Na    c     6.702673    0.000142    6.710745    0.000000    1.000000
   142  Na    c     6.702673    0.000142   -6.710745    0.000000    1.000000
   143  Na    c    -2.229312    4.473219    6.710745    0.000000    1.000000
   144  Na    c    -2.229312    4.473219   -6.710745    0.000000    1.000000
   145  Na    c    -2.229312    0.000142    6.710745    0.000000    1.000000
   146  Na    c    -2.229312    0.000142   -6.710745    0.000000    1.000000
   147  Na    c     8.941039    6.700900   -2.338397    0.000000    1.000000
   148  Na    c     8.941039    6.700900    2.338397    0.000000    1.000000
   149  Na    c     8.941039   -2.227539   -2.338397    0.000000    1.000000
   150  Na    c     8.941039   -2.227539    2.338397    0.000000    1.000000
   151  Na    c    -4.467678    6.700900   -2.338397    0.000000    1.000000
   152  Na    c    -4.467678    6.700900    2.338397    0.000000    1.000000
   153  Na    c    -4.467678   -2.227539   -2.338397    0.000000    1.000000
   154  Na    c    -4.467678   -2.227539    2.338397    0.000000    1.000000
   155  Na    c     6.700900    8.941039   -2.338397    0.000000    1.000000
   156  Na    c     6.700900    8.941039    2.338397    0.000000    1.000000
   157  Na    c     6.700900   -4.467678   -2.338397    0.000000    1.000000
   158  Na    c     6.700900   -4.467678    2.338397    0.000000    1.000000
   159  Na    c    -2.227539    8.941039   -2.338397    0.000000    1.000000
   160  Na    c    -2.227539    8.941039    2.338397    0.000000    1.000000
   161  Na    c    -2.227539   -4.467678   -2.338397    0.000000    1.000000
   162  Na    c    -2.227539   -4.467678    2.338397    0.000000    1.000000
   163  Na    c     2.236680    2.236680    8.979574    0.000000    1.000000
   164  Na    c     2.236680    2.236680   -8.979574    0.000000    1.000000
   165  Na    c     2.236680   10.863661    0.000000    0.000000    1.000000
   166  Na    c     2.236680   -6.390300    0.000000    0.000000    1.000000
   167  Na    c    10.863661    2.236680    0.000000    0.000000    1.000000
   168  Na    c    -6.390300    2.236680    0.000000    0.000000    1.000000
   169  O     c     2.236680   11.165867   -2.233461    0.000000    0.183000
   170  O     c     2.236680   11.165867    2.233461    0.000000    0.183000
   171  O     c     2.236680   -6.692506   -2.233461    0.000000    0.183000
   172  O     c     2.236680   -6.692506    2.233461    0.000000    0.183000
   173  O     c    11.165867    2.236680   -2.233461    0.000000    0.183000
   174  O     c    11.165867    2.236680    2.233461    0.000000    0.183000
   175  O     c    -6.692506    2.236680   -2.233461    0.000000    0.183000
   176  O     c    -6.692506    2.236680    2.233461    0.000000    0.183000
   177  O     c     6.723137    6.723137    6.710868    0.000000    0.183000
   178  O     c     6.723137    6.723137   -6.710868    0.000000    0.183000
   179  O     c     6.723137   -2.249776    6.710868    0.000000    0.183000
   180  O     c     6.723137   -2.249776   -6.710868    0.000000    0.183000
   181  O     c    -2.249776    6.723137    6.710868    0.000000    0.183000
   182  O     c    -2.249776    6.723137   -6.710868    0.000000    0.183000
   183  O     c    -2.249776   -2.249776    6.710868    0.000000    0.183000
   184  O     c    -2.249776   -2.249776   -6.710868    0.000000    0.183000
   185  Cl    c     4.467477    4.467477    8.972947    0.000000    1.485000
   186  Cl    c     4.467477    4.467477   -8.972947    0.000000    1.485000
   187  Cl    c     4.467477    0.005884    8.972947    0.000000    1.485000
   188  Cl    c     4.467477    0.005884   -8.972947    0.000000    1.485000
   189  Cl    c     0.005884    4.467477    8.972947    0.000000    1.485000
   190  Cl    c     0.005884    4.467477   -8.972947    0.000000    1.485000
   191  Cl    c     0.005884    0.005884    8.972947    0.000000    1.485000
   192  Cl    c     0.005884    0.005884   -8.972947    0.000000    1.485000
   193  Cl    c     8.965922    8.965922    0.000000    0.000000    1.485000
   194  Cl    c     8.965922   -4.492561    0.000000    0.000000    1.485000
   195  Cl    c    -4.492561    8.965922    0.000000    0.000000    1.485000
   196  Cl    c    -4.492561   -4.492561    0.000000    0.000000    1.485000
   197  Na    c     4.470965   11.161157   -2.208866    0.000000    1.000000
   198  Na    c     4.470965   11.161157    2.208866    0.000000    1.000000
   199  Na    c     4.470965   -6.687796   -2.208866    0.000000    1.000000
   200  Na    c     4.470965   -6.687796    2.208866    0.000000    1.000000
   201  Na    c     0.002396   11.161157   -2.208866    0.000000    1.000000
   202  Na    c     0.002396   11.161157    2.208866    0.000000    1.000000
   203  Na    c     0.002396   -6.687796   -2.208866    0.000000    1.000000
   204  Na    c     0.002396   -6.687796    2.208866    0.000000    1.000000
   205  Na    c    11.161157    4.470965   -2.208866    0.000000    1.000000
   206  Na    c    11.161157    4.470965    2.208866    0.000000    1.000000
   207  Na    c    11.161157    0.002396   -2.208866    0.000000    1.000000
   208  Na    c    11.161157    0.002396    2.208866    0.000000    1.000000
   209  Na    c    -6.687796    4.470965   -2.208866    0.000000    1.000000
   210  Na    c    -6.687796    4.470965    2.208866    0.000000    1.000000
   211  Na    c    -6.687796    0.002396   -2.208866    0.000000    1.000000
   212  Na    c    -6.687796    0.002396    2.208866    0.000000    1.000000
   213  Na    c     8.928913    2.236680    6.440038    0.000000    1.000000
   214  Na    c     8.928913    2.236680   -6.440038    0.000000    1.000000
   215  Na    c    -4.455552    2.236680    6.440038    0.000000    1.000000
   216  Na    c    -4.455552    2.236680   -6.440038    0.000000    1.000000
   217  Na    c     2.236680    8.928913    6.440038    0.000000    1.000000
   218  Na    c     2.236680    8.928913   -6.440038    0.000000    1.000000
   219  Na    c     2.236680   -4.455552    6.440038    0.000000    1.000000
   220  Na    c     2.236680   -4.455552   -6.440038    0.000000    1.000000
   221  Na    c     2.236680    6.853501    8.926045    0.000000    1.000000
   222  Na    c     2.236680    6.853501   -8.926045    0.000000    1.000000
   223  Na    c     2.236680   -2.380141    8.926045    0.000000    1.000000
   224  Na    c     2.236680   -2.380141   -8.926045    0.000000    1.000000
   225  Na    c     6.853501    2.236680    8.926045    0.000000    1.000000
   226  Na    c     6.853501    2.236680   -8.926045    0.000000    1.000000
   227  Na    c    -2.380141    2.236680    8.926045    0.000000    1.000000
   228  Na    c    -2.380141    2.236680   -8.926045    0.000000    1.000000
   229  Na    c     2.236680   11.441275    4.459779    0.000000    1.000000
   230  Na    c     2.236680   11.441275   -4.459779    0.000000    1.000000
   231  Na    c     2.236680   -6.967914    4.459779    0.000000    1.000000
   232  Na    c     2.236680   -6.967914   -4.459779    0.000000    1.000000
   233  Na    c    11.441275    2.236680    4.459779    0.000000    1.000000
   234  Na    c    11.441275    2.236680   -4.459779    0.000000    1.000000
   235  Na    c    -6.967914    2.236680    4.459779    0.000000    1.000000
   236  Na    c    -6.967914    2.236680   -4.459779    0.000000    1.000000
   237  Na    c     6.742879   11.062749    0.000000    0.000000    1.000000
   238  Na    c     6.742879   -6.589388    0.000000    0.000000    1.000000
   239  Na    c    11.062749    6.742879    0.000000    0.000000    1.000000
   240  Na    c    11.062749   -2.269518    0.000000    0.000000    1.000000
   241  Na    c    -2.269518   11.062749    0.000000    0.000000    1.000000
   242  Na    c    -2.269518   -6.589388    0.000000    0.000000    1.000000
   243  Na    c    -6.589388    6.742879    0.000000    0.000000    1.000000
   244  Na    c    -6.589388   -2.269518    0.000000    0.000000    1.000000
   245  O     c     6.712324   11.182102   -2.235793    0.000000    0.183000
   246  O     c     6.712324   11.182102    2.235793    0.000000    0.183000
   247  O     c     6.712324   -6.708741   -2.235793    0.000000    0.183000
   248  O     c     6.712324   -6.708741    2.235793    0.000000    0.183000
   249  O     c    11.182102    6.712324   -2.235793    0.000000    0.183000
   250  O     c    11.182102    6.712324    2.235793    0.000000    0.183000
   251  O     c    11.182102   -2.238963   -2.235793    0.000000    0.183000
   252  O     c    11.182102   -2.238963    2.235793    0.000000    0.183000
   253  O     c    -2.238963   11.182102   -2.235793    0.000000    0.183000
   254  O     c    -2.238963   11.182102    2.235793    0.000000    0.183000
   255  O     c    -2.238963   -6.708741   -2.235793    0.000000    0.183000
   256  O     c    -2.238963   -6.708741    2.235793    0.000000    0.183000
   257  O     c    -6.708741    6.712324   -2.235793    0.000000    0.183000
   258  O     c    -6.708741    6.712324    2.235793    0.000000    0.183000
   259  O     c    -6.708741   -2.238963   -2.235793    0.000000    0.183000
   260  O     c    -6.708741   -2.238963    2.235793    0.000000    0.183000
   261  Cl    c     8.966203    8.966203    4.480155    0.000000    1.485000
   262  Cl    c     8.966203    8.966203   -4.480155    0.000000    1.485000
   263  Cl    c     8.966203   -4.492842    4.480155    0.000000    1.485000
   264  Cl    c     8.966203   -4.492842   -4.480155    0.000000    1.485000
   265  Cl    c    -4.492842    8.966203    4.480155    0.000000    1.485000
   266  Cl    c    -4.492842    8.966203   -4.480155    0.000000    1.485000
   267  Cl    c    -4.492842   -4.492842    4.480155    0.000000    1.485000
   268  Cl    c    -4.492842   -4.492842   -4.480155    0.000000    1.485000
   269  Na    c     8.951276    6.720017    6.632683    0.000000    1.000000
   270  Na    c     8.951276    6.720017   -6.632683    0.000000    1.000000
   271  Na    c     8.951276   -2.246656    6.632683    0.000000    1.000000
   272  Na    c     8.951276   -2.246656   -6.632683    0.000000    1.000000
   273  Na    c    -4.477915    6.720017    6.632683    0.000000    1.000000
   274  Na    c    -4.477915    6.720017   -6.632683    0.000000    1.000000
   275  Na    c    -4.477915   -2.246656    6.632683    0.000000    1.000000
   276  Na    c    -4.477915   -2.246656   -6.632683    0.000000    1.000000
   277  Na    c     6.720017    8.951276    6.632683    0.000000    1.000000
   278  Na    c     6.720017    8.951276   -6.632683    0.000000    1.000000
   279  Na    c     6.720017   -4.477915    6.632683    0.000000    1.000000
   280  Na    c     6.720017   -4.477915   -6.632683    0.000000    1.000000
   281  Na    c    -2.246656    8.951276    6.632683    0.000000    1.000000
   282  Na    c    -2.246656    8.951276   -6.632683    0.000000    1.000000
   283  Na    c    -2.246656   -4.477915    6.632683    0.000000    1.000000
   284  Na    c    -2.246656   -4.477915   -6.632683    0.000000    1.000000
   285  Na    c     6.682372   11.273366    4.469931    0.000000    1.000000
   286  Na    c     6.682372   11.273366   -4.469931    0.000000    1.000000
   287  Na    c     6.682372   -6.800005    4.469931    0.000000    1.000000
   288  Na    c     6.682372   -6.800005   -4.469931    0.000000    1.000000
   289  Na    c    11.273366    6.682372    4.469931    0.000000    1.000000
   290  Na    c    11.273366    6.682372   -4.469931    0.000000    1.000000
   291  Na    c    11.273366   -2.209011    4.469931    0.000000    1.000000
   292  Na    c    11.273366   -2.209011   -4.469931    0.000000    1.000000
   293  Na    c    -2.209011   11.273366    4.469931    0.000000    1.000000
   294  Na    c    -2.209011   11.273366   -4.469931    0.000000    1.000000
   295  Na    c    -2.209011   -6.800005    4.469931    0.000000    1.000000
   296  Na    c    -2.209011   -6.800005   -4.469931    0.000000    1.000000
   297  Na    c    -6.800005    6.682372    4.469931    0.000000    1.000000
   298  Na    c    -6.800005    6.682372   -4.469931    0.000000    1.000000
   299  Na    c    -6.800005   -2.209011    4.469931    0.000000    1.000000
   300  Na    c    -6.800005   -2.209011   -4.469931    0.000000    1.000000
   301  Na    c     6.760818    6.760818    8.935599    0.000000    1.000000
   302  Na    c     6.760818    6.760818   -8.935599    0.000000    1.000000
   303  Na    c     6.760818   -2.287457    8.935599    0.000000    1.000000
   304  Na    c     6.760818   -2.287457   -8.935599    0.000000    1.000000
   305  Na    c    -2.287457    6.760818    8.935599    0.000000    1.000000
   306  Na    c    -2.287457    6.760818   -8.935599    0.000000    1.000000
   307  Na    c    -2.287457   -2.287457    8.935599    0.000000    1.000000
   308  Na    c    -2.287457   -2.287457   -8.935599    0.000000    1.000000
   309  O     c     2.236680   11.177449    6.693830    0.000000    0.183000
   310  O     c     2.236680   11.177449   -6.693830    0.000000    0.183000
   311  O     c     2.236680   -6.704089    6.693830    0.000000    0.183000
   312  O     c     2.236680   -6.704089   -6.693830    0.000000    0.183000
   313  O     c    11.177449    2.236680    6.693830    0.000000    0.183000
   314  O     c    11.177449    2.236680   -6.693830    0.000000    0.183000
   315  O     c    -6.704089    2.236680    6.693830    0.000000    0.183000
   316  O     c    -6.704089    2.236680   -6.693830    0.000000    0.183000
   317  O     c     2.236680    2.236680   11.183177    0.000000    0.183000
   318  O     c     2.236680    2.236680  -11.183177    0.000000    0.183000
   319  Cl    c     4.483772    8.951944    8.964958    0.000000    1.485000
   320  Cl    c     4.483772    8.951944   -8.964958    0.000000    1.485000
   321  Cl    c     4.483772   -4.478583    8.964958    0.000000    1.485000
   322  Cl    c     4.483772   -4.478583   -8.964958    0.000000    1.485000
   323  Cl    c     8.951944    4.483772    8.964958    0.000000    1.485000
   324  Cl    c     8.951944    4.483772   -8.964958    0.000000    1.485000
   325  Cl    c     8.951944   -0.010411    8.964958    0.000000    1.485000
   326  Cl    c     8.951944   -0.010411   -8.964958    0.000000    1.485000
   327  Cl    c    -0.010411    8.951944    8.964958    0.000000    1.485000
   328  Cl    c    -0.010411    8.951944   -8.964958    0.000000    1.485000
   329  Cl    c    -0.010411   -4.478583    8.964958    0.000000    1.485000
   330  Cl    c    -0.010411   -4.478583   -8.964958    0.000000    1.485000
   331  Cl    c    -4.478583    4.483772    8.964958    0.000000    1.485000
   332  Cl    c    -4.478583    4.483772   -8.964958    0.000000    1.485000
   333  Cl    c    -4.478583   -0.010411    8.964958    0.000000    1.485000
   334  Cl    c    -4.478583   -0.010411   -8.964958    0.000000    1.485000
   335  Na    c     4.469231   11.151279    6.707728    0.000000    1.000000
   336  Na    c     4.469231   11.151279   -6.707728    0.000000    1.000000
   337  Na    c     4.469231   -6.677918    6.707728    0.000000    1.000000
   338  Na    c     4.469231   -6.677918   -6.707728    0.000000    1.000000
   339  Na    c     0.004130   11.151279    6.707728    0.000000    1.000000
   340  Na    c     0.004130   11.151279   -6.707728    0.000000    1.000000
   341  Na    c     0.004130   -6.677918    6.707728    0.000000    1.000000
   342  Na    c     0.004130   -6.677918   -6.707728    0.000000    1.000000
   343  Na    c    11.151279    4.469231    6.707728    0.000000    1.000000
   344  Na    c    11.151279    4.469231   -6.707728    0.000000    1.000000
   345  Na    c    11.151279    0.004130    6.707728    0.000000    1.000000
   346  Na    c    11.151279    0.004130   -6.707728    0.000000    1.000000
   347  Na    c    -6.677918    4.469231    6.707728    0.000000    1.000000
   348  Na    c    -6.677918    4.469231   -6.707728    0.000000    1.000000
   349  Na    c    -6.677918    0.004130    6.707728    0.000000    1.000000
   350  Na    c    -6.677918    0.004130   -6.707728    0.000000    1.000000
   351  Na    c     8.946196   11.175851   -2.262161    0.000000    1.000000
   352  Na    c     8.946196   11.175851    2.262161    0.000000    1.000000
   353  Na    c     8.946196   -6.702490   -2.262161    0.000000    1.000000
   354  Na    c     8.946196   -6.702490    2.262161    0.000000    1.000000
   355  Na    c    -4.472835   11.175851   -2.262161    0.000000    1.000000
   356  Na    c    -4.472835   11.175851    2.262161    0.000000    1.000000
   357  Na    c    -4.472835   -6.702490   -2.262161    0.000000    1.000000
   358  Na    c    -4.472835   -6.702490    2.262161    0.000000    1.000000
   359  Na    c    11.175851    8.946196   -2.262161    0.000000    1.000000
   360  Na    c    11.175851    8.946196    2.262161    0.000000    1.000000
   361  Na    c    11.175851   -4.472835   -2.262161    0.000000    1.000000
   362  Na    c    11.175851   -4.472835    2.262161    0.000000    1.000000
   363  Na    c    -6.702490    8.946196   -2.262161    0.000000    1.000000
   364  Na    c    -6.702490    8.946196    2.262161    0.000000    1.000000
   365  Na    c    -6.702490   -4.472835   -2.262161    0.000000    1.000000
   366  Na    c    -6.702490   -4.472835    2.262161    0.000000    1.000000
   367  Cl    c     4.486295   13.434923    0.000000    0.000000    1.485000
   368  Cl    c     4.486295   -8.961562    0.000000    0.000000    1.485000
   369  Cl    c    13.434923    4.486295    0.000000    0.000000    1.485000
   370  Cl    c    13.434923   -0.012934    0.000000    0.000000    1.485000
   371  Cl    c    -0.012934   13.434923    0.000000    0.000000    1.485000
   372  Cl    c    -0.012934   -8.961562    0.000000    0.000000    1.485000
   373  Cl    c    -8.961562    4.486295    0.000000    0.000000    1.485000
   374  Cl    c    -8.961562   -0.012934    0.000000    0.000000    1.485000
   375  Na    c     4.483404    2.236680   11.134803    0.000000    1.000000
   376  Na    c     4.483404    2.236680  -11.134803    0.000000    1.000000
   377  Na    c    -0.010043    2.236680   11.134803    0.000000    1.000000
   378  Na    c    -0.010043    2.236680  -11.134803    0.000000    1.000000
   379  Na    c     2.236680    4.483404   11.134803    0.000000    1.000000
   380  Na    c     2.236680    4.483404  -11.134803    0.000000    1.000000
   381  Na    c     2.236680   -0.010043   11.134803    0.000000    1.000000
   382  Na    c     2.236680   -0.010043  -11.134803    0.000000    1.000000
   383  Na    c    13.406204    2.236680   -1.987857    0.000000    1.000000
   384  Na    c    13.406204    2.236680    1.987857    0.000000    1.000000
   385  Na    c    -8.932843    2.236680   -1.987857    0.000000    1.000000
   386  Na    c    -8.932843    2.236680    1.987857    0.000000    1.000000
   387  Na    c     2.236680   13.406204   -1.987857    0.000000    1.000000
   388  Na    c     2.236680   13.406204    1.987857    0.000000    1.000000
   389  Na    c     2.236680   -8.932843   -1.987857    0.000000    1.000000
   390  Na    c     2.236680   -8.932843    1.987857    0.000000    1.000000
   391  O     c     6.709156   11.189928    6.709578    0.000000    0.183000
   392  O     c     6.709156   11.189928   -6.709578    0.000000    0.183000
   393  O     c     6.709156   -6.716567    6.709578    0.000000    0.183000
   394  O     c     6.709156   -6.716567   -6.709578    0.000000    0.183000
   395  O     c    11.189928    6.709156    6.709578    0.000000    0.183000
   396  O     c    11.189928    6.709156   -6.709578    0.000000    0.183000
   397  O     c    11.189928   -2.235795    6.709578    0.000000    0.183000
   398  O     c    11.189928   -2.235795   -6.709578    0.000000    0.183000
   399  O     c    -2.235795   11.189928    6.709578    0.000000    0.183000
   400  O     c    -2.235795   11.189928   -6.709578    0.000000    0.183000
   401  O     c    -2.235795   -6.716567    6.709578    0.000000    0.183000
   402  O     c    -2.235795   -6.716567   -6.709578    0.000000    0.183000
   403  O     c    -6.716567    6.709156    6.709578    0.000000    0.183000
   404  O     c    -6.716567    6.709156   -6.709578    0.000000    0.183000
   405  O     c    -6.716567   -2.235795    6.709578    0.000000    0.183000
   406  O     c    -6.716567   -2.235795   -6.709578    0.000000    0.183000
   407  O     c     2.236680    6.719671   11.178826    0.000000    0.183000
   408  O     c     2.236680    6.719671  -11.178826    0.000000    0.183000
   409  O     c     2.236680   -2.246310   11.178826    0.000000    0.183000
   410  O     c     2.236680   -2.246310  -11.178826    0.000000    0.183000
   411  O     c     6.719671    2.236680   11.178826    0.000000    0.183000
   412  O     c     6.719671    2.236680  -11.178826    0.000000    0.183000
   413  O     c    -2.246310    2.236680   11.178826    0.000000    0.183000
   414  O     c    -2.246310    2.236680  -11.178826    0.000000    0.183000
   415  Cl    c     4.482916   13.432712    4.478279    0.000000    1.485000
   416  Cl    c     4.482916   13.432712   -4.478279    0.000000    1.485000
   417  Cl    c     4.482916   -8.959351    4.478279    0.000000    1.485000
   418  Cl    c     4.482916   -8.959351   -4.478279    0.000000    1.485000
   419  Cl    c    13.432712    4.482916    4.478279    0.000000    1.485000
   420  Cl    c    13.432712    4.482916   -4.478279    0.000000    1.485000
   421  Cl    c    13.432712   -0.009555    4.478279    0.000000    1.485000
   422  Cl    c    13.432712   -0.009555   -4.478279    0.000000    1.485000
   423  Cl    c    -0.009555   13.432712    4.478279    0.000000    1.485000
   424  Cl    c    -0.009555   13.432712   -4.478279    0.000000    1.485000
   425  Cl    c    -0.009555   -8.959351    4.478279    0.000000    1.485000
   426  Cl    c    -0.009555   -8.959351   -4.478279    0.000000    1.485000
   427  Cl    c    -8.959351    4.482916    4.478279    0.000000    1.485000
   428  Cl    c    -8.959351    4.482916   -4.478279    0.000000    1.485000
   429  Cl    c    -8.959351   -0.009555    4.478279    0.000000    1.485000
   430  Cl    c    -8.959351   -0.009555   -4.478279    0.000000    1.485000
   431  Na    c     4.474068    6.702019   11.138028    0.000000    1.000000
   432  Na    c     4.474068    6.702019  -11.138028    0.000000    1.000000
   433  Na    c     4.474068   -2.228658   11.138028    0.000000    1.000000
[...]
     56 y         13.420083     13.431737     0.011654    Cartesian    0.09
     56 z          0.000000      0.000000     0.000000    Cartesian    0.00
     57 x          8.946722      8.939912    -0.006810    Cartesian   -0.08
     57 y          2.236680      2.236680     0.000000    Cartesian    0.00
     57 z         11.183402     11.284010     0.100608    Cartesian    0.90
     58 x         13.420083     13.405658    -0.014424    Cartesian   -0.11
     58 y          2.236680      2.236680     0.000000    Cartesian    0.00
     58 z          6.710041      6.874676     0.164635    Cartesian    2.45
     59 x          2.236680      2.236680     0.000000    Cartesian    0.00
     59 y         15.656763     15.839611     0.182847    Cartesian    1.17
     59 z          0.000000      0.000000     0.000000    Cartesian    0.00
     60 x          2.236680      2.236680     0.000000    Cartesian    0.00
     60 y          2.236680      2.236680     0.000000    Cartesian    0.00
     60 z         13.420083     13.406634    -0.013449    Cartesian   -0.10
     61 x          6.710041      6.718632     0.008591    Cartesian    0.13
     61 y         11.183402     11.135327    -0.048075    Cartesian   -0.43
     61 z          8.946722      8.944886    -0.001835    Cartesian   -0.02
     62 x         11.183402     11.197467     0.014064    Cartesian    0.13
     62 y         11.183402     11.197467     0.014064    Cartesian    0.13
     62 z          4.473361      4.473223    -0.000138    Cartesian   -0.00
     63 x          2.236680      2.236680     0.000000    Cartesian    0.00
     63 y         15.656763     15.651132    -0.005631    Cartesian   -0.04
     63 z         -2.236680     -2.225167     0.011514    Cartesian   -0.51
     64 x          4.473361      4.471779    -0.001582    Cartesian   -0.04
     64 y         15.656763     15.635627    -0.021136    Cartesian   -0.13
     64 z         -2.236680     -2.265274    -0.028593    Cartesian    1.28
     65 x          4.473361      4.477523     0.004162    Cartesian    0.09
     65 y          4.473361      4.477523     0.004162    Cartesian    0.09
     65 z         13.420083     13.436910     0.016828    Cartesian    0.13
     66 x          8.946722      8.953132     0.006410    Cartesian    0.07
     66 y         13.420083     13.424403     0.004320    Cartesian    0.03
     66 z          4.473361      4.476210     0.002849    Cartesian    0.06
     67 x          8.946722      8.944498    -0.002224    Cartesian   -0.02
     67 y          6.710041      6.699744    -0.010298    Cartesian   -0.15
     67 z         11.183402     11.210343     0.026941    Cartesian    0.24
     68 x         13.420083     13.421219     0.001136    Cartesian    0.01
     68 y          6.710041      6.694818    -0.015224    Cartesian   -0.23
     68 z          6.710041      6.759883     0.049842    Cartesian    0.74
     69 x          2.236680      2.236680     0.000000    Cartesian    0.00
     69 y         15.656763     15.514434    -0.142329    Cartesian   -0.91
     69 z          4.473361      4.473470     0.000109    Cartesian    0.00
     70 x          6.710041      6.682003    -0.028039    Cartesian   -0.42
     70 y         15.656763     15.704294     0.047531    Cartesian    0.30
     70 z          0.000000      0.000000     0.000000    Cartesian    0.00
     71 x          2.236680      2.236680     0.000000    Cartesian    0.00
     71 y          6.710041      6.667830    -0.042211    Cartesian   -0.63
     71 z         13.420083     13.417638    -0.002445    Cartesian   -0.02
     72 x          6.710041      6.709990    -0.000051    Cartesian   -0.00
     72 y         15.656763     15.655723    -0.001040    Cartesian   -0.01
     72 z         -2.236680     -2.230345     0.006335    Cartesian   -0.28
     73 x          2.236680      2.236680     0.000000    Cartesian    0.00
     73 y         11.183402     11.165237    -0.018165    Cartesian   -0.16
     73 z         11.183402     11.181471    -0.001931    Cartesian   -0.02
     74 x         11.183402     11.185253     0.001850    Cartesian    0.02
     74 y         11.183402     11.185253     0.001850    Cartesian    0.02
     74 z          6.710041      6.709499    -0.000542    Cartesian   -0.01
     75 x          4.473361      4.472330    -0.001031    Cartesian   -0.02
     75 y         11.183402     11.191098     0.007696    Cartesian    0.07
     75 z         11.183402     11.164579    -0.018823    Cartesian   -0.17
     76 x         13.420083     13.418122    -0.001961    Cartesian   -0.01
     76 y         11.183402     11.180936    -0.002466    Cartesian   -0.02
     76 z         -2.236680     -2.226025     0.010655    Cartesian   -0.48
     77 x          4.473361      4.471271    -0.002090    Cartesian   -0.05
     77 y         13.420083     13.431482     0.011400    Cartesian    0.08
     77 z          8.946722      8.952751     0.006029    Cartesian    0.07
     78 x          6.710041      6.727839     0.017798    Cartesian    0.27
     78 y         15.656763     15.618260    -0.038504    Cartesian   -0.25
     78 z          4.473361      4.469602    -0.003759    Cartesian   -0.08
     79 x          6.710041      6.686116    -0.023926    Cartesian   -0.36
     79 y          6.710041      6.686116    -0.023926    Cartesian   -0.36
     79 z         13.420083     13.417252    -0.002830    Cartesian   -0.02
     80 x          2.236680      2.236680     0.000000    Cartesian    0.00
     80 y         15.656763     15.643244    -0.013519    Cartesian   -0.09
     80 z          6.710041      6.719239     0.009198    Cartesian    0.14
     81 x          6.710041      6.710764     0.000723    Cartesian    0.01
     81 y         11.183402     11.182691    -0.000711    Cartesian   -0.01
     81 z         11.183402     11.185758     0.002356    Cartesian    0.02
     82 x          4.473361      4.472478    -0.000883    Cartesian   -0.02
     82 y         15.656763     15.662575     0.005812    Cartesian    0.04
     82 z          6.710041      6.684279    -0.025762    Cartesian   -0.38
     83 x          8.946722      8.944889    -0.001833    Cartesian   -0.02
     83 y         15.656763     15.645034    -0.011729    Cartesian   -0.07
     83 z         -2.236680     -2.228326     0.008355    Cartesian   -0.37
     84 x          4.473361      4.471122    -0.002239    Cartesian   -0.05
     84 y          8.946722      8.952720     0.005998    Cartesian    0.07
     84 z         13.420083     13.433419     0.013336    Cartesian    0.10
     85 x         11.183402     11.173733    -0.009669    Cartesian   -0.09
     85 y         11.183402     11.173733    -0.009669    Cartesian   -0.09
     85 z          8.946722      8.943608    -0.003114    Cartesian   -0.03
     86 x          6.710041      6.712474     0.002432    Cartesian    0.04
     86 y         15.656763     15.658265     0.001502    Cartesian    0.01
     86 z          6.710041      6.713340     0.003298    Cartesian    0.05
     87 x          2.236680      2.236680     0.000000    Cartesian    0.00
     87 y          2.236680      2.236680     0.000000    Cartesian    0.00
     87 z         15.656763     15.659238     0.002475    Cartesian    0.02
     88 x          4.473361      4.486061     0.012700    Cartesian    0.28
     88 y         17.893444     17.907492     0.014048    Cartesian    0.08
     88 z          0.000000      0.000000     0.000000    Cartesian    0.00
     89 x         17.893444     17.886781    -0.006662    Cartesian   -0.04
     89 y          2.236680      2.236680     0.000000    Cartesian    0.00
     89 z         -2.236680     -2.327016    -0.090335    Cartesian    4.04
     90 x          8.946722      8.945566    -0.001155    Cartesian   -0.01
     90 y         11.183402     11.177411    -0.005991    Cartesian   -0.05
     90 z         11.183402     11.176047    -0.007355    Cartesian   -0.07
     91 x         13.420083     13.419040    -0.001043    Cartesian   -0.01
     91 y         11.183402     11.177352    -0.006050    Cartesian   -0.05
     91 z          6.710041      6.713484     0.003443    Cartesian    0.05
     92 x          8.946722      8.951266     0.004544    Cartesian    0.05
     92 y         13.420083     13.434153     0.014071    Cartesian    0.10
     92 z          8.946722      8.953150     0.006428    Cartesian    0.07
     93 x         13.420083     13.435355     0.015272    Cartesian    0.11
     93 y         13.420083     13.435355     0.015272    Cartesian    0.11
     93 z          0.000000      0.000000     0.000000    Cartesian    0.00
     94 x          4.473361      4.470422    -0.002939    Cartesian   -0.07
     94 y          2.236680      2.236680     0.000000    Cartesian    0.00
     94 z         15.656763     15.651862    -0.004901    Cartesian   -0.03
     95 x         13.420083     13.404731    -0.015351    Cartesian   -0.11
     95 y          2.236680      2.236680     0.000000    Cartesian    0.00
     95 z         11.183402     11.138411    -0.044991    Cartesian   -0.40
     96 x          2.236680      2.236680     0.000000    Cartesian    0.00
     96 y          2.236680      2.236680     0.000000    Cartesian    0.00
     96 z         -2.236680     -2.337445    -0.100764    Cartesian    4.51
     97 x          4.473361      4.584588     0.111227    Cartesian    2.49
     97 y          4.473361      4.584588     0.111227    Cartesian    2.49
     97 z          0.000000      0.000000     0.000000    Cartesian    0.00
     98 x          2.236680      2.236680     0.000000    Cartesian    0.00
     98 y          6.710041      6.686609    -0.023432    Cartesian   -0.35
     98 z         -2.236680     -2.216984     0.019696    Cartesian   -0.88
     99 x          4.473361      4.553263     0.079902    Cartesian    1.79
     99 y          4.473361      4.553263     0.079902    Cartesian    1.79
     99 z          4.473361      4.589943     0.116582    Cartesian    2.61
    100 x          2.236680      2.236680     0.000000    Cartesian    0.00
    100 y          2.236680      2.236680     0.000000    Cartesian    0.00
    100 z          6.710041      6.769645     0.059604    Cartesian    0.89
    101 x          6.710041      6.715225     0.005184    Cartesian    0.08
    101 y          6.710041      6.715225     0.005184    Cartesian    0.08
    101 z         -2.236680     -2.251821    -0.015140    Cartesian    0.68
    102 x          4.473361      4.490834     0.017474    Cartesian    0.39
    102 y          8.946722      8.962978     0.016256    Cartesian    0.18
    102 z          0.000000      0.000000     0.000000    Cartesian    0.00
    103 x          2.236680      2.236680     0.000000    Cartesian    0.00
    103 y          6.710041      6.702927    -0.007114    Cartesian   -0.11
    103 z          6.710041      6.689733    -0.020308    Cartesian   -0.30
    104 x          4.473361      4.501333     0.027972    Cartesian    0.63
    104 y          8.946722      8.979120     0.032399    Cartesian    0.36
    104 z          4.473361      4.475533     0.002172    Cartesian    0.05
    105 x          2.236680      2.236680     0.000000    Cartesian    0.00
    105 y         11.183402     11.165876    -0.017526    Cartesian   -0.16
    105 z         -2.236680     -2.233473     0.003207    Cartesian   -0.14
    106 x          6.710041      6.723144     0.013103    Cartesian    0.20
    106 y          6.710041      6.723144     0.013103    Cartesian    0.20
    106 z          6.710041      6.710854     0.000813    Cartesian    0.01
    107 x          4.473361      4.464219    -0.009142    Cartesian   -0.20
    107 y          4.473361      4.464219    -0.009142    Cartesian   -0.20
    107 z          8.946722      8.975083     0.028361    Cartesian    0.32
    108 x          8.946722      8.968570     0.021849    Cartesian    0.24
    108 y          8.946722      8.968570     0.021849    Cartesian    0.24
    108 z          0.000000      0.000000     0.000000    Cartesian    0.00
    109 x          6.710041      6.712329     0.002288    Cartesian    0.03
    109 y         11.183402     11.182102    -0.001300    Cartesian   -0.01
    109 z         -2.236680     -2.235798     0.000882    Cartesian   -0.04
    110 x          8.946722      8.967457     0.020735    Cartesian    0.23
    110 y          8.946722      8.967457     0.020735    Cartesian    0.23
    110 z          4.473361      4.480512     0.007151    Cartesian    0.16
    111 x          2.236680      2.236680     0.000000    Cartesian    0.00
    111 y         11.183402     11.177483    -0.005919    Cartesian   -0.05
    111 z          6.710041      6.693829    -0.016213    Cartesian   -0.24
    112 x          2.236680      2.236680     0.000000    Cartesian    0.00
    112 y          2.236680      2.236680     0.000000    Cartesian    0.00
    112 z         11.183402     11.183122    -0.000280    Cartesian   -0.00
    113 x          4.473361      4.482172     0.008811    Cartesian    0.20
    113 y          8.946722      8.953870     0.007148    Cartesian    0.08
    113 z          8.946722      8.968932     0.022210    Cartesian    0.25
    114 x          4.473361      4.483790     0.010429    Cartesian    0.23
    114 y         13.420083     13.437935     0.017853    Cartesian    0.13
    114 z          0.000000      0.000000     0.000000    Cartesian    0.00
    115 x          6.710041      6.709156    -0.000885    Cartesian   -0.01
    115 y         11.183402     11.189934     0.006531    Cartesian    0.06
    115 z          6.710041      6.709576    -0.000466    Cartesian   -0.01
    116 x          2.236680      2.236680     0.000000    Cartesian    0.00
    116 y          6.710041      6.719692     0.009651    Cartesian    0.14
    116 z         11.183402     11.178841    -0.004561    Cartesian   -0.04
    117 x          4.473361      4.481370     0.008009    Cartesian    0.18
    117 y         13.420083     13.432525     0.012442    Cartesian    0.09
    117 z          4.473361      4.479675     0.006314    Cartesian    0.14
    118 x          6.710041      6.710859     0.000817    Cartesian    0.01
    118 y          6.710041      6.710859     0.000817    Cartesian    0.01
    118 z         11.183402     11.182170    -0.001232    Cartesian   -0.01
    119 x         11.183402     11.185000     0.001598    Cartesian    0.01
    119 y         11.183402     11.185000     0.001598    Cartesian    0.01
    119 z         -2.236680     -2.238113    -0.001433    Cartesian    0.06
    120 x          8.946722      8.961984     0.015262    Cartesian    0.17
    120 y          8.946722      8.961984     0.015262    Cartesian    0.17
    120 z          8.946722      8.961915     0.015193    Cartesian    0.17
    121 x          8.946722      8.955931     0.009209    Cartesian    0.10
    121 y         13.420083     13.434215     0.014132    Cartesian    0.11
    121 z          0.000000      0.000000     0.000000    Cartesian    0.00
    122 x          2.236680      2.236680     0.000000    Cartesian    0.00
    122 y         15.656763     15.651158    -0.005605    Cartesian   -0.04
    122 z         -2.236680     -2.225140     0.011540    Cartesian   -0.52
    123 x          4.473361      4.478581     0.005220    Cartesian    0.12
    123 y          4.473361      4.478581     0.005220    Cartesian    0.12
    123 z         13.420083     13.440576     0.020494    Cartesian    0.15
    124 x          8.946722      8.953827     0.007105    Cartesian    0.08
    124 y         13.420083     13.424275     0.004192    Cartesian    0.03
    124 z          4.473361      4.476868     0.003507    Cartesian    0.08
    125 x          6.710041      6.709992    -0.000049    Cartesian   -0.00
    125 y         15.656763     15.655726    -0.001037    Cartesian   -0.01
    125 z         -2.236680     -2.230329     0.006352    Cartesian   -0.28
    126 x          2.236680      2.236680     0.000000    Cartesian    0.00
    126 y         11.183402     11.165209    -0.018193    Cartesian   -0.16
    126 z         11.183402     11.181492    -0.001910    Cartesian   -0.02
    127 x         11.183402     11.185257     0.001855    Cartesian    0.02
    127 y         11.183402     11.185257     0.001855    Cartesian    0.02
    127 z          6.710041      6.709495    -0.000546    Cartesian   -0.01
    128 x          4.473361      4.469741    -0.003620    Cartesian   -0.08
    128 y         13.420083     13.434695     0.014612    Cartesian    0.11
    128 z          8.946722      8.951809     0.005087    Cartesian    0.06
    129 x          2.236680      2.236680     0.000000    Cartesian    0.00
    129 y         15.656763     15.643225    -0.013538    Cartesian   -0.09
    129 z          6.710041      6.719275     0.009234    Cartesian    0.14
    130 x          6.710041      6.710767     0.000726    Cartesian    0.01
    130 y         11.183402     11.182684    -0.000718    Cartesian   -0.01
    130 z         11.183402     11.185764     0.002362    Cartesian    0.02
    131 x          4.473361      4.470298    -0.003063    Cartesian   -0.07
    131 y          8.946722      8.954069     0.007347    Cartesian    0.08
    131 z         13.420083     13.433735     0.013652    Cartesian    0.10
    132 x          6.710041      6.712478     0.002437    Cartesian    0.04
    132 y         15.656763     15.658261     0.001497    Cartesian    0.01
    132 z          6.710041      6.713353     0.003312    Cartesian    0.05
    133 x          2.236680      2.236680     0.000000    Cartesian    0.00
    133 y          2.236680      2.236680     0.000000    Cartesian    0.00
    133 z         15.656763     15.659252     0.002489    Cartesian    0.02
    134 x          4.473361      4.487579     0.014218    Cartesian    0.32
    134 y         17.893444     17.906326     0.012882    Cartesian    0.07
    134 z          0.000000      0.000000     0.000000    Cartesian    0.00
    135 x          8.946722      8.951797     0.005076    Cartesian    0.06
    135 y         13.420083     13.436180     0.016098    Cartesian    0.12
    135 z          8.946722      8.953460     0.006738    Cartesian    0.08
    136 x         13.420083     13.437242     0.017160    Cartesian    0.13
    136 y         13.420083     13.437242     0.017160    Cartesian    0.13
    136 z          0.000000      0.000000     0.000000    Cartesian    0.00
--------------------------------------------------------------------------------


  Time to end of optimisation  =       71.4020 seconds


  Peak dynamic memory used =     307.54 MB 


  Timing analysis for GULP :

--------------------------------------------------------------------------------
  Task / Subroutine                                          Time (Seconds)
--------------------------------------------------------------------------------
  Calculation of reciprocal space energy and derivatives          0.0002
  Calculation of reciprocal space energy using symmetry           0.0003
  Calculation of real space energy and derivatives                0.0013
  Calculation of real space energy using symmetry                 0.0029
  Calculation for region 1 energy and derivatives (2-b)          36.9153
  Calculation for region 2a energy                               32.8268
  Calculation for region 2b energy                                0.0004
  Calculation and manipulation of Hessian matrix                  1.2776
  Calculation of matrix inversion                                 0.0765
  Symmetry generation of equivalent positions                     0.0016
--------------------------------------------------------------------------------
  Total CPU time                                                 71.4021
--------------------------------------------------------------------------------


  Dump file written as Na3OCl.grs


  Job Finished at 14:27.19  3rd January    2021                               

