********************************************************************************
*                       GENERAL UTILITY LATTICE PROGRAM                        *
*                                 Julian Gale                                  *
*                       Curtin Institute for Computation                       *
*                    School of Molecular and Life Sciences                     *
*                    Curtin University, Western Australia                      *
********************************************************************************
* Version = 5.2.0 * Last modified =  10th September 2020                       *
********************************************************************************
*  optimise     - perform optimisation run                                     *
*  conp         - constant pressure calculation                                *
*  property     - calculate properties for final geometry                      *
*  defect       - perform defect calculation after bulk run                    *
*  compare      - compare initial and final structures                         *
********************************************************************************

  Job Started  at 14:26.06  3rd January    2021                               

  Number of CPUs =     1


  Total number of configurations input =      1

********************************************************************************
*  Input for Configuration =   1                                               *
********************************************************************************

  Formula = ClONa3                                                      

  Number of irreducible atoms/shells =       5


  Total number atoms/shells =       7

  Dimensionality = 3               :  Bulk   


  Symmetry :

  Crystal family                   :  Cubic       
  Crystal class  (Groth - 1921)    :  Cubic Hexakisoctahedral              

  Space group (centrosymmetric)    :  P M 3 M         

  Patterson group                  :  P m -3 m 

  Cartesian lattice vectors (Angstroms) :

        4.504000    0.000000    0.000000
        0.000000    4.504000    0.000000
        0.000000    0.000000    4.504000

  Cell parameters (Angstroms/Degrees):

  a =       4.5040    alpha =  90.0000
  b =       4.5040    beta  =  90.0000
  c =       4.5040    gamma =  90.0000

  Initial cell volume =          91.368216 Angs**3

  Temperature of configuration =   0.00     K 

  Pressure of configuration =         0.000 GPa 

  Fractional coordinates of asymmetric unit :

--------------------------------------------------------------------------------
   No.  Atomic       x           y          z         Charge      Occupancy
        Label      (Frac)      (Frac)     (Frac)        (e)         (Frac)  
--------------------------------------------------------------------------------
      1 Cl    c    0.000000    0.000000    0.000000     1.48500    1.000000    
      2 O     c    0.500000    0.500000    0.500000     0.18300    1.000000    
      3 Na    c    0.500000    0.500000    0.000000     1.00000    1.000000    
      4 Cl    s    0.000000    0.000000    0.000000    -2.48500    1.000000    
      5 O     s    0.500000    0.500000    0.500000    -2.18300    1.000000    
--------------------------------------------------------------------------------


  Constraints : 

--------------------------------------------------------------------------------
  Constraint no.      Unconstrained     Constrained    Coefficient    Offset
                         Variable         Variable
--------------------------------------------------------------------------------
           1              Strain 1        Strain 2       1.00000      0.0000
           2              Strain 1        Strain 3       1.00000      0.0000
--------------------------------------------------------------------------------


********************************************************************************
*  General input information                                                   *
********************************************************************************

  Species output for all configurations : 

--------------------------------------------------------------------------------
  Species    Type    Atomic    Atomic    Charge       Radii (Angs)     Library
                     Number     Mass       (e)     Cova   Ionic  VDW   Symbol
--------------------------------------------------------------------------------
    Na       Core       11      22.99   1.000000   0.970  0.000  2.300          
    O        Core        8      16.00   0.183000   0.730  0.000  1.360          
    O        Shell       8       0.00  -2.183000   0.730  0.000  1.360          
    Cl       Core       17      35.45   1.485000   0.990  0.000  1.650          
    Cl       Shell      17       0.00  -2.485000   0.990  0.000  1.650          
    Mg       Core       12      24.31   0.415000   1.100  0.000  0.000          
    Mg       Shell      12       0.00   1.585000   1.100  0.000  0.000          
    Ca       Core       20      40.08  -1.135000   0.990  0.000  0.000          
    Ca       Shell      20       0.00   3.135000   0.990  0.000  0.000          
    Sr       Core       38      87.62  -1.251000   1.120  0.000  0.000          
    Sr       Shell      38       0.00   3.251000   1.120  0.000  0.000          
    Ba       Core       56     137.33  -7.203000   1.340  0.000  0.000          
    Ba       Shell      56       0.00   9.203000   1.340  0.000  0.000          
--------------------------------------------------------------------------------


  Lattice summation method               =    Ewald          (3-D)
                                         =    Parry          (2-D)
                                         =    Saunders et al (1-D)
  Accuracy factor for lattice sums       =   12.000


  Analytic derivatives to be used

  Time limit = Infinity

  Maximum range for interatomic potentials =    100000.000000 Angstroms

  General interatomic potentials :

--------------------------------------------------------------------------------
Atom  Types   Potential      Parameter       Value         Units   Cutoffs(Ang)
  1     2                                                            Min /  Max 
--------------------------------------------------------------------------------
O    c O    s Spring (c-s)  Spring k 2       593.71600    eV*Ang^-2 0.000  0.800
                            Spring k 4       0.0000000    eV*Ang^-4 
--------------------------------------------------------------------------------
Cl   c Cl   s Spring (c-s)  Spring k 2       29.380000    eV*Ang^-2 0.000  0.800
                            Spring k 4       0.0000000    eV*Ang^-4 
--------------------------------------------------------------------------------
Mg   c Mg   s Spring (c-s)  Spring k 2       361.60000    eV*Ang^-2 0.000  0.800
                            Spring k 4       0.0000000    eV*Ang^-4 
--------------------------------------------------------------------------------
Ca   c Ca   s Spring (c-s)  Spring k 2       110.20000    eV*Ang^-2 0.000  0.800
                            Spring k 4       0.0000000    eV*Ang^-4 
--------------------------------------------------------------------------------
Sr   c Sr   s Spring (c-s)  Spring k 2       71.700000    eV*Ang^-2 0.000  0.800
                            Spring k 4       0.0000000    eV*Ang^-4 
--------------------------------------------------------------------------------
Ba   c Ba   s Spring (c-s)  Spring k 2       495.20000    eV*Ang^-2 0.000  0.800
                            Spring k 4       0.0000000    eV*Ang^-4 
--------------------------------------------------------------------------------
Na   c Na   c Buckingham    Buckingham A     1788.1900    eV        0.000 12.000
                            Buckingham rho  0.15900000    Ang       
                            Buckingham C     0.0000000    eV*Ang^6  
--------------------------------------------------------------------------------
Na   c O    s Buckingham    Buckingham A     369.22000    eV        0.000 12.000
                            Buckingham rho  0.37600000    Ang       
                            Buckingham C     0.0000000    eV*Ang^6  
--------------------------------------------------------------------------------
Na   c Cl   s Buckingham    Buckingham A     1775.1200    eV        0.000 12.000
                            Buckingham rho  0.30000000    Ang       
                            Buckingham C     0.0000000    eV*Ang^6  
--------------------------------------------------------------------------------
O    s O    s Buckingham    Buckingham A     22764.300    eV        0.000 12.000
                            Buckingham rho  0.14900000    Ang       
                            Buckingham C     13.190000    eV*Ang^6  
--------------------------------------------------------------------------------
O    s Cl   s Buckingham    Buckingham A     8286.9100    eV        0.000 12.000
                            Buckingham rho  0.25900000    Ang       
                            Buckingham C     62.200000    eV*Ang^6  
--------------------------------------------------------------------------------
Cl   s Cl   s Buckingham    Buckingham A     1227.2000    eV        0.000 12.000
                            Buckingham rho  0.32100000    Ang       
                            Buckingham C     14.530000    eV*Ang^6  
--------------------------------------------------------------------------------
O    s Mg   s Buckingham    Buckingham A     1428.5000    eV        0.000 12.000
                            Buckingham rho  0.29450000    Ang       
                            Buckingham C     0.0000000    eV*Ang^6  
--------------------------------------------------------------------------------
Mg   s Cl   s Buckingham    Buckingham A     4914.5400    eV        0.000 12.000
                            Buckingham rho  0.25700000    Ang       
                            Buckingham C     0.0000000    eV*Ang^6  
--------------------------------------------------------------------------------
O    s Ca   s Buckingham    Buckingham A     1090.4000    eV        0.000 12.000
                            Buckingham rho  0.34370000    Ang       
                            Buckingham C     0.0000000    eV*Ang^6  
--------------------------------------------------------------------------------
Cl   s Ca   s Buckingham    Buckingham A     2302.0000    eV        0.000 12.000
                            Buckingham rho  0.34020000    Ang       
                            Buckingham C     0.0000000    eV*Ang^6  
--------------------------------------------------------------------------------
O    s Sr   s Buckingham    Buckingham A     959.10000    eV        0.000 12.000
                            Buckingham rho  0.37210000    Ang       
                            Buckingham C     0.0000000    eV*Ang^6  
--------------------------------------------------------------------------------
Cl   s Sr   s Buckingham    Buckingham A     2191.0900    eV        0.000 12.000
                            Buckingham rho  0.34570000    Ang       
                            Buckingham C     0.0000000    eV*Ang^6  
--------------------------------------------------------------------------------
O    s Ba   s Buckingham    Buckingham A     905.70000    eV        0.000 12.000
                            Buckingham rho  0.39760000    Ang       
                            Buckingham C     0.0000000    eV*Ang^6  
--------------------------------------------------------------------------------
Cl   s Ba   s Buckingham    Buckingham A     2704.5500    eV        0.000 12.000
                            Buckingham rho  0.35280000    Ang       
                            Buckingham C     0.0000000    eV*Ang^6  
--------------------------------------------------------------------------------

********************************************************************************
*  Output for configuration   1                                                *
********************************************************************************


  Components of energy : 

--------------------------------------------------------------------------------
  Interatomic potentials     =           5.94260302 eV    
  Monopole - monopole (real) =         -10.03624526 eV    
  Monopole - monopole (recip)=         -29.53581274 eV    
  Monopole - monopole (total)=         -39.57205800 eV    
--------------------------------------------------------------------------------
  Total lattice energy       =         -33.62945497 eV    
--------------------------------------------------------------------------------
  Total lattice energy       =           -3244.7283 kJ/(mole unit cells)
--------------------------------------------------------------------------------


  Number of variables =        1

  Maximum number of calculations  =          1000
  Maximum Hessian update interval =            10
  Maximum step size               =   1.000000000
  Maximum parameter tolerance     =   0.000010000
  Maximum function  tolerance     =   0.000010000
  Maximum gradient  tolerance     =   0.001000000
  Maximum gradient  component     =   0.010000000

  Symmetry constrained optimisation

  Symmetry used for second derivatives

  Cell parameters to be optimised using strains

  Newton-Raphson optimiser to be used

  BFGS hessian update to be used

  Lower half triangular hessian to be used

  Start of bulk optimisation :

  Cycle:      0 Energy:       -33.629455  Gnorm:      1.259168  CPU:    0.009
  ** Hessian calculated **
  Cycle:      1 Energy:       -33.633782  Gnorm:      0.004576  CPU:    0.011


  **** Optimisation achieved ****


  Final energy =     -33.63378233 eV
  Final Gnorm  =       0.00011077

  Components of energy : 

--------------------------------------------------------------------------------
  Interatomic potentials     =           6.20931397 eV    
  Monopole - monopole (real) =         -10.10498585 eV    
  Monopole - monopole (recip)=         -29.73811044 eV    
  Monopole - monopole (total)=         -39.84309629 eV    
--------------------------------------------------------------------------------
  Total lattice energy       =         -33.63378233 eV    
--------------------------------------------------------------------------------
  Total lattice energy       =           -3245.1459 kJ/(mole unit cells)
--------------------------------------------------------------------------------

  Final asymmetric unit coordinates :

--------------------------------------------------------------------------------
   No.  Atomic        x           y           z         Radius
        Label       (Frac)      (Frac)      (Frac)       (Angs) 
--------------------------------------------------------------------------------
     1  Cl    c     0.000000    0.000000    0.000000    0.000000
     2  O     c     0.500000    0.500000    0.500000    0.000000
     3  Na    c     0.500000    0.500000    0.000000    0.000000
     4  Cl    s     0.000000    0.000000    0.000000    0.000000
     5  O     s     0.500000    0.500000    0.500000    0.000000
--------------------------------------------------------------------------------

  Final Cartesian lattice vectors (Angstroms) :

        4.473361    0.000000    0.000000
        0.000000    4.473361    0.000000
        0.000000    0.000000    4.473361


  Final cell parameters and derivatives :

--------------------------------------------------------------------------------
       a            4.473361 Angstrom     dE/de1(xx)     0.000111 eV/strain
       b            4.473361 Angstrom     dE/de2(yy)     0.000000 eV/strain
       c            4.473361 Angstrom     dE/de3(zz)     0.000000 eV/strain
       alpha       90.000000 Degrees      dE/de4(yz)     0.000000 eV/strain
       beta        90.000000 Degrees      dE/de5(xz)     0.000000 eV/strain
       gamma       90.000000 Degrees      dE/de6(xy)     0.000000 eV/strain
--------------------------------------------------------------------------------

  Primitive cell volume =            89.516236 Angs**3

  Density of cell =      2.233844 g/cm**3

  Non-primitive cell volume =            89.516236 Angs**3


  Final internal derivatives :

--------------------------------------------------------------------------------
   No.  Atomic          a             b             c           Radius
        Label          (eV)          (eV)          (eV)        (eV/Angs)
--------------------------------------------------------------------------------
      1 Cl    c       0.000000      0.000000      0.000000      0.000000
      2 O     c       0.000000      0.000000      0.000000      0.000000
      3 Na    c       0.000000      0.000000      0.000000      0.000000
      4 Cl    s       0.000000      0.000000      0.000000      0.000000
      5 O     s       0.000000      0.000000      0.000000      0.000000
--------------------------------------------------------------------------------
  Maximum abs         0.000000      0.000000      0.000000      0.000000
--------------------------------------------------------------------------------

  Comparison of initial and final structures : 

--------------------------------------------------------------------------------
  Parameter   Initial value   Final value   Difference    Units      Percent
--------------------------------------------------------------------------------
    Volume        91.368216     89.516236    -1.851980    Angs**3     -2.03
    a              4.504000      4.473361    -0.030639    Angstroms   -0.68
    b              4.504000      4.473361    -0.030639    Angstroms   -0.68
    c              4.504000      4.473361    -0.030639    Angstroms   -0.68
    alpha         90.000000     90.000000     0.000000    Degrees      0.00
    beta          90.000000     90.000000     0.000000    Degrees      0.00
    gamma         90.000000     90.000000     0.000000    Degrees      0.00
      1 x          0.000000      0.000000     0.000000    Fractional   0.00
      1 y          0.000000      0.000000     0.000000    Fractional   0.00
      1 z          0.000000      0.000000     0.000000    Fractional   0.00
      2 x          0.500000      0.500000     0.000000    Fractional   0.00
      2 y          0.500000      0.500000     0.000000    Fractional   0.00
      2 z          0.500000      0.500000     0.000000    Fractional   0.00
      3 x          0.500000      0.500000     0.000000    Fractional   0.00
      3 y          0.500000      0.500000     0.000000    Fractional   0.00
      3 z          0.000000      0.000000     0.000000    Fractional   0.00
      4 x          0.000000      0.000000     0.000000    Fractional   0.00
      4 y          0.000000      0.000000     0.000000    Fractional   0.00
      4 z          0.000000      0.000000     0.000000    Fractional   0.00
      5 x          0.500000      0.500000     0.000000    Fractional   0.00
      5 y          0.500000      0.500000     0.000000    Fractional   0.00
      5 z          0.500000      0.500000     0.000000    Fractional   0.00
--------------------------------------------------------------------------------


  Born effective charge tensors : 

-------------------------------------------------------------------------------
  Atom             x           y             z
-------------------------------------------------------------------------------
    1 Cl    x      -1.0058     -0.0000      0.0000
            y      -0.0000     -1.0058      0.0000
            z       0.0000      0.0000     -1.0058
-------------------------------------------------------------------------------
    2 O     x      -2.2847      0.0000     -0.0000
            y       0.0000     -2.2847     -0.0000
            z      -0.0000     -0.0000     -2.2847
-------------------------------------------------------------------------------
    3 Na    x       1.2228      0.0000      0.0000
            y       0.0000      1.2228     -0.0000
            z       0.0000     -0.0000      0.8451
-------------------------------------------------------------------------------




  Elastic Constant Matrix: (Units=GPa)

-------------------------------------------------------------------------------
  Indices      1         2         3         4         5         6    
-------------------------------------------------------------------------------
       1     68.5642   21.8813   21.8813   -0.0000    0.0000    0.0000
       2     21.8813   68.5642   21.8813    0.0000   -0.0000    0.0000
       3     21.8813   21.8813   68.5642   -0.0000    0.0000    0.0000
       4     -0.0000    0.0000   -0.0000   21.8814    0.0000    0.0000
       5      0.0000   -0.0000    0.0000    0.0000   21.8814    0.0000
       6      0.0000    0.0000    0.0000    0.0000    0.0000   21.8814
-------------------------------------------------------------------------------


  Elastic Compliance Matrix: (Units=1/GPa)

-------------------------------------------------------------------------------
  Indices      1         2         3         4         5         6    
-------------------------------------------------------------------------------
       1    0.017248 -0.004173 -0.004173  0.000000 -0.000000 -0.000000
       2   -0.004173  0.017248 -0.004173 -0.000000  0.000000 -0.000000
       3   -0.004173 -0.004173  0.017248  0.000000  0.000000  0.000000
       4    0.000000 -0.000000  0.000000  0.045701 -0.000000 -0.000000
       5   -0.000000  0.000000  0.000000 -0.000000  0.045701 -0.000000
       6   -0.000000 -0.000000  0.000000 -0.000000 -0.000000  0.045701
-------------------------------------------------------------------------------

  Mechanical properties :

-------------------------------------------------------------------------------
  Convention :                    Reuss         Voigt         Hill
-------------------------------------------------------------------------------
  Bulk  Modulus (GPa)     =      37.44228      37.44228      37.44228
  Shear Modulus (GPa)     =      22.44293      22.46541      22.45417
-------------------------------------------------------------------------------
  Velocity S-wave (km/s)  =       3.16966       3.17125       3.17046
  Velocity P-wave (km/s)  =       5.49155       5.49277       5.49216
-------------------------------------------------------------------------------
  Compressibility (1/GPa) =    0.02670777
-------------------------------------------------------------------------------
  Stress axis :                     x             y             z
-------------------------------------------------------------------------------
  Youngs Moduli (GPa)     =      57.97678      57.97678      57.97678
-------------------------------------------------------------------------------
  Poissons Ratio (x)      =                     0.24193       0.24193
  Poissons Ratio (y)      =       0.24193                     0.24193
  Poissons Ratio (z)      =       0.24193       0.24193
-------------------------------------------------------------------------------


  Piezoelectric Strain Matrix: (Units=C/m**2)

-------------------------------------------------------------------------------
  Indices      1         2         3         4         5         6    
-------------------------------------------------------------------------------
       x     0.00000   0.00000   0.00000   0.00000   0.00000   0.00000
       y    -0.00000  -0.00000  -0.00000   0.00000   0.00000  -0.00000
       z    -0.00000  -0.00000  -0.00000  -0.00000  -0.00000   0.00000
-------------------------------------------------------------------------------


  Piezoelectric Stress Matrix: (Units=10**-11 C/N)

-------------------------------------------------------------------------------
  Indices      1         2         3         4         5         6    
-------------------------------------------------------------------------------
       x     0.00000   0.00000   0.00000   0.00000   0.00000   0.00000
       y    -0.00000   0.00000  -0.00000   0.00000   0.00000  -0.00000
       z     0.00000   0.00000  -0.00000  -0.00000  -0.00000   0.00000
-------------------------------------------------------------------------------


  Static dielectric constant tensor : 

-------------------------------------------------------------------------------
              x         y         z
-------------------------------------------------------------------------------
       x    15.76662  -0.00000  -0.00000
       y    -0.00000  15.76662  -0.00000
       z    -0.00000  -0.00000  15.76662
--------------------------------------------------------------------------------

  High frequency dielectric constant tensor : 

-------------------------------------------------------------------------------
              x         y         z
-------------------------------------------------------------------------------
       x     1.48553   0.00000  -0.00000
       y     0.00000   1.48553  -0.00000
       z    -0.00000  -0.00000   1.48553
-------------------------------------------------------------------------------

  Static refractive indices : 

-------------------------------------------------------------------------------
    1 =    3.97072      2 =    3.97072      3 =    3.97072
-------------------------------------------------------------------------------

  High frequency refractive indices : 

-------------------------------------------------------------------------------
    1 =    1.21882      2 =    1.21882      3 =    1.21882
-------------------------------------------------------------------------------


  Time to end of optimisation =       0.0163 seconds

********************************************************************************
*  Defect calculation for configuration   1 :                                  *
********************************************************************************

  Total number of defects =      1

  Total charge on defect  =  -1.00

  Defect centre is at   0.5000   0.5000   0.0000  Frac

  Region 1 radius =  17.0000      Number of ions =   1626

  Number of symmetry inequivalent region 1 ions  =    160

  Region 2 radius =  24.0000      Number of ions =   2900

  Number of symmetry inequivalent region 2a ions =    234

  Region 2a mode = 4 : screened electrostatics due to region 1 
                       neglect correction to region 1 forces from 2a
                       region 2a displacements based on defects only

  Region 2a ions will only interact with defects in region 1

  Vacancies:

--------------------------------------------------------------------------------
    Specification type     Symbol/Number         x          y          z
--------------------------------------------------------------------------------
    Fractional                               0.500000   0.500000   0.000000
--------------------------------------------------------------------------------


  Symmetry reduced region 1 (Relative to defect centre) :

--------------------------------------------------------------------------------
   No.   Atomic       x            y             z       Radius  Multiplicity   
         Label      (Angs)       (Angs)        (Angs)    (Angs)     
--------------------------------------------------------------------------------
     1  O     c      0.0000       0.0000      -2.2367 *  0.0000     2          
     2  Cl    c      2.2367 *     2.2367       0.0000    0.0000     4          
     3  Na    c      2.2367 *     0.0000      -2.2367 *  0.0000     8          
     4  Na    c      0.0000       0.0000       4.4734 *  0.0000     2          
     5  Na    c      0.0000       4.4734 *     0.0000    0.0000     4          
     6  O     c      0.0000       4.4734 *    -2.2367 *  0.0000     8          
     7  Na    c      2.2367 *     4.4734 *    -2.2367 *  0.0000    16          
     8  Cl    c      2.2367 *     2.2367       4.4734 *  0.0000     8          
     9  Na    c      0.0000       4.4734 *     4.4734 *  0.0000     8          
    10  Na    c      4.4734 *     4.4734       0.0000    0.0000     4          
    11  O     c      0.0000       0.0000       6.7100 *  0.0000     2          
    12  O     c      4.4734 *     4.4734      -2.2367 *  0.0000     8          
    13  Cl    c      2.2367 *     6.7100 *     0.0000    0.0000     8          
    14  Na    c      2.2367 *     0.0000       6.7100 *  0.0000     8          
    15  Na    c      6.7100 *     0.0000      -2.2367 *  0.0000     8          
    16  Na    c      4.4734 *     4.4734       4.4734 *  0.0000     8          
    17  O     c      0.0000       4.4734 *     6.7100 *  0.0000     8          
    18  Cl    c      2.2367 *     6.7100 *     4.4734 *  0.0000    16          
    19  Na    c      2.2367 *     4.4734 *     6.7100 *  0.0000    16          
    20  Na    c      6.7100 *     4.4734 *    -2.2367 *  0.0000    16          
    21  Na    c      0.0000       0.0000       8.9467 *  0.0000     2          
    22  Na    c      0.0000       8.9467 *     0.0000    0.0000     4          
    23  O     c      0.0000       8.9467 *    -2.2367 *  0.0000     8          
    24  O     c      4.4734 *     4.4734       6.7100 *  0.0000     8          
    25  Cl    c      2.2367 *     2.2367       8.9467 *  0.0000     8          
    26  Cl    c      6.7100 *     6.7100       0.0000    0.0000     4          
    27  Na    c      2.2367 *     8.9467 *    -2.2367 *  0.0000    16          
    28  Na    c      6.7100 *     0.0000       6.7100 *  0.0000     8          
    29  Na    c      0.0000       4.4734 *     8.9467 *  0.0000     8          
    30  Na    c      0.0000       8.9467 *     4.4734 *  0.0000     8          
    31  Na    c      4.4734 *     8.9467 *     0.0000    0.0000     8          
    32  O     c      4.4734 *     8.9467 *    -2.2367 *  0.0000    16          
    33  Cl    c      6.7100 *     6.7100       4.4734 *  0.0000     8          
    34  Na    c      6.7100 *     4.4734 *     6.7100 *  0.0000    16          
    35  Na    c      4.4734 *     8.9467 *     4.4734 *  0.0000    16          
    36  Na    c      4.4734 *     4.4734       8.9467 *  0.0000     8          
    37  O     c      0.0000       8.9467 *     6.7100 *  0.0000     8          
    38  O     c      0.0000       0.0000      11.1834 *  0.0000     2          
    39  Cl    c      2.2367 *     6.7100 *     8.9467 *  0.0000    16          
    40  Na    c      2.2367 *     8.9467 *     6.7100 *  0.0000    16          
    41  Na    c      6.7100 *     8.9467 *    -2.2367 *  0.0000    16          
    42  Cl    c      2.2367 *    11.1834 *     0.0000    0.0000     8          
    43  Na    c      2.2367 *     0.0000      11.1834 *  0.0000     8          
    44  Na    c     11.1834 *     0.0000      -2.2367 *  0.0000     8          
    45  O     c      4.4734 *     8.9467 *     6.7100 *  0.0000    16          
    46  O     c      0.0000       4.4734 *    11.1834 *  0.0000     8          
    47  Cl    c      2.2367 *    11.1834 *     4.4734 *  0.0000    16          
    48  Na    c      2.2367 *     4.4734 *    11.1834 *  0.0000    16          
    49  Na    c     11.1834 *     4.4734 *    -2.2367 *  0.0000    16          
    50  Na    c      0.0000       8.9467 *     8.9467 *  0.0000     8          
    51  Na    c      8.9467 *     8.9467       0.0000    0.0000     4          
    52  O     c      4.4734 *     4.4734      11.1834 *  0.0000     8          
    53  O     c      8.9467 *     8.9467      -2.2367 *  0.0000     8          
    54  Cl    c      6.7100 *     6.7100       8.9467 *  0.0000     8          
    55  Na    c      6.7100 *     8.9467 *     6.7100 *  0.0000    16          
    56  Cl    c      6.7100 *    11.1834 *     0.0000    0.0000     8          
    57  Na    c      6.7100 *     0.0000      11.1834 *  0.0000     8          
    58  Na    c     11.1834 *     0.0000       6.7100 *  0.0000     8          
    59  Na    c      0.0000      13.4201 *     0.0000    0.0000     4          
    60  Na    c      0.0000       0.0000      13.4201 *  0.0000     2          
    61  Na    c      4.4734 *     8.9467 *     8.9467 *  0.0000    16          
    62  Na    c      8.9467 *     8.9467       4.4734 *  0.0000     8          
    63  O     c      0.0000      13.4201 *    -2.2367 *  0.0000     8          
    64  Na    c      2.2367 *    13.4201 *    -2.2367 *  0.0000    16          
    65  Cl    c      2.2367 *     2.2367      13.4201 *  0.0000     8          
    66  Cl    c      6.7100 *    11.1834 *     4.4734 *  0.0000    16          
    67  Na    c      6.7100 *     4.4734 *    11.1834 *  0.0000    16          
    68  Na    c     11.1834 *     4.4734 *     6.7100 *  0.0000    16          
    69  Na    c      0.0000      13.4201 *     4.4734 *  0.0000     8          
    70  Na    c      4.4734 *    13.4201 *     0.0000    0.0000     8          
    71  Na    c      0.0000       4.4734 *    13.4201 *  0.0000     8          
    72  O     c      4.4734 *    13.4201 *    -2.2367 *  0.0000    16          
    73  O     c      0.0000       8.9467 *    11.1834 *  0.0000     8          
    74  O     c      8.9467 *     8.9467       6.7100 *  0.0000     8          
    75  Na    c      2.2367 *     8.9467 *    11.1834 *  0.0000    16          
    76  Na    c     11.1834 *     8.9467 *    -2.2367 *  0.0000    16          
    77  Cl    c      2.2367 *    11.1834 *     8.9467 *  0.0000    16          
    78  Na    c      4.4734 *    13.4201 *     4.4734 *  0.0000    16          
    79  Na    c      4.4734 *     4.4734      13.4201 *  0.0000     8          
    80  O     c      0.0000      13.4201 *     6.7100 *  0.0000     8          
    81  O     c      4.4734 *     8.9467 *    11.1834 *  0.0000    16          
    82  Na    c      2.2367 *    13.4201 *     6.7100 *  0.0000    16          
    83  Na    c      6.7100 *    13.4201 *    -2.2367 *  0.0000    16          
    84  Cl    c      2.2367 *     6.7100 *    13.4201 *  0.0000    16          
    85  Na    c      8.9467 *     8.9467       8.9467 *  0.0000     8          
    86  O     c      4.4734 *    13.4201 *     6.7100 *  0.0000    16          
    87  O     c      0.0000       0.0000      15.6568 *  0.0000     2          
    88  Cl    c      2.2367 *    15.6568 *     0.0000    0.0000     8          
    89  Na    c     15.6568 *     0.0000      -2.2367 *  0.0000     8          
    90  Na    c      6.7100 *     8.9467 *    11.1834 *  0.0000    16          
    91  Na    c     11.1834 *     8.9467 *     6.7100 *  0.0000    16          
    92  Cl    c      6.7100 *    11.1834 *     8.9467 *  0.0000    16          
    93  Cl    c     11.1834 *    11.1834       0.0000    0.0000     4          
    94  Na    c      2.2367 *     0.0000      15.6568 *  0.0000     8          
    95  Na    c     11.1834 *     0.0000      11.1834 *  0.0000     8          
    96  Na    c      0.0000      13.4201 *     8.9467 *  0.0000     8          
    97  Na    c      8.9467 *    13.4201 *     0.0000    0.0000     8          
    98  Na    c      0.0000       8.9467 *    13.4201 *  0.0000     8          
    99  O     c      8.9467 *    13.4201 *    -2.2367 *  0.0000    16          
   100  O     c      0.0000       4.4734 *    15.6568 *  0.0000     8          
   101  Na    c      6.7100 *    13.4201 *     6.7100 *  0.0000    16          
   102  Cl    c      2.2367 *    15.6568 *     4.4734 *  0.0000    16          
   103  Cl    c      6.7100 *     6.7100      13.4201 *  0.0000     8          
   104  Na    c     15.6568 *     4.4734 *    -2.2367 *  0.0000    16          
   105  Cl    c     11.1834 *    11.1834       4.4734 *  0.0000     8          
   106  Na    c      2.2367 *     4.4734 *    15.6568 *  0.0000    16          
   107  Na    c     11.1834 *     4.4734 *    11.1834 *  0.0000    16          
   108  Na    c      4.4734 *    13.4201 *     8.9467 *  0.0000    16          
   109  Na    c      8.9467 *    13.4201 *     4.4734 *  0.0000    16          
   110  Na    c      4.4734 *     8.9467 *    13.4201 *  0.0000    16          
   111  O     c      4.4734 *     4.4734      15.6568 *  0.0000     8          
   112  O     c      8.9467 *     8.9467      11.1834 *  0.0000     8          
   113  O     s      0.0000       0.0000      -2.2367 *  0.0000     2          
   114  Cl    s      2.2367 *     2.2367       0.0000    0.0000     4          
   115  O     s      0.0000       4.4734 *    -2.2367 *  0.0000     8          
   116  Cl    s      2.2367 *     2.2367       4.4734 *  0.0000     8          
   117  O     s      0.0000       0.0000       6.7100 *  0.0000     2          
   118  O     s      4.4734 *     4.4734      -2.2367 *  0.0000     8          
   119  Cl    s      2.2367 *     6.7100 *     0.0000    0.0000     8          
   120  O     s      0.0000       4.4734 *     6.7100 *  0.0000     8          
   121  Cl    s      2.2367 *     6.7100 *     4.4734 *  0.0000    16          
   122  O     s      0.0000       8.9467 *    -2.2367 *  0.0000     8          
   123  O     s      4.4734 *     4.4734       6.7100 *  0.0000     8          
   124  Cl    s      2.2367 *     2.2367       8.9467 *  0.0000     8          
   125  Cl    s      6.7100 *     6.7100       0.0000    0.0000     4          
   126  O     s      4.4734 *     8.9467 *    -2.2367 *  0.0000    16          
   127  Cl    s      6.7100 *     6.7100       4.4734 *  0.0000     8          
   128  O     s      0.0000       8.9467 *     6.7100 *  0.0000     8          
   129  O     s      0.0000       0.0000      11.1834 *  0.0000     2          
   130  Cl    s      2.2367 *     6.7100 *     8.9467 *  0.0000    16          
   131  Cl    s      2.2367 *    11.1834 *     0.0000    0.0000     8          
   132  O     s      4.4734 *     8.9467 *     6.7100 *  0.0000    16          
   133  O     s      0.0000       4.4734 *    11.1834 *  0.0000     8          
   134  Cl    s      2.2367 *    11.1834 *     4.4734 *  0.0000    16          
   135  O     s      4.4734 *     4.4734      11.1834 *  0.0000     8          
   136  O     s      8.9467 *     8.9467      -2.2367 *  0.0000     8          
   137  Cl    s      6.7100 *     6.7100       8.9467 *  0.0000     8          
   138  Cl    s      6.7100 *    11.1834 *     0.0000    0.0000     8          
   139  O     s      0.0000      13.4201 *    -2.2367 *  0.0000     8          
   140  Cl    s      2.2367 *     2.2367      13.4201 *  0.0000     8          
   141  Cl    s      6.7100 *    11.1834 *     4.4734 *  0.0000    16          
   142  O     s      4.4734 *    13.4201 *    -2.2367 *  0.0000    16          
   143  O     s      0.0000       8.9467 *    11.1834 *  0.0000     8          
   144  O     s      8.9467 *     8.9467       6.7100 *  0.0000     8          
   145  Cl    s      2.2367 *    11.1834 *     8.9467 *  0.0000    16          
   146  O     s      0.0000      13.4201 *     6.7100 *  0.0000     8          
   147  O     s      4.4734 *     8.9467 *    11.1834 *  0.0000    16          
   148  Cl    s      2.2367 *     6.7100 *    13.4201 *  0.0000    16          
   149  O     s      4.4734 *    13.4201 *     6.7100 *  0.0000    16          
   150  O     s      0.0000       0.0000      15.6568 *  0.0000     2          
   151  Cl    s      2.2367 *    15.6568 *     0.0000    0.0000     8          
   152  Cl    s      6.7100 *    11.1834 *     8.9467 *  0.0000    16          
   153  Cl    s     11.1834 *    11.1834       0.0000    0.0000     4          
   154  O     s      8.9467 *    13.4201 *    -2.2367 *  0.0000    16          
   155  O     s      0.0000       4.4734 *    15.6568 *  0.0000     8          
   156  Cl    s      2.2367 *    15.6568 *     4.4734 *  0.0000    16          
   157  Cl    s      6.7100 *     6.7100      13.4201 *  0.0000     8          
   158  Cl    s     11.1834 *    11.1834       4.4734 *  0.0000     8          
   159  O     s      4.4734 *     4.4734      15.6568 *  0.0000     8          
   160  O     s      8.9467 *     8.9467      11.1834 *  0.0000     8          
--------------------------------------------------------------------------------


  Constraints on symmetry reduced coordinates :

--------------------------------------------------------------------------------
  Constraint no.      Unconstrained     Constrained    Coefficient    
                         Variable         Variable
--------------------------------------------------------------------------------
           1                 2 x             2 y         1.00000
           2                 8 x             8 y         1.00000
           3                10 x            10 y         1.00000
           4                12 x            12 y         1.00000
           5                16 x            16 y         1.00000
           6                24 x            24 y         1.00000
           7                25 x            25 y         1.00000
           8                26 x            26 y         1.00000
           9                33 x            33 y         1.00000
          10                36 x            36 y         1.00000
          11                51 x            51 y         1.00000
          12                52 x            52 y         1.00000
          13                53 x            53 y         1.00000
          14                54 x            54 y         1.00000
          15                62 x            62 y         1.00000
          16                65 x            65 y         1.00000
          17                74 x            74 y         1.00000
          18                79 x            79 y         1.00000
          19                85 x            85 y         1.00000
          20                93 x            93 y         1.00000
          21               103 x           103 y         1.00000
          22               105 x           105 y         1.00000
          23               111 x           111 y         1.00000
          24               112 x           112 y         1.00000
          25               114 x           114 y         1.00000
          26               116 x           116 y         1.00000
          27               118 x           118 y         1.00000
          28               123 x           123 y         1.00000
          29               124 x           124 y         1.00000
          30               125 x           125 y         1.00000
          31               127 x           127 y         1.00000
          32               135 x           135 y         1.00000
          33               136 x           136 y         1.00000
          34               137 x           137 y         1.00000
          35               140 x           140 y         1.00000
          36               144 x           144 y         1.00000
          37               153 x           153 y         1.00000
          38               157 x           157 y         1.00000
          39               158 x           158 y         1.00000
          40               159 x           159 y         1.00000
          41               160 x           160 y         1.00000
--------------------------------------------------------------------------------


  Components of defect energy : 

--------------------------------------------------------------------------------
  Region 1 - region 1                   =     -4.35828377 eV
  Region 1 - region 2a (unrelaxed)      =     12.62981144 eV
  Region 1 - 2a (relaxed - correction)  =     -0.22968141 eV
  Region 1 (Total)                      =      8.04184626 eV
  Region 2a                             =      0.11482504 eV
  Region 2b                             =     -0.28057235 eV
--------------------------------------------------------------------------------
  Total defect energy                   =      7.87609896 eV
--------------------------------------------------------------------------------

  Largest displacement in region 2 =   0.0090 Angstroms


  Number of variables =      355

  Maximum number of calculations  =        1000
  Maximum Hessian update interval =          10
  Maximum step size               =   1.0000000
  Maximum parameter tolerance     =   0.0000100
  Maximum function  tolerance     =   0.0000100
  Maximum gradient  tolerance     =   0.0010000

  Symmetry adapted optimisation

  Symmetry to be used for second derivatives

  Newton-Raphson optimiser to be used

  BFGS hessian update to be used

  Lower half triangular hessian to be used

  Start of defect optimisation :

  Cycle:      0 Defect Energy:   7.876099  Gnorm:     0.113539  CPU:   13.139
  ** Hessian calculated **
  Cycle:      1 Defect Energy:   5.392973  Gnorm:     0.057478  CPU:   21.613
  Cycle:      2 Defect Energy:   4.653888  Gnorm:     0.007656  CPU:   27.807
  ** Hessian calculated **
  Cycle:      3 Defect Energy:   4.604152  Gnorm:     0.005398  CPU:   30.971
  Cycle:      4 Defect Energy:   4.571603  Gnorm:     0.003874  CPU:   32.245
  Cycle:      5 Defect Energy:   4.539963  Gnorm:     0.002863  CPU:   33.528
  Cycle:      6 Defect Energy:   4.496799  Gnorm:     0.002815  CPU:   34.826
  Cycle:      7 Defect Energy:   4.444197  Gnorm:     0.007124  CPU:   36.086
  ** Hessian calculated **
  Cycle:      8 Defect Energy:   4.435177  Gnorm:     0.003378  CPU:   43.262
  Cycle:      9 Defect Energy:   4.427537  Gnorm:     0.002400  CPU:   44.862
  Cycle:     10 Defect Energy:   4.418925  Gnorm:     0.001762  CPU:   46.622
  Cycle:     11 Defect Energy:   4.408245  Gnorm:     0.002186  CPU:   48.185
  Cycle:     12 Defect Energy:   4.394395  Gnorm:     0.003084  CPU:   49.681
  Cycle:     13 Defect Energy:   4.375884  Gnorm:     0.004277  CPU:   51.177
  Cycle:     14 Defect Energy:   4.351172  Gnorm:     0.005503  CPU:   52.798
  Cycle:     15 Defect Energy:   4.320074  Gnorm:     0.007200  CPU:   53.766
  Cycle:     16 Defect Energy:   4.302315  Gnorm:     0.007311  CPU:   54.560
  Cycle:     17 Defect Energy:   4.291501  Gnorm:     0.007290  CPU:   55.315
  ** Hessian calculated **
  Cycle:     18 Defect Energy:   4.264541  Gnorm:     0.006707  CPU:   57.396
  Cycle:     19 Defect Energy:   4.216853  Gnorm:     0.004988  CPU:   58.150
  Cycle:     20 Defect Energy:   4.180483  Gnorm:     0.003281  CPU:   58.979
  Cycle:     21 Defect Energy:   4.168189  Gnorm:     0.002130  CPU:   59.808
  Cycle:     22 Defect Energy:   4.162977  Gnorm:     0.001429  CPU:   60.609
  Cycle:     23 Defect Energy:   4.160584  Gnorm:     0.000841  CPU:   61.436
  Cycle:     24 Defect Energy:   4.159820  Gnorm:     0.000562  CPU:   62.165
  Cycle:     25 Defect Energy:   4.159528  Gnorm:     0.000392  CPU:   62.915
  Cycle:     26 Defect Energy:   4.159391  Gnorm:     0.000274  CPU:   63.632
  Cycle:     27 Defect Energy:   4.159325  Gnorm:     0.000192  CPU:   64.367
  ** Hessian calculated **
  Cycle:     28 Defect Energy:   4.159295  Gnorm:     0.000134  CPU:   66.601
  Cycle:     29 Defect Energy:   4.159282  Gnorm:     0.000094  CPU:   67.304


  **** Optimisation achieved ****


  Final defect energy  =        4.15927601
  Final defect Gnorm   =        0.00006574

  Components of defect energy : 

--------------------------------------------------------------------------------
  Region 1 - region 1                   =     -6.12747882 eV
  Region 1 - region 2a (unrelaxed)      =     10.66979083 eV
  Region 1 - 2a (relaxed - correction)  =     -0.20492234 eV
  Region 1 (Total)                      =      4.33738967 eV
  Region 2a                             =      0.10245869 eV
  Region 2b                             =     -0.28057235 eV
--------------------------------------------------------------------------------
  Total defect energy                   =      4.15927601 eV
--------------------------------------------------------------------------------

  Largest displacement in region 2 =   0.0090 Angstroms

  Final coordinates of region 1 :

--------------------------------------------------------------------------------
   No.  Atomic        x           y           z          Radius      Charge
        Label       (Angs)      (Angs)      (Angs)       (Angs)       (e) 
--------------------------------------------------------------------------------
     1  O     c     2.236680    2.236680   -2.339265    0.000000    0.183000
     2  O     c     2.236680    2.236680    2.339265    0.000000    0.183000
     3  Cl    c     4.579369    4.579369    0.000000    0.000000    1.485000
     4  Cl    c     4.579369   -0.106008    0.000000    0.000000    1.485000
     5  Cl    c    -0.106008    4.579369    0.000000    0.000000    1.485000
     6  Cl    c    -0.106008   -0.106008    0.000000    0.000000    1.485000
     7  Na    c     4.372769    2.236680   -1.867898    0.000000    1.000000
     8  Na    c     4.372769    2.236680    1.867898    0.000000    1.000000
     9  Na    c     0.100592    2.236680   -1.867898    0.000000    1.000000
    10  Na    c     0.100592    2.236680    1.867898    0.000000    1.000000
    11  Na    c     2.236680    4.372769   -1.867898    0.000000    1.000000
    12  Na    c     2.236680    4.372769    1.867898    0.000000    1.000000
    13  Na    c     2.236680    0.100592   -1.867898    0.000000    1.000000
    14  Na    c     2.236680    0.100592    1.867898    0.000000    1.000000
    15  Na    c     2.236680    2.236680    4.477941    0.000000    1.000000
    16  Na    c     2.236680    2.236680   -4.477941    0.000000    1.000000
    17  Na    c     2.236680    6.987189    0.000000    0.000000    1.000000
    18  Na    c     2.236680   -2.513828    0.000000    0.000000    1.000000
    19  Na    c     6.987189    2.236680    0.000000    0.000000    1.000000
    20  Na    c    -2.513828    2.236680    0.000000    0.000000    1.000000
    21  O     c     2.236680    6.685900   -2.222282    0.000000    0.183000
    22  O     c     2.236680    6.685900    2.222282    0.000000    0.183000
    23  O     c     2.236680   -2.212539   -2.222282    0.000000    0.183000
    24  O     c     2.236680   -2.212539    2.222282    0.000000    0.183000
    25  O     c     6.685900    2.236680   -2.222282    0.000000    0.183000
    26  O     c     6.685900    2.236680    2.222282    0.000000    0.183000
    27  O     c    -2.212539    2.236680   -2.222282    0.000000    0.183000
    28  O     c    -2.212539    2.236680    2.222282    0.000000    0.183000
    29  Na    c     4.466236    6.676281   -2.212035    0.000000    1.000000
    30  Na    c     4.466236    6.676281    2.212035    0.000000    1.000000
    31  Na    c     4.466236   -2.202920   -2.212035    0.000000    1.000000
    32  Na    c     4.466236   -2.202920    2.212035    0.000000    1.000000
    33  Na    c     0.007125    6.676281   -2.212035    0.000000    1.000000
    34  Na    c     0.007125    6.676281    2.212035    0.000000    1.000000
    35  Na    c     0.007125   -2.202920   -2.212035    0.000000    1.000000
    36  Na    c     0.007125   -2.202920    2.212035    0.000000    1.000000
    37  Na    c     6.676281    4.466236   -2.212035    0.000000    1.000000
    38  Na    c     6.676281    4.466236    2.212035    0.000000    1.000000
    39  Na    c     6.676281    0.007125   -2.212035    0.000000    1.000000
    40  Na    c     6.676281    0.007125    2.212035    0.000000    1.000000
    41  Na    c    -2.202920    4.466236   -2.212035    0.000000    1.000000
    42  Na    c    -2.202920    4.466236    2.212035    0.000000    1.000000
    43  Na    c    -2.202920    0.007125   -2.212035    0.000000    1.000000
    44  Na    c    -2.202920    0.007125    2.212035    0.000000    1.000000
    45  Cl    c     4.548304    4.548304    4.570720    0.000000    1.485000
    46  Cl    c     4.548304    4.548304   -4.570720    0.000000    1.485000
    47  Cl    c     4.548304   -0.074943    4.570720    0.000000    1.485000
    48  Cl    c     4.548304   -0.074943   -4.570720    0.000000    1.485000
    49  Cl    c    -0.074943    4.548304    4.570720    0.000000    1.485000
    50  Cl    c    -0.074943    4.548304   -4.570720    0.000000    1.485000
    51  Cl    c    -0.074943   -0.074943    4.570720    0.000000    1.485000
    52  Cl    c    -0.074943   -0.074943   -4.570720    0.000000    1.485000
    53  Na    c     2.236680    6.352398    4.436351    0.000000    1.000000
    54  Na    c     2.236680    6.352398   -4.436351    0.000000    1.000000
    55  Na    c     2.236680   -1.879037    4.436351    0.000000    1.000000
    56  Na    c     2.236680   -1.879037   -4.436351    0.000000    1.000000
    57  Na    c     6.352398    2.236680    4.436351    0.000000    1.000000
    58  Na    c     6.352398    2.236680   -4.436351    0.000000    1.000000
    59  Na    c    -1.879037    2.236680    4.436351    0.000000    1.000000
    60  Na    c    -1.879037    2.236680   -4.436351    0.000000    1.000000
    61  Na    c     6.720571    6.720571    0.000000    0.000000    1.000000
    62  Na    c     6.720571   -2.247210    0.000000    0.000000    1.000000
    63  Na    c    -2.247210    6.720571    0.000000    0.000000    1.000000
    64  Na    c    -2.247210   -2.247210    0.000000    0.000000    1.000000
    65  O     c     2.236680    2.236680    6.772575    0.000000    0.183000
    66  O     c     2.236680    2.236680   -6.772575    0.000000    0.183000
    67  O     c     6.713647    6.713647   -2.243211    0.000000    0.183000
    68  O     c     6.713647    6.713647    2.243211    0.000000    0.183000
    69  O     c     6.713647   -2.240286   -2.243211    0.000000    0.183000
    70  O     c     6.713647   -2.240286    2.243211    0.000000    0.183000
    71  O     c    -2.240286    6.713647   -2.243211    0.000000    0.183000
    72  O     c    -2.240286    6.713647    2.243211    0.000000    0.183000
    73  O     c    -2.240286   -2.240286   -2.243211    0.000000    0.183000
    74  O     c    -2.240286   -2.240286    2.243211    0.000000    0.183000
    75  Cl    c     4.495193    8.962944    0.000000    0.000000    1.485000
    76  Cl    c     4.495193   -4.489583    0.000000    0.000000    1.485000
    77  Cl    c     8.962944    4.495193    0.000000    0.000000    1.485000
    78  Cl    c     8.962944   -0.021832    0.000000    0.000000    1.485000
    79  Cl    c    -0.021832    8.962944    0.000000    0.000000    1.485000
    80  Cl    c    -0.021832   -4.489583    0.000000    0.000000    1.485000
    81  Cl    c    -4.489583    4.495193    0.000000    0.000000    1.485000
    82  Cl    c    -4.489583   -0.021832    0.000000    0.000000    1.485000
    83  Na    c     4.469098    2.236680    6.832412    0.000000    1.000000
    84  Na    c     4.469098    2.236680   -6.832412    0.000000    1.000000
    85  Na    c     0.004263    2.236680    6.832412    0.000000    1.000000
    86  Na    c     0.004263    2.236680   -6.832412    0.000000    1.000000
    87  Na    c     2.236680    4.469098    6.832412    0.000000    1.000000
    88  Na    c     2.236680    4.469098   -6.832412    0.000000    1.000000
    89  Na    c     2.236680    0.004263    6.832412    0.000000    1.000000
    90  Na    c     2.236680    0.004263   -6.832412    0.000000    1.000000
    91  Na    c     8.925233    2.236680   -2.544373    0.000000    1.000000
    92  Na    c     8.925233    2.236680    2.544373    0.000000    1.000000
    93  Na    c    -4.451872    2.236680   -2.544373    0.000000    1.000000
    94  Na    c    -4.451872    2.236680    2.544373    0.000000    1.000000
    95  Na    c     2.236680    8.925233   -2.544373    0.000000    1.000000
    96  Na    c     2.236680    8.925233    2.544373    0.000000    1.000000
    97  Na    c     2.236680   -4.451872   -2.544373    0.000000    1.000000
    98  Na    c     2.236680   -4.451872    2.544373    0.000000    1.000000
    99  Na    c     6.678647    6.678647    4.474449    0.000000    1.000000
   100  Na    c     6.678647    6.678647   -4.474449    0.000000    1.000000
   101  Na    c     6.678647   -2.205287    4.474449    0.000000    1.000000
   102  Na    c     6.678647   -2.205287   -4.474449    0.000000    1.000000
   103  Na    c    -2.205287    6.678647    4.474449    0.000000    1.000000
   104  Na    c    -2.205287    6.678647   -4.474449    0.000000    1.000000
   105  Na    c    -2.205287   -2.205287    4.474449    0.000000    1.000000
   106  Na    c    -2.205287   -2.205287   -4.474449    0.000000    1.000000
   107  O     c     2.236680    6.703616    6.684898    0.000000    0.183000
   108  O     c     2.236680    6.703616   -6.684898    0.000000    0.183000
   109  O     c     2.236680   -2.230255    6.684898    0.000000    0.183000
   110  O     c     2.236680   -2.230255   -6.684898    0.000000    0.183000
   111  O     c     6.703616    2.236680    6.684898    0.000000    0.183000
   112  O     c     6.703616    2.236680   -6.684898    0.000000    0.183000
   113  O     c    -2.230255    2.236680    6.684898    0.000000    0.183000
   114  O     c    -2.230255    2.236680   -6.684898    0.000000    0.183000
   115  Cl    c     4.504396    8.977265    4.472946    0.000000    1.485000
   116  Cl    c     4.504396    8.977265   -4.472946    0.000000    1.485000
   117  Cl    c     4.504396   -4.503904    4.472946    0.000000    1.485000
   118  Cl    c     4.504396   -4.503904   -4.472946    0.000000    1.485000
   119  Cl    c     8.977265    4.504396    4.472946    0.000000    1.485000
   120  Cl    c     8.977265    4.504396   -4.472946    0.000000    1.485000
   121  Cl    c     8.977265   -0.031035    4.472946    0.000000    1.485000
   122  Cl    c     8.977265   -0.031035   -4.472946    0.000000    1.485000
   123  Cl    c    -0.031035    8.977265    4.472946    0.000000    1.485000
   124  Cl    c    -0.031035    8.977265   -4.472946    0.000000    1.485000
   125  Cl    c    -0.031035   -4.503904    4.472946    0.000000    1.485000
   126  Cl    c    -0.031035   -4.503904   -4.472946    0.000000    1.485000
   127  Cl    c    -4.503904    4.504396    4.472946    0.000000    1.485000
   128  Cl    c    -4.503904    4.504396   -4.472946    0.000000    1.485000
   129  Cl    c    -4.503904   -0.031035    4.472946    0.000000    1.485000
   130  Cl    c    -4.503904   -0.031035   -4.472946    0.000000    1.485000
   131  Na    c     4.474110    6.703117    6.684183    0.000000    1.000000
   132  Na    c     4.474110    6.703117   -6.684183    0.000000    1.000000
   133  Na    c     4.474110   -2.229756    6.684183    0.000000    1.000000
   134  Na    c     4.474110   -2.229756   -6.684183    0.000000    1.000000
   135  Na    c    -0.000749    6.703117    6.684183    0.000000    1.000000
   136  Na    c    -0.000749    6.703117   -6.684183    0.000000    1.000000
   137  Na    c    -0.000749   -2.229756    6.684183    0.000000    1.000000
   138  Na    c    -0.000749   -2.229756   -6.684183    0.000000    1.000000
   139  Na    c     6.703117    4.474110    6.684183    0.000000    1.000000
   140  Na    c     6.703117    4.474110   -6.684183    0.000000    1.000000
   141  Na    c     6.703117   -0.000749    6.684183    0.000000    1.000000
   142  Na    c     6.703117   -0.000749   -6.684183    0.000000    1.000000
   143  Na    c    -2.229756    4.474110    6.684183    0.000000    1.000000
   144  Na    c    -2.229756    4.474110   -6.684183    0.000000    1.000000
   145  Na    c    -2.229756   -0.000749    6.684183    0.000000    1.000000
   146  Na    c    -2.229756   -0.000749   -6.684183    0.000000    1.000000
   147  Na    c     8.941187    6.703082   -2.261812    0.000000    1.000000
   148  Na    c     8.941187    6.703082    2.261812    0.000000    1.000000
   149  Na    c     8.941187   -2.229721   -2.261812    0.000000    1.000000
   150  Na    c     8.941187   -2.229721    2.261812    0.000000    1.000000
   151  Na    c    -4.467827    6.703082   -2.261812    0.000000    1.000000
   152  Na    c    -4.467827    6.703082    2.261812    0.000000    1.000000
   153  Na    c    -4.467827   -2.229721   -2.261812    0.000000    1.000000
   154  Na    c    -4.467827   -2.229721    2.261812    0.000000    1.000000
   155  Na    c     6.703082    8.941187   -2.261812    0.000000    1.000000
   156  Na    c     6.703082    8.941187    2.261812    0.000000    1.000000
   157  Na    c     6.703082   -4.467827   -2.261812    0.000000    1.000000
   158  Na    c     6.703082   -4.467827    2.261812    0.000000    1.000000
   159  Na    c    -2.229721    8.941187   -2.261812    0.000000    1.000000
   160  Na    c    -2.229721    8.941187    2.261812    0.000000    1.000000
   161  Na    c    -2.229721   -4.467827   -2.261812    0.000000    1.000000
   162  Na    c    -2.229721   -4.467827    2.261812    0.000000    1.000000
   163  Na    c     2.236680    2.236680    8.981980    0.000000    1.000000
   164  Na    c     2.236680    2.236680   -8.981980    0.000000    1.000000
   165  Na    c     2.236680   10.868548    0.000000    0.000000    1.000000
   166  Na    c     2.236680   -6.395187    0.000000    0.000000    1.000000
   167  Na    c    10.868548    2.236680    0.000000    0.000000    1.000000
   168  Na    c    -6.395187    2.236680    0.000000    0.000000    1.000000
   169  O     c     2.236680   11.173803   -2.247887    0.000000    0.183000
   170  O     c     2.236680   11.173803    2.247887    0.000000    0.183000
   171  O     c     2.236680   -6.700442   -2.247887    0.000000    0.183000
   172  O     c     2.236680   -6.700442    2.247887    0.000000    0.183000
   173  O     c    11.173803    2.236680   -2.247887    0.000000    0.183000
   174  O     c    11.173803    2.236680    2.247887    0.000000    0.183000
   175  O     c    -6.700442    2.236680   -2.247887    0.000000    0.183000
   176  O     c    -6.700442    2.236680    2.247887    0.000000    0.183000
   177  O     c     6.722251    6.722251    6.718104    0.000000    0.183000
   178  O     c     6.722251    6.722251   -6.718104    0.000000    0.183000
   179  O     c     6.722251   -2.248890    6.718104    0.000000    0.183000
   180  O     c     6.722251   -2.248890   -6.718104    0.000000    0.183000
   181  O     c    -2.248890    6.722251    6.718104    0.000000    0.183000
   182  O     c    -2.248890    6.722251   -6.718104    0.000000    0.183000
   183  O     c    -2.248890   -2.248890    6.718104    0.000000    0.183000
   184  O     c    -2.248890   -2.248890   -6.718104    0.000000    0.183000
   185  Cl    c     4.466164    4.466164    8.974234    0.000000    1.485000
   186  Cl    c     4.466164    4.466164   -8.974234    0.000000    1.485000
   187  Cl    c     4.466164    0.007196    8.974234    0.000000    1.485000
   188  Cl    c     4.466164    0.007196   -8.974234    0.000000    1.485000
   189  Cl    c     0.007196    4.466164    8.974234    0.000000    1.485000
   190  Cl    c     0.007196    4.466164   -8.974234    0.000000    1.485000
   191  Cl    c     0.007196    0.007196    8.974234    0.000000    1.485000
   192  Cl    c     0.007196    0.007196   -8.974234    0.000000    1.485000
   193  Cl    c     8.954564    8.954564    0.000000    0.000000    1.485000
   194  Cl    c     8.954564   -4.481203    0.000000    0.000000    1.485000
   195  Cl    c    -4.481203    8.954564    0.000000    0.000000    1.485000
   196  Cl    c    -4.481203   -4.481203    0.000000    0.000000    1.485000
   197  Na    c     4.469868   11.164017   -2.294269    0.000000    1.000000
   198  Na    c     4.469868   11.164017    2.294269    0.000000    1.000000
   199  Na    c     4.469868   -6.690656   -2.294269    0.000000    1.000000
   200  Na    c     4.469868   -6.690656    2.294269    0.000000    1.000000
   201  Na    c     0.003493   11.164017   -2.294269    0.000000    1.000000
   202  Na    c     0.003493   11.164017    2.294269    0.000000    1.000000
   203  Na    c     0.003493   -6.690656   -2.294269    0.000000    1.000000
   204  Na    c     0.003493   -6.690656    2.294269    0.000000    1.000000
   205  Na    c    11.164017    4.469868   -2.294269    0.000000    1.000000
   206  Na    c    11.164017    4.469868    2.294269    0.000000    1.000000
   207  Na    c    11.164017    0.003493   -2.294269    0.000000    1.000000
   208  Na    c    11.164017    0.003493    2.294269    0.000000    1.000000
   209  Na    c    -6.690656    4.469868   -2.294269    0.000000    1.000000
   210  Na    c    -6.690656    4.469868    2.294269    0.000000    1.000000
   211  Na    c    -6.690656    0.003493   -2.294269    0.000000    1.000000
   212  Na    c    -6.690656    0.003493    2.294269    0.000000    1.000000
   213  Na    c     8.929449    2.236680    6.425859    0.000000    1.000000
   214  Na    c     8.929449    2.236680   -6.425859    0.000000    1.000000
   215  Na    c    -4.456088    2.236680    6.425859    0.000000    1.000000
   216  Na    c    -4.456088    2.236680   -6.425859    0.000000    1.000000
   217  Na    c     2.236680    8.929449    6.425859    0.000000    1.000000
   218  Na    c     2.236680    8.929449   -6.425859    0.000000    1.000000
   219  Na    c     2.236680   -4.456088    6.425859    0.000000    1.000000
   220  Na    c     2.236680   -4.456088   -6.425859    0.000000    1.000000
   221  Na    c     2.236680    6.865320    8.926924    0.000000    1.000000
   222  Na    c     2.236680    6.865320   -8.926924    0.000000    1.000000
   223  Na    c     2.236680   -2.391959    8.926924    0.000000    1.000000
   224  Na    c     2.236680   -2.391959   -8.926924    0.000000    1.000000
   225  Na    c     6.865320    2.236680    8.926924    0.000000    1.000000
   226  Na    c     6.865320    2.236680   -8.926924    0.000000    1.000000
   227  Na    c    -2.391959    2.236680    8.926924    0.000000    1.000000
   228  Na    c    -2.391959    2.236680   -8.926924    0.000000    1.000000
   229  Na    c     2.236680   11.477151    4.467256    0.000000    1.000000
   230  Na    c     2.236680   11.477151   -4.467256    0.000000    1.000000
   231  Na    c     2.236680   -7.003790    4.467256    0.000000    1.000000
   232  Na    c     2.236680   -7.003790   -4.467256    0.000000    1.000000
   233  Na    c    11.477151    2.236680    4.467256    0.000000    1.000000
   234  Na    c    11.477151    2.236680   -4.467256    0.000000    1.000000
   235  Na    c    -7.003790    2.236680    4.467256    0.000000    1.000000
   236  Na    c    -7.003790    2.236680   -4.467256    0.000000    1.000000
   237  Na    c     6.585381   11.158127    0.000000    0.000000    1.000000
   238  Na    c     6.585381   -6.684767    0.000000    0.000000    1.000000
   239  Na    c    11.158127    6.585381    0.000000    0.000000    1.000000
   240  Na    c    11.158127   -2.112020    0.000000    0.000000    1.000000
   241  Na    c    -2.112020   11.158127    0.000000    0.000000    1.000000
   242  Na    c    -2.112020   -6.684767    0.000000    0.000000    1.000000
   243  Na    c    -6.684767    6.585381    0.000000    0.000000    1.000000
   244  Na    c    -6.684767   -2.112020    0.000000    0.000000    1.000000
   245  O     c     6.714292   11.184618   -2.229198    0.000000    0.183000
   246  O     c     6.714292   11.184618    2.229198    0.000000    0.183000
   247  O     c     6.714292   -6.711257   -2.229198    0.000000    0.183000
   248  O     c     6.714292   -6.711257    2.229198    0.000000    0.183000
   249  O     c    11.184618    6.714292   -2.229198    0.000000    0.183000
   250  O     c    11.184618    6.714292    2.229198    0.000000    0.183000
   251  O     c    11.184618   -2.240931   -2.229198    0.000000    0.183000
   252  O     c    11.184618   -2.240931    2.229198    0.000000    0.183000
   253  O     c    -2.240931   11.184618   -2.229198    0.000000    0.183000
   254  O     c    -2.240931   11.184618    2.229198    0.000000    0.183000
   255  O     c    -2.240931   -6.711257   -2.229198    0.000000    0.183000
   256  O     c    -2.240931   -6.711257    2.229198    0.000000    0.183000
   257  O     c    -6.711257    6.714292   -2.229198    0.000000    0.183000
   258  O     c    -6.711257    6.714292    2.229198    0.000000    0.183000
   259  O     c    -6.711257   -2.240931   -2.229198    0.000000    0.183000
   260  O     c    -6.711257   -2.240931    2.229198    0.000000    0.183000
   261  Cl    c     8.950262    8.950262    4.480432    0.000000    1.485000
   262  Cl    c     8.950262    8.950262   -4.480432    0.000000    1.485000
   263  Cl    c     8.950262   -4.476901    4.480432    0.000000    1.485000
   264  Cl    c     8.950262   -4.476901   -4.480432    0.000000    1.485000
   265  Cl    c    -4.476901    8.950262    4.480432    0.000000    1.485000
   266  Cl    c    -4.476901    8.950262   -4.480432    0.000000    1.485000
   267  Cl    c    -4.476901   -4.476901    4.480432    0.000000    1.485000
   268  Cl    c    -4.476901   -4.476901   -4.480432    0.000000    1.485000
   269  Na    c     8.948495    6.723726    6.689720    0.000000    1.000000
   270  Na    c     8.948495    6.723726   -6.689720    0.000000    1.000000
   271  Na    c     8.948495   -2.250365    6.689720    0.000000    1.000000
   272  Na    c     8.948495   -2.250365   -6.689720    0.000000    1.000000
   273  Na    c    -4.475134    6.723726    6.689720    0.000000    1.000000
   274  Na    c    -4.475134    6.723726   -6.689720    0.000000    1.000000
   275  Na    c    -4.475134   -2.250365    6.689720    0.000000    1.000000
   276  Na    c    -4.475134   -2.250365   -6.689720    0.000000    1.000000
   277  Na    c     6.723726    8.948495    6.689720    0.000000    1.000000
   278  Na    c     6.723726    8.948495   -6.689720    0.000000    1.000000
   279  Na    c     6.723726   -4.475134    6.689720    0.000000    1.000000
   280  Na    c     6.723726   -4.475134   -6.689720    0.000000    1.000000
   281  Na    c    -2.250365    8.948495    6.689720    0.000000    1.000000
   282  Na    c    -2.250365    8.948495   -6.689720    0.000000    1.000000
   283  Na    c    -2.250365   -4.475134    6.689720    0.000000    1.000000
   284  Na    c    -2.250365   -4.475134   -6.689720    0.000000    1.000000
   285  Na    c     6.809134   11.183795    4.466941    0.000000    1.000000
   286  Na    c     6.809134   11.183795   -4.466941    0.000000    1.000000
   287  Na    c     6.809134   -6.710434    4.466941    0.000000    1.000000
   288  Na    c     6.809134   -6.710434   -4.466941    0.000000    1.000000
   289  Na    c    11.183795    6.809134    4.466941    0.000000    1.000000
   290  Na    c    11.183795    6.809134   -4.466941    0.000000    1.000000
   291  Na    c    11.183795   -2.335773    4.466941    0.000000    1.000000
   292  Na    c    11.183795   -2.335773   -4.466941    0.000000    1.000000
   293  Na    c    -2.335773   11.183795    4.466941    0.000000    1.000000
   294  Na    c    -2.335773   11.183795   -4.466941    0.000000    1.000000
   295  Na    c    -2.335773   -6.710434    4.466941    0.000000    1.000000
   296  Na    c    -2.335773   -6.710434   -4.466941    0.000000    1.000000
   297  Na    c    -6.710434    6.809134    4.466941    0.000000    1.000000
   298  Na    c    -6.710434    6.809134   -4.466941    0.000000    1.000000
   299  Na    c    -6.710434   -2.335773    4.466941    0.000000    1.000000
   300  Na    c    -6.710434   -2.335773   -4.466941    0.000000    1.000000
   301  Na    c     6.719557    6.719557    8.940585    0.000000    1.000000
   302  Na    c     6.719557    6.719557   -8.940585    0.000000    1.000000
   303  Na    c     6.719557   -2.246196    8.940585    0.000000    1.000000
   304  Na    c     6.719557   -2.246196   -8.940585    0.000000    1.000000
   305  Na    c    -2.246196    6.719557    8.940585    0.000000    1.000000
   306  Na    c    -2.246196    6.719557   -8.940585    0.000000    1.000000
   307  Na    c    -2.246196   -2.246196    8.940585    0.000000    1.000000
   308  Na    c    -2.246196   -2.246196   -8.940585    0.000000    1.000000
   309  O     c     2.236680   11.179701    6.688869    0.000000    0.183000
   310  O     c     2.236680   11.179701   -6.688869    0.000000    0.183000
   311  O     c     2.236680   -6.706340    6.688869    0.000000    0.183000
   312  O     c     2.236680   -6.706340   -6.688869    0.000000    0.183000
   313  O     c    11.179701    2.236680    6.688869    0.000000    0.183000
   314  O     c    11.179701    2.236680   -6.688869    0.000000    0.183000
   315  O     c    -6.706340    2.236680    6.688869    0.000000    0.183000
   316  O     c    -6.706340    2.236680   -6.688869    0.000000    0.183000
   317  O     c     2.236680    2.236680   11.182374    0.000000    0.183000
   318  O     c     2.236680    2.236680  -11.182374    0.000000    0.183000
   319  Cl    c     4.487968    8.952355    8.962209    0.000000    1.485000
   320  Cl    c     4.487968    8.952355   -8.962209    0.000000    1.485000
   321  Cl    c     4.487968   -4.478995    8.962209    0.000000    1.485000
   322  Cl    c     4.487968   -4.478995   -8.962209    0.000000    1.485000
   323  Cl    c     8.952355    4.487968    8.962209    0.000000    1.485000
   324  Cl    c     8.952355    4.487968   -8.962209    0.000000    1.485000
   325  Cl    c     8.952355   -0.014607    8.962209    0.000000    1.485000
   326  Cl    c     8.952355   -0.014607   -8.962209    0.000000    1.485000
   327  Cl    c    -0.014607    8.952355    8.962209    0.000000    1.485000
   328  Cl    c    -0.014607    8.952355   -8.962209    0.000000    1.485000
   329  Cl    c    -0.014607   -4.478995    8.962209    0.000000    1.485000
   330  Cl    c    -0.014607   -4.478995   -8.962209    0.000000    1.485000
   331  Cl    c    -4.478995    4.487968    8.962209    0.000000    1.485000
   332  Cl    c    -4.478995    4.487968   -8.962209    0.000000    1.485000
   333  Cl    c    -4.478995   -0.014607    8.962209    0.000000    1.485000
   334  Cl    c    -4.478995   -0.014607   -8.962209    0.000000    1.485000
   335  Na    c     4.473869   11.146423    6.651225    0.000000    1.000000
   336  Na    c     4.473869   11.146423   -6.651225    0.000000    1.000000
   337  Na    c     4.473869   -6.673062    6.651225    0.000000    1.000000
   338  Na    c     4.473869   -6.673062   -6.651225    0.000000    1.000000
   339  Na    c    -0.000508   11.146423    6.651225    0.000000    1.000000
   340  Na    c    -0.000508   11.146423   -6.651225    0.000000    1.000000
   341  Na    c    -0.000508   -6.673062    6.651225    0.000000    1.000000
   342  Na    c    -0.000508   -6.673062   -6.651225    0.000000    1.000000
   343  Na    c    11.146423    4.473869    6.651225    0.000000    1.000000
   344  Na    c    11.146423    4.473869   -6.651225    0.000000    1.000000
   345  Na    c    11.146423   -0.000508    6.651225    0.000000    1.000000
   346  Na    c    11.146423   -0.000508   -6.651225    0.000000    1.000000
   347  Na    c    -6.673062    4.473869    6.651225    0.000000    1.000000
   348  Na    c    -6.673062    4.473869   -6.651225    0.000000    1.000000
   349  Na    c    -6.673062   -0.000508    6.651225    0.000000    1.000000
   350  Na    c    -6.673062   -0.000508   -6.651225    0.000000    1.000000
   351  Na    c     8.949682   11.174010   -2.086280    0.000000    1.000000
   352  Na    c     8.949682   11.174010    2.086280    0.000000    1.000000
   353  Na    c     8.949682   -6.700649   -2.086280    0.000000    1.000000
   354  Na    c     8.949682   -6.700649    2.086280    0.000000    1.000000
   355  Na    c    -4.476321   11.174010   -2.086280    0.000000    1.000000
   356  Na    c    -4.476321   11.174010    2.086280    0.000000    1.000000
   357  Na    c    -4.476321   -6.700649   -2.086280    0.000000    1.000000
   358  Na    c    -4.476321   -6.700649    2.086280    0.000000    1.000000
   359  Na    c    11.174010    8.949682   -2.086280    0.000000    1.000000
   360  Na    c    11.174010    8.949682    2.086280    0.000000    1.000000
   361  Na    c    11.174010   -4.476321   -2.086280    0.000000    1.000000
   362  Na    c    11.174010   -4.476321    2.086280    0.000000    1.000000
   363  Na    c    -6.700649    8.949682   -2.086280    0.000000    1.000000
   364  Na    c    -6.700649    8.949682    2.086280    0.000000    1.000000
   365  Na    c    -6.700649   -4.476321   -2.086280    0.000000    1.000000
   366  Na    c    -6.700649   -4.476321    2.086280    0.000000    1.000000
   367  Cl    c     4.489257   13.432268    0.000000    0.000000    1.485000
   368  Cl    c     4.489257   -8.958907    0.000000    0.000000    1.485000
   369  Cl    c    13.432268    4.489257    0.000000    0.000000    1.485000
   370  Cl    c    13.432268   -0.015896    0.000000    0.000000    1.485000
   371  Cl    c    -0.015896   13.432268    0.000000    0.000000    1.485000
   372  Cl    c    -0.015896   -8.958907    0.000000    0.000000    1.485000
   373  Cl    c    -8.958907    4.489257    0.000000    0.000000    1.485000
   374  Cl    c    -8.958907   -0.015896    0.000000    0.000000    1.485000
   375  Na    c     4.484640    2.236680   11.129343    0.000000    1.000000
   376  Na    c     4.484640    2.236680  -11.129343    0.000000    1.000000
   377  Na    c    -0.011279    2.236680   11.129343    0.000000    1.000000
   378  Na    c    -0.011279    2.236680  -11.129343    0.000000    1.000000
   379  Na    c     2.236680    4.484640   11.129343    0.000000    1.000000
   380  Na    c     2.236680    4.484640  -11.129343    0.000000    1.000000
   381  Na    c     2.236680   -0.011279   11.129343    0.000000    1.000000
   382  Na    c     2.236680   -0.011279  -11.129343    0.000000    1.000000
   383  Na    c    13.407713    2.236680   -1.958440    0.000000    1.000000
   384  Na    c    13.407713    2.236680    1.958440    0.000000    1.000000
   385  Na    c    -8.934352    2.236680   -1.958440    0.000000    1.000000
   386  Na    c    -8.934352    2.236680    1.958440    0.000000    1.000000
   387  Na    c     2.236680   13.407713   -1.958440    0.000000    1.000000
   388  Na    c     2.236680   13.407713    1.958440    0.000000    1.000000
   389  Na    c     2.236680   -8.934352   -1.958440    0.000000    1.000000
   390  Na    c     2.236680   -8.934352    1.958440    0.000000    1.000000
   391  O     c     6.714370   11.186691    6.711988    0.000000    0.183000
   392  O     c     6.714370   11.186691   -6.711988    0.000000    0.183000
   393  O     c     6.714370   -6.713330    6.711988    0.000000    0.183000
   394  O     c     6.714370   -6.713330   -6.711988    0.000000    0.183000
   395  O     c    11.186691    6.714370    6.711988    0.000000    0.183000
   396  O     c    11.186691    6.714370   -6.711988    0.000000    0.183000
   397  O     c    11.186691   -2.241009    6.711988    0.000000    0.183000
   398  O     c    11.186691   -2.241009   -6.711988    0.000000    0.183000
   399  O     c    -2.241009   11.186691    6.711988    0.000000    0.183000
   400  O     c    -2.241009   11.186691   -6.711988    0.000000    0.183000
   401  O     c    -2.241009   -6.713330    6.711988    0.000000    0.183000
   402  O     c    -2.241009   -6.713330   -6.711988    0.000000    0.183000
   403  O     c    -6.713330    6.714370    6.711988    0.000000    0.183000
   404  O     c    -6.713330    6.714370   -6.711988    0.000000    0.183000
   405  O     c    -6.713330   -2.241009    6.711988    0.000000    0.183000
   406  O     c    -6.713330   -2.241009   -6.711988    0.000000    0.183000
   407  O     c     2.236680    6.721771   11.185385    0.000000    0.183000
   408  O     c     2.236680    6.721771  -11.185385    0.000000    0.183000
[...]
     80 y         15.656763     15.646280    -0.010483    Cartesian   -0.07
     80 z          6.710041      6.723855     0.013814    Cartesian    0.21
     81 x          6.710041      6.706916    -0.003126    Cartesian   -0.05
     81 y         11.183402     11.183489     0.000086    Cartesian    0.00
     81 z         11.183402     11.180805    -0.002597    Cartesian   -0.02
     82 x          4.473361      4.473021    -0.000340    Cartesian   -0.01
     82 y         15.656763     15.658679     0.001916    Cartesian    0.01
     82 z          6.710041      6.667543    -0.042498    Cartesian   -0.63
     83 x          8.946722      8.945424    -0.001298    Cartesian   -0.01
     83 y         15.656763     15.664044     0.007281    Cartesian    0.05
     83 z         -2.236680     -2.159277     0.077403    Cartesian   -3.46
     84 x          4.473361      4.473076    -0.000285    Cartesian   -0.01
     84 y          8.946722      8.949725     0.003003    Cartesian    0.03
     84 z         13.420083     13.429025     0.008942    Cartesian    0.07
     85 x         11.183402     11.236193     0.052791    Cartesian    0.47
     85 y         11.183402     11.236193     0.052791    Cartesian    0.47
     85 z          8.946722      8.943277    -0.003445    Cartesian   -0.04
     86 x          6.710041      6.710875     0.000834    Cartesian    0.01
     86 y         15.656763     15.657315     0.000552    Cartesian    0.00
     86 z          6.710041      6.707856    -0.002185    Cartesian   -0.03
     87 x          2.236680      2.236680     0.000000    Cartesian    0.00
     87 y          2.236680      2.236680     0.000000    Cartesian    0.00
     87 z         15.656763     15.661931     0.005168    Cartesian    0.03
     88 x          4.473361      4.484488     0.011127    Cartesian    0.25
     88 y         17.893444     17.898643     0.005199    Cartesian    0.03
     88 z          0.000000      0.000000     0.000000    Cartesian    0.00
     89 x         17.893444     17.888315    -0.005129    Cartesian   -0.03
     89 y          2.236680      2.236680     0.000000    Cartesian    0.00
     89 z         -2.236680     -2.346210    -0.109530    Cartesian    4.90
     90 x          8.946722      8.948166     0.001444    Cartesian    0.02
     90 y         11.183402     11.175521    -0.007881    Cartesian   -0.07
     90 z         11.183402     11.148143    -0.035259    Cartesian   -0.32
     91 x         13.420083     13.416316    -0.003767    Cartesian   -0.03
     91 y         11.183402     11.195045     0.011643    Cartesian    0.10
     91 z          6.710041      6.639410    -0.070631    Cartesian   -1.05
     92 x          8.946722      8.950708     0.003986    Cartesian    0.04
     92 y         13.420083     13.427217     0.007134    Cartesian    0.05
     92 z          8.946722      8.953580     0.006859    Cartesian    0.08
     93 x         13.420083     13.445294     0.025211    Cartesian    0.19
     93 y         13.420083     13.445294     0.025211    Cartesian    0.19
     93 z          0.000000      0.000000     0.000000    Cartesian    0.00
     94 x          4.473361      4.469091    -0.004270    Cartesian   -0.10
     94 y          2.236680      2.236680     0.000000    Cartesian    0.00
     94 z         15.656763     15.663223     0.006460    Cartesian    0.04
     95 x         13.420083     13.408823    -0.011259    Cartesian   -0.08
     95 y          2.236680      2.236680     0.000000    Cartesian    0.00
     95 z         11.183402     11.099559    -0.083844    Cartesian   -0.75
     96 x          2.236680      2.236680     0.000000    Cartesian    0.00
     96 y         15.656763     15.715186     0.058423    Cartesian    0.37
     96 z          8.946722      8.950727     0.004005    Cartesian    0.04
     97 x         11.183402     11.223604     0.040202    Cartesian    0.36
     97 y         15.656763     15.587782    -0.068981    Cartesian   -0.44
     97 z          0.000000      0.000000     0.000000    Cartesian    0.00
     98 x          2.236680      2.236680     0.000000    Cartesian    0.00
     98 y         11.183402     11.234600     0.051198    Cartesian    0.46
     98 z         13.420083     13.420254     0.000171    Cartesian    0.00
     99 x         11.183402     11.184068     0.000665    Cartesian    0.01
     99 y         15.656763     15.657464     0.000701    Cartesian    0.00
     99 z         -2.236680     -2.242686    -0.006006    Cartesian    0.27
    100 x          2.236680      2.236680     0.000000    Cartesian    0.00
    100 y          6.710041      6.705658    -0.004384    Cartesian   -0.07
    100 z         15.656763     15.660838     0.004075    Cartesian    0.03
    101 x          8.946722      8.945116    -0.001606    Cartesian   -0.02
    101 y         15.656763     15.627961    -0.028802    Cartesian   -0.18
    101 z          6.710041      6.749432     0.039391    Cartesian    0.59
    102 x          4.473361      4.473379     0.000018    Cartesian    0.00
    102 y         17.893444     17.916019     0.022575    Cartesian    0.13
    102 z          4.473361      4.475016     0.001655    Cartesian    0.04
    103 x          8.946722      8.949014     0.002292    Cartesian    0.03
    103 y          8.946722      8.949014     0.002292    Cartesian    0.03
    103 z         13.420083     13.429854     0.009772    Cartesian    0.07
    104 x         17.893444     17.890250    -0.003194    Cartesian   -0.02
    104 y          6.710041      6.695375    -0.014667    Cartesian   -0.22
    104 z         -2.236680     -2.234530     0.002151    Cartesian   -0.10
    105 x         13.420083     13.428661     0.008578    Cartesian    0.06
    105 y         13.420083     13.428661     0.008578    Cartesian    0.06
    105 z          4.473361      4.480312     0.006951    Cartesian    0.16
    106 x          4.473361      4.473666     0.000305    Cartesian    0.01
    106 y          6.710041      6.709180    -0.000861    Cartesian   -0.01
    106 z         15.656763     15.650205    -0.006558    Cartesian   -0.04
    107 x         13.420083     13.417243    -0.002840    Cartesian   -0.02
    107 y          6.710041      6.717306     0.007264    Cartesian    0.11
    107 z         11.183402     11.182380    -0.001023    Cartesian   -0.01
    108 x          6.710041      6.684127    -0.025914    Cartesian   -0.39
    108 y         15.656763     15.644072    -0.012691    Cartesian   -0.08
    108 z          8.946722      8.944057    -0.002665    Cartesian   -0.03
    109 x         11.183402     11.144361    -0.039041    Cartesian   -0.35
    109 y         15.656763     15.699022     0.042259    Cartesian    0.27
    109 z          4.473361      4.475181     0.001820    Cartesian    0.04
    110 x          6.710041      6.719590     0.009548    Cartesian    0.14
    110 y         11.183402     11.176621    -0.006782    Cartesian   -0.06
    110 z         13.420083     13.415243    -0.004840    Cartesian   -0.04
    111 x          6.710041      6.711587     0.001546    Cartesian    0.02
    111 y          6.710041      6.711587     0.001546    Cartesian    0.02
    111 z         15.656763     15.660771     0.004008    Cartesian    0.03
    112 x         11.183402     11.191313     0.007911    Cartesian    0.07
    112 y         11.183402     11.191313     0.007911    Cartesian    0.07
    112 z         11.183402     11.179456    -0.003947    Cartesian   -0.04
    113 x          2.236680      2.236680     0.000000    Cartesian    0.00
    113 y          2.236680      2.236680     0.000000    Cartesian    0.00
    113 z         -2.236680     -2.339391    -0.102710    Cartesian    4.59
    114 x          4.473361      4.580472     0.107111    Cartesian    2.39
    114 y          4.473361      4.580472     0.107111    Cartesian    2.39
    114 z          0.000000      0.000000     0.000000    Cartesian    0.00
    115 x          2.236680      2.236680     0.000000    Cartesian    0.00
    115 y          6.710041      6.685959    -0.024082    Cartesian   -0.36
    115 z         -2.236680     -2.222289     0.014392    Cartesian   -0.64
    116 x          4.473361      4.559588     0.086227    Cartesian    1.93
    116 y          4.473361      4.559588     0.086227    Cartesian    1.93
    116 z          4.473361      4.582292     0.108931    Cartesian    2.44
    117 x          2.236680      2.236680     0.000000    Cartesian    0.00
    117 y          2.236680      2.236680     0.000000    Cartesian    0.00
    117 z          6.710041      6.772705     0.062663    Cartesian    0.93
    118 x          6.710041      6.713655     0.003614    Cartesian    0.05
    118 y          6.710041      6.713655     0.003614    Cartesian    0.05
    118 z         -2.236680     -2.243219    -0.006539    Cartesian    0.29
    119 x          4.473361      4.492940     0.019579    Cartesian    0.44
    119 y          8.946722      8.967247     0.020525    Cartesian    0.23
    119 z          0.000000      0.000000     0.000000    Cartesian    0.00
    120 x          2.236680      2.236680     0.000000    Cartesian    0.00
    120 y          6.710041      6.703585    -0.006456    Cartesian   -0.10
    120 z          6.710041      6.684908    -0.025133    Cartesian   -0.37
    121 x          4.473361      4.500703     0.027342    Cartesian    0.61
    121 y          8.946722      8.981605     0.034883    Cartesian    0.39
    121 z          4.473361      4.473299    -0.000062    Cartesian   -0.00
    122 x          2.236680      2.236680     0.000000    Cartesian    0.00
    122 y         11.183402     11.173819    -0.009584    Cartesian   -0.09
    122 z         -2.236680     -2.247930    -0.011249    Cartesian    0.50
    123 x          6.710041      6.722263     0.012222    Cartesian    0.18
    123 y          6.710041      6.722263     0.012222    Cartesian    0.18
    123 z          6.710041      6.718105     0.008064    Cartesian    0.12
    124 x          4.473361      4.462613    -0.010748    Cartesian   -0.24
    124 y          4.473361      4.462613    -0.010748    Cartesian   -0.24
    124 z          8.946722      8.976180     0.029458    Cartesian    0.33
    125 x          8.946722      8.958468     0.011746    Cartesian    0.13
    125 y          8.946722      8.958468     0.011746    Cartesian    0.13
    125 z          0.000000      0.000000     0.000000    Cartesian    0.00
    126 x          6.710041      6.714290     0.004249    Cartesian    0.06
    126 y         11.183402     11.184620     0.001218    Cartesian    0.01
    126 z         -2.236680     -2.229184     0.007496    Cartesian   -0.34
    127 x          8.946722      8.952596     0.005874    Cartesian    0.07
    127 y          8.946722      8.952596     0.005874    Cartesian    0.07
    127 z          4.473361      4.482169     0.008809    Cartesian    0.20
    128 x          2.236680      2.236680     0.000000    Cartesian    0.00
    128 y         11.183402     11.179732    -0.003670    Cartesian   -0.03
    128 z          6.710041      6.688847    -0.021194    Cartesian   -0.32
    129 x          2.236680      2.236680     0.000000    Cartesian    0.00
    129 y          2.236680      2.236680     0.000000    Cartesian    0.00
    129 z         11.183402     11.182310    -0.001092    Cartesian   -0.01
    130 x          4.473361      4.487559     0.014198    Cartesian    0.32
    130 y          8.946722      8.954723     0.008001    Cartesian    0.09
    130 z          8.946722      8.965972     0.019250    Cartesian    0.22
    131 x          4.473361      4.487200     0.013839    Cartesian    0.31
    131 y         13.420083     13.434744     0.014661    Cartesian    0.11
    131 z          0.000000      0.000000     0.000000    Cartesian    0.00
    132 x          6.710041      6.714378     0.004337    Cartesian    0.06
    132 y         11.183402     11.186691     0.003289    Cartesian    0.03
    132 z          6.710041      6.712000     0.001959    Cartesian    0.03
    133 x          2.236680      2.236680     0.000000    Cartesian    0.00
    133 y          6.710041      6.721791     0.011750    Cartesian    0.18
    133 z         11.183402     11.185414     0.002012    Cartesian    0.02
    134 x          4.473361      4.480535     0.007174    Cartesian    0.16
    134 y         13.420083     13.436521     0.016438    Cartesian    0.12
    134 z          4.473361      4.481301     0.007941    Cartesian    0.18
    135 x          6.710041      6.709914    -0.000127    Cartesian   -0.00
    135 y          6.710041      6.709914    -0.000127    Cartesian   -0.00
    135 z         11.183402     11.181733    -0.001669    Cartesian   -0.01
    136 x         11.183402     11.188184     0.004782    Cartesian    0.04
    136 y         11.183402     11.188184     0.004782    Cartesian    0.04
    136 z         -2.236680     -2.230676     0.006005    Cartesian   -0.27
    137 x          8.946722      8.963712     0.016990    Cartesian    0.19
    137 y          8.946722      8.963712     0.016990    Cartesian    0.19
    137 z          8.946722      8.957225     0.010504    Cartesian    0.12
    138 x          8.946722      8.961514     0.014792    Cartesian    0.17
    138 y         13.420083     13.431902     0.011819    Cartesian    0.09
    138 z          0.000000      0.000000     0.000000    Cartesian    0.00
    139 x          2.236680      2.236680     0.000000    Cartesian    0.00
    139 y         15.656763     15.649599    -0.007164    Cartesian   -0.05
    139 z         -2.236680     -2.231010     0.005670    Cartesian   -0.25
    140 x          4.473361      4.480619     0.007258    Cartesian    0.16
    140 y          4.473361      4.480619     0.007258    Cartesian    0.16
    140 z         13.420083     13.439732     0.019649    Cartesian    0.15
    141 x          8.946722      8.955809     0.009087    Cartesian    0.10
    141 y         13.420083     13.435777     0.015695    Cartesian    0.12
    141 z          4.473361      4.481576     0.008215    Cartesian    0.18
    142 x          6.710041      6.708414    -0.001628    Cartesian   -0.02
    142 y         15.656763     15.655354    -0.001409    Cartesian   -0.01
    142 z         -2.236680     -2.235058     0.001622    Cartesian   -0.07
    143 x          2.236680      2.236680     0.000000    Cartesian    0.00
    143 y         11.183402     11.168424    -0.014979    Cartesian   -0.13
    143 z         11.183402     11.182318    -0.001084    Cartesian   -0.01
    144 x         11.183402     11.180126    -0.003276    Cartesian   -0.03
    144 y         11.183402     11.180126    -0.003276    Cartesian   -0.03
    144 z          6.710041      6.711221     0.001180    Cartesian    0.02
    145 x          4.473361      4.477235     0.003874    Cartesian    0.09
    145 y         13.420083     13.440815     0.020733    Cartesian    0.15
    145 z          8.946722      8.953940     0.007218    Cartesian    0.08
    146 x          2.236680      2.236680     0.000000    Cartesian    0.00
    146 y         15.656763     15.646273    -0.010490    Cartesian   -0.07
    146 z          6.710041      6.723894     0.013853    Cartesian    0.21
    147 x          6.710041      6.706907    -0.003135    Cartesian   -0.05
    147 y         11.183402     11.183490     0.000088    Cartesian    0.00
    147 z         11.183402     11.180802    -0.002600    Cartesian   -0.02
    148 x          4.473361      4.472268    -0.001093    Cartesian   -0.02
    148 y          8.946722      8.950197     0.003475    Cartesian    0.04
    148 z         13.420083     13.428321     0.008238    Cartesian    0.06
    149 x          6.710041      6.710880     0.000839    Cartesian    0.01
    149 y         15.656763     15.657312     0.000548    Cartesian    0.00
    149 z          6.710041      6.707859    -0.002183    Cartesian   -0.03
    150 x          2.236680      2.236680     0.000000    Cartesian    0.00
    150 y          2.236680      2.236680     0.000000    Cartesian    0.00
    150 z         15.656763     15.661956     0.005193    Cartesian    0.03
    151 x          4.473361      4.485874     0.012513    Cartesian    0.28
    151 y         17.893444     17.896346     0.002902    Cartesian    0.02
    151 z          0.000000      0.000000     0.000000    Cartesian    0.00
    152 x          8.946722      8.951424     0.004702    Cartesian    0.05
    152 y         13.420083     13.427480     0.007397    Cartesian    0.06
    152 z          8.946722      8.953715     0.006993    Cartesian    0.08
    153 x         13.420083     13.445002     0.024919    Cartesian    0.19
    153 y         13.420083     13.445002     0.024919    Cartesian    0.19
    153 z          0.000000      0.000000     0.000000    Cartesian    0.00
    154 x         11.183402     11.184069     0.000667    Cartesian    0.01
    154 y         15.656763     15.657466     0.000703    Cartesian    0.00
    154 z         -2.236680     -2.242702    -0.006021    Cartesian    0.27
    155 x          2.236680      2.236680     0.000000    Cartesian    0.00
    155 y          6.710041      6.705646    -0.004395    Cartesian   -0.07
    155 z         15.656763     15.660840     0.004076    Cartesian    0.03
    156 x          4.473361      4.472870    -0.000491    Cartesian   -0.01
    156 y         17.893444     17.919806     0.026362    Cartesian    0.15
    156 z          4.473361      4.473804     0.000443    Cartesian    0.01
    157 x          8.946722      8.949121     0.002400    Cartesian    0.03
    157 y          8.946722      8.949121     0.002400    Cartesian    0.03
    157 z         13.420083     13.431659     0.011576    Cartesian    0.09
    158 x         13.420083     13.428759     0.008677    Cartesian    0.06
    158 y         13.420083     13.428759     0.008677    Cartesian    0.06
    158 z          4.473361      4.480458     0.007097    Cartesian    0.16
    159 x          6.710041      6.711588     0.001547    Cartesian    0.02
    159 y          6.710041      6.711588     0.001547    Cartesian    0.02
    159 z         15.656763     15.660777     0.004014    Cartesian    0.03
    160 x         11.183402     11.191331     0.007929    Cartesian    0.07
    160 y         11.183402     11.191331     0.007929    Cartesian    0.07
    160 z         11.183402     11.179443    -0.003960    Cartesian   -0.04
--------------------------------------------------------------------------------


  Time to end of optimisation  =       68.1109 seconds


  Peak dynamic memory used =     445.93 MB 


  Timing analysis for GULP :

--------------------------------------------------------------------------------
  Task / Subroutine                                          Time (Seconds)
--------------------------------------------------------------------------------
  Calculation of reciprocal space energy and derivatives          0.0004
  Calculation of reciprocal space energy using symmetry           0.0006
  Calculation of real space energy and derivatives                0.0020
  Calculation of real space energy using symmetry                 0.0054
  Calculation for region 1 energy and derivatives (2-b)          39.1464
  Calculation for region 2a energy                               26.2452
  Calculation for region 2b energy                                0.0004
  Calculation and manipulation of Hessian matrix                  2.1031
  Calculation of matrix inversion                                 0.1252
  Symmetry generation of equivalent positions                     0.0028
--------------------------------------------------------------------------------
  Total CPU time                                                 68.1109
--------------------------------------------------------------------------------


  Dump file written as Na3OCl.grs


  Job Finished at 14:27.17  3rd January    2021                               

