********************************************************************************
*                       GENERAL UTILITY LATTICE PROGRAM                        *
*                                 Julian Gale                                  *
*                       Curtin Institute for Computation                       *
*                    School of Molecular and Life Sciences                     *
*                    Curtin University, Western Australia                      *
********************************************************************************
* Version = 5.2.0 * Last modified =  10th September 2020                       *
********************************************************************************
*  optimise     - perform optimisation run                                     *
*  conp         - constant pressure calculation                                *
*  property     - calculate properties for final geometry                      *
*  defect       - perform defect calculation after bulk run                    *
*  compare      - compare initial and final structures                         *
********************************************************************************

  Job Started  at 14:26.19  3rd January    2021                               

  Number of CPUs =     1


  Total number of configurations input =      1

********************************************************************************
*  Input for Configuration =   1                                               *
********************************************************************************

  Formula = ClONa3                                                      

  Number of irreducible atoms/shells =       5


  Total number atoms/shells =       7

  Dimensionality = 3               :  Bulk   


  Symmetry :

  Crystal family                   :  Cubic       
  Crystal class  (Groth - 1921)    :  Cubic Hexakisoctahedral              

  Space group (centrosymmetric)    :  P M 3 M         

  Patterson group                  :  P m -3 m 

  Cartesian lattice vectors (Angstroms) :

        4.504000    0.000000    0.000000
        0.000000    4.504000    0.000000
        0.000000    0.000000    4.504000

  Cell parameters (Angstroms/Degrees):

  a =       4.5040    alpha =  90.0000
  b =       4.5040    beta  =  90.0000
  c =       4.5040    gamma =  90.0000

  Initial cell volume =          91.368216 Angs**3

  Temperature of configuration =   0.00     K 

  Pressure of configuration =         0.000 GPa 

  Fractional coordinates of asymmetric unit :

--------------------------------------------------------------------------------
   No.  Atomic       x           y          z         Charge      Occupancy
        Label      (Frac)      (Frac)     (Frac)        (e)         (Frac)  
--------------------------------------------------------------------------------
      1 Cl    c    0.000000    0.000000    0.000000     1.48500    1.000000    
      2 O     c    0.500000    0.500000    0.500000     0.18300    1.000000    
      3 Na    c    0.500000    0.500000    0.000000     1.00000    1.000000    
      4 Cl    s    0.000000    0.000000    0.000000    -2.48500    1.000000    
      5 O     s    0.500000    0.500000    0.500000    -2.18300    1.000000    
--------------------------------------------------------------------------------


  Constraints : 

--------------------------------------------------------------------------------
  Constraint no.      Unconstrained     Constrained    Coefficient    Offset
                         Variable         Variable
--------------------------------------------------------------------------------
           1              Strain 1        Strain 2       1.00000      0.0000
           2              Strain 1        Strain 3       1.00000      0.0000
--------------------------------------------------------------------------------


********************************************************************************
*  General input information                                                   *
********************************************************************************

  Species output for all configurations : 

--------------------------------------------------------------------------------
  Species    Type    Atomic    Atomic    Charge       Radii (Angs)     Library
                     Number     Mass       (e)     Cova   Ionic  VDW   Symbol
--------------------------------------------------------------------------------
    Na       Core       11      22.99   1.000000   0.970  0.000  2.300          
    O        Core        8      16.00   0.183000   0.730  0.000  1.360          
    O        Shell       8       0.00  -2.183000   0.730  0.000  1.360          
    Cl       Core       17      35.45   1.485000   0.990  0.000  1.650          
    Cl       Shell      17       0.00  -2.485000   0.990  0.000  1.650          
    Mg       Core       12      24.31   0.415000   1.100  0.000  0.000          
    Mg       Shell      12       0.00   1.585000   1.100  0.000  0.000          
    Ca       Core       20      40.08  -1.135000   0.990  0.000  0.000          
    Ca       Shell      20       0.00   3.135000   0.990  0.000  0.000          
    Sr       Core       38      87.62  -1.251000   1.120  0.000  0.000          
    Sr       Shell      38       0.00   3.251000   1.120  0.000  0.000          
    Ba       Core       56     137.33  -7.203000   1.340  0.000  0.000          
    Ba       Shell      56       0.00   9.203000   1.340  0.000  0.000          
--------------------------------------------------------------------------------


  Lattice summation method               =    Ewald          (3-D)
                                         =    Parry          (2-D)
                                         =    Saunders et al (1-D)
  Accuracy factor for lattice sums       =   12.000


  Analytic derivatives to be used

  Time limit = Infinity

  Maximum range for interatomic potentials =    100000.000000 Angstroms

  General interatomic potentials :

--------------------------------------------------------------------------------
Atom  Types   Potential      Parameter       Value         Units   Cutoffs(Ang)
  1     2                                                            Min /  Max 
--------------------------------------------------------------------------------
O    c O    s Spring (c-s)  Spring k 2       593.71600    eV*Ang^-2 0.000  0.800
                            Spring k 4       0.0000000    eV*Ang^-4 
--------------------------------------------------------------------------------
Cl   c Cl   s Spring (c-s)  Spring k 2       29.380000    eV*Ang^-2 0.000  0.800
                            Spring k 4       0.0000000    eV*Ang^-4 
--------------------------------------------------------------------------------
Mg   c Mg   s Spring (c-s)  Spring k 2       361.60000    eV*Ang^-2 0.000  0.800
                            Spring k 4       0.0000000    eV*Ang^-4 
--------------------------------------------------------------------------------
Ca   c Ca   s Spring (c-s)  Spring k 2       110.20000    eV*Ang^-2 0.000  0.800
                            Spring k 4       0.0000000    eV*Ang^-4 
--------------------------------------------------------------------------------
Sr   c Sr   s Spring (c-s)  Spring k 2       71.700000    eV*Ang^-2 0.000  0.800
                            Spring k 4       0.0000000    eV*Ang^-4 
--------------------------------------------------------------------------------
Ba   c Ba   s Spring (c-s)  Spring k 2       495.20000    eV*Ang^-2 0.000  0.800
                            Spring k 4       0.0000000    eV*Ang^-4 
--------------------------------------------------------------------------------
Na   c Na   c Buckingham    Buckingham A     1788.1900    eV        0.000 12.000
                            Buckingham rho  0.15900000    Ang       
                            Buckingham C     0.0000000    eV*Ang^6  
--------------------------------------------------------------------------------
Na   c O    s Buckingham    Buckingham A     369.22000    eV        0.000 12.000
                            Buckingham rho  0.37600000    Ang       
                            Buckingham C     0.0000000    eV*Ang^6  
--------------------------------------------------------------------------------
Na   c Cl   s Buckingham    Buckingham A     1775.1200    eV        0.000 12.000
                            Buckingham rho  0.30000000    Ang       
                            Buckingham C     0.0000000    eV*Ang^6  
--------------------------------------------------------------------------------
O    s O    s Buckingham    Buckingham A     22764.300    eV        0.000 12.000
                            Buckingham rho  0.14900000    Ang       
                            Buckingham C     13.190000    eV*Ang^6  
--------------------------------------------------------------------------------
O    s Cl   s Buckingham    Buckingham A     8286.9100    eV        0.000 12.000
                            Buckingham rho  0.25900000    Ang       
                            Buckingham C     62.200000    eV*Ang^6  
--------------------------------------------------------------------------------
Cl   s Cl   s Buckingham    Buckingham A     1227.2000    eV        0.000 12.000
                            Buckingham rho  0.32100000    Ang       
                            Buckingham C     14.530000    eV*Ang^6  
--------------------------------------------------------------------------------
O    s Mg   s Buckingham    Buckingham A     1428.5000    eV        0.000 12.000
                            Buckingham rho  0.29450000    Ang       
                            Buckingham C     0.0000000    eV*Ang^6  
--------------------------------------------------------------------------------
Mg   s Cl   s Buckingham    Buckingham A     4914.5400    eV        0.000 12.000
                            Buckingham rho  0.25700000    Ang       
                            Buckingham C     0.0000000    eV*Ang^6  
--------------------------------------------------------------------------------
O    s Ca   s Buckingham    Buckingham A     1090.4000    eV        0.000 12.000
                            Buckingham rho  0.34370000    Ang       
                            Buckingham C     0.0000000    eV*Ang^6  
--------------------------------------------------------------------------------
Cl   s Ca   s Buckingham    Buckingham A     2302.0000    eV        0.000 12.000
                            Buckingham rho  0.34020000    Ang       
                            Buckingham C     0.0000000    eV*Ang^6  
--------------------------------------------------------------------------------
O    s Sr   s Buckingham    Buckingham A     959.10000    eV        0.000 12.000
                            Buckingham rho  0.37210000    Ang       
                            Buckingham C     0.0000000    eV*Ang^6  
--------------------------------------------------------------------------------
Cl   s Sr   s Buckingham    Buckingham A     2191.0900    eV        0.000 12.000
                            Buckingham rho  0.34570000    Ang       
                            Buckingham C     0.0000000    eV*Ang^6  
--------------------------------------------------------------------------------
O    s Ba   s Buckingham    Buckingham A     905.70000    eV        0.000 12.000
                            Buckingham rho  0.39760000    Ang       
                            Buckingham C     0.0000000    eV*Ang^6  
--------------------------------------------------------------------------------
Cl   s Ba   s Buckingham    Buckingham A     2704.5500    eV        0.000 12.000
                            Buckingham rho  0.35280000    Ang       
                            Buckingham C     0.0000000    eV*Ang^6  
--------------------------------------------------------------------------------

********************************************************************************
*  Output for configuration   1                                                *
********************************************************************************


  Components of energy : 

--------------------------------------------------------------------------------
  Interatomic potentials     =           5.94260302 eV    
  Monopole - monopole (real) =         -10.03624526 eV    
  Monopole - monopole (recip)=         -29.53581274 eV    
  Monopole - monopole (total)=         -39.57205800 eV    
--------------------------------------------------------------------------------
  Total lattice energy       =         -33.62945497 eV    
--------------------------------------------------------------------------------
  Total lattice energy       =           -3244.7283 kJ/(mole unit cells)
--------------------------------------------------------------------------------


  Number of variables =        1

  Maximum number of calculations  =          1000
  Maximum Hessian update interval =            10
  Maximum step size               =   1.000000000
  Maximum parameter tolerance     =   0.000010000
  Maximum function  tolerance     =   0.000010000
  Maximum gradient  tolerance     =   0.001000000
  Maximum gradient  component     =   0.010000000

  Symmetry constrained optimisation

  Symmetry used for second derivatives

  Cell parameters to be optimised using strains

  Newton-Raphson optimiser to be used

  BFGS hessian update to be used

  Lower half triangular hessian to be used

  Start of bulk optimisation :

  Cycle:      0 Energy:       -33.629455  Gnorm:      1.259168  CPU:    0.016
  ** Hessian calculated **
  Cycle:      1 Energy:       -33.633782  Gnorm:      0.004576  CPU:    0.021


  **** Optimisation achieved ****


  Final energy =     -33.63378233 eV
  Final Gnorm  =       0.00011077

  Components of energy : 

--------------------------------------------------------------------------------
  Interatomic potentials     =           6.20931397 eV    
  Monopole - monopole (real) =         -10.10498585 eV    
  Monopole - monopole (recip)=         -29.73811044 eV    
  Monopole - monopole (total)=         -39.84309629 eV    
--------------------------------------------------------------------------------
  Total lattice energy       =         -33.63378233 eV    
--------------------------------------------------------------------------------
  Total lattice energy       =           -3245.1459 kJ/(mole unit cells)
--------------------------------------------------------------------------------

  Final asymmetric unit coordinates :

--------------------------------------------------------------------------------
   No.  Atomic        x           y           z         Radius
        Label       (Frac)      (Frac)      (Frac)       (Angs) 
--------------------------------------------------------------------------------
     1  Cl    c     0.000000    0.000000    0.000000    0.000000
     2  O     c     0.500000    0.500000    0.500000    0.000000
     3  Na    c     0.500000    0.500000    0.000000    0.000000
     4  Cl    s     0.000000    0.000000    0.000000    0.000000
     5  O     s     0.500000    0.500000    0.500000    0.000000
--------------------------------------------------------------------------------

  Final Cartesian lattice vectors (Angstroms) :

        4.473361    0.000000    0.000000
        0.000000    4.473361    0.000000
        0.000000    0.000000    4.473361


  Final cell parameters and derivatives :

--------------------------------------------------------------------------------
       a            4.473361 Angstrom     dE/de1(xx)     0.000111 eV/strain
       b            4.473361 Angstrom     dE/de2(yy)     0.000000 eV/strain
       c            4.473361 Angstrom     dE/de3(zz)     0.000000 eV/strain
       alpha       90.000000 Degrees      dE/de4(yz)     0.000000 eV/strain
       beta        90.000000 Degrees      dE/de5(xz)     0.000000 eV/strain
       gamma       90.000000 Degrees      dE/de6(xy)     0.000000 eV/strain
--------------------------------------------------------------------------------

  Primitive cell volume =            89.516236 Angs**3

  Density of cell =      2.233844 g/cm**3

  Non-primitive cell volume =            89.516236 Angs**3


  Final internal derivatives :

--------------------------------------------------------------------------------
   No.  Atomic          a             b             c           Radius
        Label          (eV)          (eV)          (eV)        (eV/Angs)
--------------------------------------------------------------------------------
      1 Cl    c       0.000000      0.000000      0.000000      0.000000
      2 O     c       0.000000      0.000000      0.000000      0.000000
      3 Na    c       0.000000      0.000000      0.000000      0.000000
      4 Cl    s       0.000000      0.000000      0.000000      0.000000
      5 O     s       0.000000      0.000000      0.000000      0.000000
--------------------------------------------------------------------------------
  Maximum abs         0.000000      0.000000      0.000000      0.000000
--------------------------------------------------------------------------------

  Comparison of initial and final structures : 

--------------------------------------------------------------------------------
  Parameter   Initial value   Final value   Difference    Units      Percent
--------------------------------------------------------------------------------
    Volume        91.368216     89.516236    -1.851980    Angs**3     -2.03
    a              4.504000      4.473361    -0.030639    Angstroms   -0.68
    b              4.504000      4.473361    -0.030639    Angstroms   -0.68
    c              4.504000      4.473361    -0.030639    Angstroms   -0.68
    alpha         90.000000     90.000000     0.000000    Degrees      0.00
    beta          90.000000     90.000000     0.000000    Degrees      0.00
    gamma         90.000000     90.000000     0.000000    Degrees      0.00
      1 x          0.000000      0.000000     0.000000    Fractional   0.00
      1 y          0.000000      0.000000     0.000000    Fractional   0.00
      1 z          0.000000      0.000000     0.000000    Fractional   0.00
      2 x          0.500000      0.500000     0.000000    Fractional   0.00
      2 y          0.500000      0.500000     0.000000    Fractional   0.00
      2 z          0.500000      0.500000     0.000000    Fractional   0.00
      3 x          0.500000      0.500000     0.000000    Fractional   0.00
      3 y          0.500000      0.500000     0.000000    Fractional   0.00
      3 z          0.000000      0.000000     0.000000    Fractional   0.00
      4 x          0.000000      0.000000     0.000000    Fractional   0.00
      4 y          0.000000      0.000000     0.000000    Fractional   0.00
      4 z          0.000000      0.000000     0.000000    Fractional   0.00
      5 x          0.500000      0.500000     0.000000    Fractional   0.00
      5 y          0.500000      0.500000     0.000000    Fractional   0.00
      5 z          0.500000      0.500000     0.000000    Fractional   0.00
--------------------------------------------------------------------------------


  Born effective charge tensors : 

-------------------------------------------------------------------------------
  Atom             x           y             z
-------------------------------------------------------------------------------
    1 Cl    x      -1.0058     -0.0000      0.0000
            y      -0.0000     -1.0058      0.0000
            z       0.0000      0.0000     -1.0058
-------------------------------------------------------------------------------
    2 O     x      -2.2847      0.0000     -0.0000
            y       0.0000     -2.2847     -0.0000
            z      -0.0000     -0.0000     -2.2847
-------------------------------------------------------------------------------
    3 Na    x       1.2228      0.0000      0.0000
            y       0.0000      1.2228     -0.0000
            z       0.0000     -0.0000      0.8451
-------------------------------------------------------------------------------




  Elastic Constant Matrix: (Units=GPa)

-------------------------------------------------------------------------------
  Indices      1         2         3         4         5         6    
-------------------------------------------------------------------------------
       1     68.5642   21.8813   21.8813   -0.0000    0.0000    0.0000
       2     21.8813   68.5642   21.8813    0.0000   -0.0000    0.0000
       3     21.8813   21.8813   68.5642   -0.0000    0.0000    0.0000
       4     -0.0000    0.0000   -0.0000   21.8814    0.0000    0.0000
       5      0.0000   -0.0000    0.0000    0.0000   21.8814    0.0000
       6      0.0000    0.0000    0.0000    0.0000    0.0000   21.8814
-------------------------------------------------------------------------------


  Elastic Compliance Matrix: (Units=1/GPa)

-------------------------------------------------------------------------------
  Indices      1         2         3         4         5         6    
-------------------------------------------------------------------------------
       1    0.017248 -0.004173 -0.004173  0.000000 -0.000000 -0.000000
       2   -0.004173  0.017248 -0.004173 -0.000000  0.000000 -0.000000
       3   -0.004173 -0.004173  0.017248  0.000000  0.000000  0.000000
       4    0.000000 -0.000000  0.000000  0.045701 -0.000000 -0.000000
       5   -0.000000  0.000000  0.000000 -0.000000  0.045701 -0.000000
       6   -0.000000 -0.000000  0.000000 -0.000000 -0.000000  0.045701
-------------------------------------------------------------------------------

  Mechanical properties :

-------------------------------------------------------------------------------
  Convention :                    Reuss         Voigt         Hill
-------------------------------------------------------------------------------
  Bulk  Modulus (GPa)     =      37.44228      37.44228      37.44228
  Shear Modulus (GPa)     =      22.44293      22.46541      22.45417
-------------------------------------------------------------------------------
  Velocity S-wave (km/s)  =       3.16966       3.17125       3.17046
  Velocity P-wave (km/s)  =       5.49155       5.49277       5.49216
-------------------------------------------------------------------------------
  Compressibility (1/GPa) =    0.02670777
-------------------------------------------------------------------------------
  Stress axis :                     x             y             z
-------------------------------------------------------------------------------
  Youngs Moduli (GPa)     =      57.97678      57.97678      57.97678
-------------------------------------------------------------------------------
  Poissons Ratio (x)      =                     0.24193       0.24193
  Poissons Ratio (y)      =       0.24193                     0.24193
  Poissons Ratio (z)      =       0.24193       0.24193
-------------------------------------------------------------------------------


  Piezoelectric Strain Matrix: (Units=C/m**2)

-------------------------------------------------------------------------------
  Indices      1         2         3         4         5         6    
-------------------------------------------------------------------------------
       x     0.00000   0.00000   0.00000   0.00000   0.00000   0.00000
       y    -0.00000  -0.00000  -0.00000   0.00000   0.00000  -0.00000
       z    -0.00000  -0.00000  -0.00000  -0.00000  -0.00000   0.00000
-------------------------------------------------------------------------------


  Piezoelectric Stress Matrix: (Units=10**-11 C/N)

-------------------------------------------------------------------------------
  Indices      1         2         3         4         5         6    
-------------------------------------------------------------------------------
       x     0.00000   0.00000   0.00000   0.00000   0.00000   0.00000
       y    -0.00000   0.00000  -0.00000   0.00000   0.00000  -0.00000
       z     0.00000   0.00000  -0.00000  -0.00000  -0.00000   0.00000
-------------------------------------------------------------------------------


  Static dielectric constant tensor : 

-------------------------------------------------------------------------------
              x         y         z
-------------------------------------------------------------------------------
       x    15.76662  -0.00000  -0.00000
       y    -0.00000  15.76662  -0.00000
       z    -0.00000  -0.00000  15.76662
--------------------------------------------------------------------------------

  High frequency dielectric constant tensor : 

-------------------------------------------------------------------------------
              x         y         z
-------------------------------------------------------------------------------
       x     1.48553   0.00000  -0.00000
       y     0.00000   1.48553  -0.00000
       z    -0.00000  -0.00000   1.48553
-------------------------------------------------------------------------------

  Static refractive indices : 

-------------------------------------------------------------------------------
    1 =    3.97072      2 =    3.97072      3 =    3.97072
-------------------------------------------------------------------------------

  High frequency refractive indices : 

-------------------------------------------------------------------------------
    1 =    1.21882      2 =    1.21882      3 =    1.21882
-------------------------------------------------------------------------------


  Time to end of optimisation =       0.0307 seconds

********************************************************************************
*  Defect calculation for configuration   1 :                                  *
********************************************************************************

  Total number of defects =      1

  Total charge on defect  =  -1.00

  Defect centre is at   0.5000   0.5000   0.0000  Frac

  Region 1 radius =  18.0000      Number of ions =   1840

  Number of symmetry inequivalent region 1 ions  =    178

  Region 2 radius =  24.0000      Number of ions =   2686

  Number of symmetry inequivalent region 2a ions =    216

  Region 2a mode = 4 : screened electrostatics due to region 1 
                       neglect correction to region 1 forces from 2a
                       region 2a displacements based on defects only

  Region 2a ions will only interact with defects in region 1

  Vacancies:

--------------------------------------------------------------------------------
    Specification type     Symbol/Number         x          y          z
--------------------------------------------------------------------------------
    Fractional                               0.500000   0.500000   0.000000
--------------------------------------------------------------------------------


  Symmetry reduced region 1 (Relative to defect centre) :

--------------------------------------------------------------------------------
   No.   Atomic       x            y             z       Radius  Multiplicity   
         Label      (Angs)       (Angs)        (Angs)    (Angs)     
--------------------------------------------------------------------------------
     1  O     c      0.0000       0.0000      -2.2367 *  0.0000     2          
     2  Cl    c      2.2367 *     2.2367       0.0000    0.0000     4          
     3  Na    c      2.2367 *     0.0000      -2.2367 *  0.0000     8          
     4  Na    c      0.0000       0.0000       4.4734 *  0.0000     2          
     5  Na    c      0.0000       4.4734 *     0.0000    0.0000     4          
     6  O     c      0.0000       4.4734 *    -2.2367 *  0.0000     8          
     7  Na    c      2.2367 *     4.4734 *    -2.2367 *  0.0000    16          
     8  Cl    c      2.2367 *     2.2367       4.4734 *  0.0000     8          
     9  Na    c      0.0000       4.4734 *     4.4734 *  0.0000     8          
    10  Na    c      4.4734 *     4.4734       0.0000    0.0000     4          
    11  O     c      0.0000       0.0000       6.7100 *  0.0000     2          
    12  O     c      4.4734 *     4.4734      -2.2367 *  0.0000     8          
    13  Cl    c      2.2367 *     6.7100 *     0.0000    0.0000     8          
    14  Na    c      2.2367 *     0.0000       6.7100 *  0.0000     8          
    15  Na    c      6.7100 *     0.0000      -2.2367 *  0.0000     8          
    16  Na    c      4.4734 *     4.4734       4.4734 *  0.0000     8          
    17  O     c      0.0000       4.4734 *     6.7100 *  0.0000     8          
    18  Cl    c      2.2367 *     6.7100 *     4.4734 *  0.0000    16          
    19  Na    c      2.2367 *     4.4734 *     6.7100 *  0.0000    16          
    20  Na    c      6.7100 *     4.4734 *    -2.2367 *  0.0000    16          
    21  Na    c      0.0000       0.0000       8.9467 *  0.0000     2          
    22  Na    c      0.0000       8.9467 *     0.0000    0.0000     4          
    23  O     c      0.0000       8.9467 *    -2.2367 *  0.0000     8          
    24  O     c      4.4734 *     4.4734       6.7100 *  0.0000     8          
    25  Cl    c      2.2367 *     2.2367       8.9467 *  0.0000     8          
    26  Cl    c      6.7100 *     6.7100       0.0000    0.0000     4          
    27  Na    c      2.2367 *     8.9467 *    -2.2367 *  0.0000    16          
    28  Na    c      6.7100 *     0.0000       6.7100 *  0.0000     8          
    29  Na    c      0.0000       4.4734 *     8.9467 *  0.0000     8          
    30  Na    c      0.0000       8.9467 *     4.4734 *  0.0000     8          
    31  Na    c      4.4734 *     8.9467 *     0.0000    0.0000     8          
    32  O     c      4.4734 *     8.9467 *    -2.2367 *  0.0000    16          
    33  Cl    c      6.7100 *     6.7100       4.4734 *  0.0000     8          
    34  Na    c      6.7100 *     4.4734 *     6.7100 *  0.0000    16          
    35  Na    c      4.4734 *     8.9467 *     4.4734 *  0.0000    16          
    36  Na    c      4.4734 *     4.4734       8.9467 *  0.0000     8          
    37  O     c      0.0000       8.9467 *     6.7100 *  0.0000     8          
    38  O     c      0.0000       0.0000      11.1834 *  0.0000     2          
    39  Cl    c      2.2367 *     6.7100 *     8.9467 *  0.0000    16          
    40  Na    c      2.2367 *     8.9467 *     6.7100 *  0.0000    16          
    41  Na    c      6.7100 *     8.9467 *    -2.2367 *  0.0000    16          
    42  Cl    c      2.2367 *    11.1834 *     0.0000    0.0000     8          
    43  Na    c      2.2367 *     0.0000      11.1834 *  0.0000     8          
    44  Na    c     11.1834 *     0.0000      -2.2367 *  0.0000     8          
    45  O     c      4.4734 *     8.9467 *     6.7100 *  0.0000    16          
    46  O     c      0.0000       4.4734 *    11.1834 *  0.0000     8          
    47  Cl    c      2.2367 *    11.1834 *     4.4734 *  0.0000    16          
    48  Na    c      2.2367 *     4.4734 *    11.1834 *  0.0000    16          
    49  Na    c     11.1834 *     4.4734 *    -2.2367 *  0.0000    16          
    50  Na    c      0.0000       8.9467 *     8.9467 *  0.0000     8          
    51  Na    c      8.9467 *     8.9467       0.0000    0.0000     4          
    52  O     c      4.4734 *     4.4734      11.1834 *  0.0000     8          
    53  O     c      8.9467 *     8.9467      -2.2367 *  0.0000     8          
    54  Cl    c      6.7100 *     6.7100       8.9467 *  0.0000     8          
    55  Na    c      6.7100 *     8.9467 *     6.7100 *  0.0000    16          
    56  Cl    c      6.7100 *    11.1834 *     0.0000    0.0000     8          
    57  Na    c      6.7100 *     0.0000      11.1834 *  0.0000     8          
    58  Na    c     11.1834 *     0.0000       6.7100 *  0.0000     8          
    59  Na    c      0.0000      13.4201 *     0.0000    0.0000     4          
    60  Na    c      0.0000       0.0000      13.4201 *  0.0000     2          
    61  Na    c      4.4734 *     8.9467 *     8.9467 *  0.0000    16          
    62  Na    c      8.9467 *     8.9467       4.4734 *  0.0000     8          
    63  O     c      0.0000      13.4201 *    -2.2367 *  0.0000     8          
    64  Na    c      2.2367 *    13.4201 *    -2.2367 *  0.0000    16          
    65  Cl    c      2.2367 *     2.2367      13.4201 *  0.0000     8          
    66  Cl    c      6.7100 *    11.1834 *     4.4734 *  0.0000    16          
    67  Na    c      6.7100 *     4.4734 *    11.1834 *  0.0000    16          
    68  Na    c     11.1834 *     4.4734 *     6.7100 *  0.0000    16          
    69  Na    c      0.0000      13.4201 *     4.4734 *  0.0000     8          
    70  Na    c      4.4734 *    13.4201 *     0.0000    0.0000     8          
    71  Na    c      0.0000       4.4734 *    13.4201 *  0.0000     8          
    72  O     c      4.4734 *    13.4201 *    -2.2367 *  0.0000    16          
    73  O     c      0.0000       8.9467 *    11.1834 *  0.0000     8          
    74  O     c      8.9467 *     8.9467       6.7100 *  0.0000     8          
    75  Na    c      2.2367 *     8.9467 *    11.1834 *  0.0000    16          
    76  Na    c     11.1834 *     8.9467 *    -2.2367 *  0.0000    16          
    77  Cl    c      2.2367 *    11.1834 *     8.9467 *  0.0000    16          
    78  Na    c      4.4734 *    13.4201 *     4.4734 *  0.0000    16          
    79  Na    c      4.4734 *     4.4734      13.4201 *  0.0000     8          
    80  O     c      0.0000      13.4201 *     6.7100 *  0.0000     8          
    81  O     c      4.4734 *     8.9467 *    11.1834 *  0.0000    16          
    82  Na    c      2.2367 *    13.4201 *     6.7100 *  0.0000    16          
    83  Na    c      6.7100 *    13.4201 *    -2.2367 *  0.0000    16          
    84  Cl    c      2.2367 *     6.7100 *    13.4201 *  0.0000    16          
    85  Na    c      8.9467 *     8.9467       8.9467 *  0.0000     8          
    86  O     c      4.4734 *    13.4201 *     6.7100 *  0.0000    16          
    87  O     c      0.0000       0.0000      15.6568 *  0.0000     2          
    88  Cl    c      2.2367 *    15.6568 *     0.0000    0.0000     8          
    89  Na    c     15.6568 *     0.0000      -2.2367 *  0.0000     8          
    90  Na    c      6.7100 *     8.9467 *    11.1834 *  0.0000    16          
    91  Na    c     11.1834 *     8.9467 *     6.7100 *  0.0000    16          
    92  Cl    c      6.7100 *    11.1834 *     8.9467 *  0.0000    16          
    93  Cl    c     11.1834 *    11.1834       0.0000    0.0000     4          
    94  Na    c      2.2367 *     0.0000      15.6568 *  0.0000     8          
    95  Na    c     11.1834 *     0.0000      11.1834 *  0.0000     8          
    96  Na    c      0.0000      13.4201 *     8.9467 *  0.0000     8          
    97  Na    c      8.9467 *    13.4201 *     0.0000    0.0000     8          
    98  Na    c      0.0000       8.9467 *    13.4201 *  0.0000     8          
    99  O     c      8.9467 *    13.4201 *    -2.2367 *  0.0000    16          
   100  O     c      0.0000       4.4734 *    15.6568 *  0.0000     8          
   101  Na    c      6.7100 *    13.4201 *     6.7100 *  0.0000    16          
   102  Cl    c      2.2367 *    15.6568 *     4.4734 *  0.0000    16          
   103  Cl    c      6.7100 *     6.7100      13.4201 *  0.0000     8          
   104  Na    c     15.6568 *     4.4734 *    -2.2367 *  0.0000    16          
   105  Cl    c     11.1834 *    11.1834       4.4734 *  0.0000     8          
   106  Na    c      2.2367 *     4.4734 *    15.6568 *  0.0000    16          
   107  Na    c     11.1834 *     4.4734 *    11.1834 *  0.0000    16          
   108  Na    c      4.4734 *    13.4201 *     8.9467 *  0.0000    16          
   109  Na    c      8.9467 *    13.4201 *     4.4734 *  0.0000    16          
   110  Na    c      4.4734 *     8.9467 *    13.4201 *  0.0000    16          
   111  O     c      4.4734 *     4.4734      15.6568 *  0.0000     8          
   112  O     c      8.9467 *     8.9467      11.1834 *  0.0000     8          
   113  Cl    c      6.7100 *    15.6568 *     0.0000    0.0000     8          
   114  Na    c     15.6568 *     0.0000       6.7100 *  0.0000     8          
   115  Na    c      6.7100 *     0.0000      15.6568 *  0.0000     8          
   116  O     c      8.9467 *    13.4201 *     6.7100 *  0.0000    16          
   117  O     c      0.0000      13.4201 *    11.1834 *  0.0000     8          
   118  Cl    c      6.7100 *    15.6568 *     4.4734 *  0.0000    16          
   119  Na    c      2.2367 *    13.4201 *    11.1834 *  0.0000    16          
   120  Na    c     11.1834 *    13.4201 *    -2.2367 *  0.0000    16          
   121  Na    c     15.6568 *     4.4734 *     6.7100 *  0.0000    16          
   122  Cl    c      2.2367 *    11.1834 *    13.4201 *  0.0000    16          
   123  Na    c      6.7100 *     4.4734 *    15.6568 *  0.0000    16          
   124  Na    c      0.0000       0.0000      17.8934 *  0.0000     2          
   125  Na    c      0.0000      17.8934 *     0.0000    0.0000     4          
   126  O     s      0.0000       0.0000      -2.2367 *  0.0000     2          
   127  Cl    s      2.2367 *     2.2367       0.0000    0.0000     4          
   128  O     s      0.0000       4.4734 *    -2.2367 *  0.0000     8          
   129  Cl    s      2.2367 *     2.2367       4.4734 *  0.0000     8          
   130  O     s      0.0000       0.0000       6.7100 *  0.0000     2          
   131  O     s      4.4734 *     4.4734      -2.2367 *  0.0000     8          
   132  Cl    s      2.2367 *     6.7100 *     0.0000    0.0000     8          
   133  O     s      0.0000       4.4734 *     6.7100 *  0.0000     8          
   134  Cl    s      2.2367 *     6.7100 *     4.4734 *  0.0000    16          
   135  O     s      0.0000       8.9467 *    -2.2367 *  0.0000     8          
   136  O     s      4.4734 *     4.4734       6.7100 *  0.0000     8          
   137  Cl    s      2.2367 *     2.2367       8.9467 *  0.0000     8          
   138  Cl    s      6.7100 *     6.7100       0.0000    0.0000     4          
   139  O     s      4.4734 *     8.9467 *    -2.2367 *  0.0000    16          
   140  Cl    s      6.7100 *     6.7100       4.4734 *  0.0000     8          
   141  O     s      0.0000       8.9467 *     6.7100 *  0.0000     8          
   142  O     s      0.0000       0.0000      11.1834 *  0.0000     2          
   143  Cl    s      2.2367 *     6.7100 *     8.9467 *  0.0000    16          
   144  Cl    s      2.2367 *    11.1834 *     0.0000    0.0000     8          
   145  O     s      4.4734 *     8.9467 *     6.7100 *  0.0000    16          
   146  O     s      0.0000       4.4734 *    11.1834 *  0.0000     8          
   147  Cl    s      2.2367 *    11.1834 *     4.4734 *  0.0000    16          
   148  O     s      4.4734 *     4.4734      11.1834 *  0.0000     8          
   149  O     s      8.9467 *     8.9467      -2.2367 *  0.0000     8          
   150  Cl    s      6.7100 *     6.7100       8.9467 *  0.0000     8          
   151  Cl    s      6.7100 *    11.1834 *     0.0000    0.0000     8          
   152  O     s      0.0000      13.4201 *    -2.2367 *  0.0000     8          
   153  Cl    s      2.2367 *     2.2367      13.4201 *  0.0000     8          
   154  Cl    s      6.7100 *    11.1834 *     4.4734 *  0.0000    16          
   155  O     s      4.4734 *    13.4201 *    -2.2367 *  0.0000    16          
   156  O     s      0.0000       8.9467 *    11.1834 *  0.0000     8          
   157  O     s      8.9467 *     8.9467       6.7100 *  0.0000     8          
   158  Cl    s      2.2367 *    11.1834 *     8.9467 *  0.0000    16          
   159  O     s      0.0000      13.4201 *     6.7100 *  0.0000     8          
   160  O     s      4.4734 *     8.9467 *    11.1834 *  0.0000    16          
   161  Cl    s      2.2367 *     6.7100 *    13.4201 *  0.0000    16          
   162  O     s      4.4734 *    13.4201 *     6.7100 *  0.0000    16          
   163  O     s      0.0000       0.0000      15.6568 *  0.0000     2          
   164  Cl    s      2.2367 *    15.6568 *     0.0000    0.0000     8          
   165  Cl    s      6.7100 *    11.1834 *     8.9467 *  0.0000    16          
   166  Cl    s     11.1834 *    11.1834       0.0000    0.0000     4          
   167  O     s      8.9467 *    13.4201 *    -2.2367 *  0.0000    16          
   168  O     s      0.0000       4.4734 *    15.6568 *  0.0000     8          
   169  Cl    s      2.2367 *    15.6568 *     4.4734 *  0.0000    16          
   170  Cl    s      6.7100 *     6.7100      13.4201 *  0.0000     8          
   171  Cl    s     11.1834 *    11.1834       4.4734 *  0.0000     8          
   172  O     s      4.4734 *     4.4734      15.6568 *  0.0000     8          
   173  O     s      8.9467 *     8.9467      11.1834 *  0.0000     8          
   174  Cl    s      6.7100 *    15.6568 *     0.0000    0.0000     8          
   175  O     s      8.9467 *    13.4201 *     6.7100 *  0.0000    16          
   176  O     s      0.0000      13.4201 *    11.1834 *  0.0000     8          
   177  Cl    s      6.7100 *    15.6568 *     4.4734 *  0.0000    16          
   178  Cl    s      2.2367 *    11.1834 *    13.4201 *  0.0000    16          
--------------------------------------------------------------------------------


  Constraints on symmetry reduced coordinates :

--------------------------------------------------------------------------------
  Constraint no.      Unconstrained     Constrained    Coefficient    
                         Variable         Variable
--------------------------------------------------------------------------------
           1                 2 x             2 y         1.00000
           2                 8 x             8 y         1.00000
           3                10 x            10 y         1.00000
           4                12 x            12 y         1.00000
           5                16 x            16 y         1.00000
           6                24 x            24 y         1.00000
           7                25 x            25 y         1.00000
           8                26 x            26 y         1.00000
           9                33 x            33 y         1.00000
          10                36 x            36 y         1.00000
          11                51 x            51 y         1.00000
          12                52 x            52 y         1.00000
          13                53 x            53 y         1.00000
          14                54 x            54 y         1.00000
          15                62 x            62 y         1.00000
          16                65 x            65 y         1.00000
          17                74 x            74 y         1.00000
          18                79 x            79 y         1.00000
          19                85 x            85 y         1.00000
          20                93 x            93 y         1.00000
          21               103 x           103 y         1.00000
          22               105 x           105 y         1.00000
          23               111 x           111 y         1.00000
          24               112 x           112 y         1.00000
          25               127 x           127 y         1.00000
          26               129 x           129 y         1.00000
          27               131 x           131 y         1.00000
          28               136 x           136 y         1.00000
          29               137 x           137 y         1.00000
          30               138 x           138 y         1.00000
          31               140 x           140 y         1.00000
          32               148 x           148 y         1.00000
          33               149 x           149 y         1.00000
          34               150 x           150 y         1.00000
          35               153 x           153 y         1.00000
          36               157 x           157 y         1.00000
          37               166 x           166 y         1.00000
          38               170 x           170 y         1.00000
          39               171 x           171 y         1.00000
          40               172 x           172 y         1.00000
          41               173 x           173 y         1.00000
--------------------------------------------------------------------------------


  Components of defect energy : 

--------------------------------------------------------------------------------
  Region 1 - region 1                   =     -2.54717910 eV
  Region 1 - region 2a (unrelaxed)      =     10.81870614 eV
  Region 1 - 2a (relaxed - correction)  =     -0.19581739 eV
  Region 1 (Total)                      =      8.07570965 eV
  Region 2a                             =      0.09789736 eV
  Region 2b                             =     -0.28057235 eV
--------------------------------------------------------------------------------
  Total defect energy                   =      7.89303467 eV
--------------------------------------------------------------------------------

  Largest displacement in region 2 =   0.0079 Angstroms


  Number of variables =      399

  Maximum number of calculations  =        1000
  Maximum Hessian update interval =          10
  Maximum step size               =   1.0000000
  Maximum parameter tolerance     =   0.0000100
  Maximum function  tolerance     =   0.0000100
  Maximum gradient  tolerance     =   0.0010000

  Symmetry adapted optimisation

  Symmetry to be used for second derivatives

  Newton-Raphson optimiser to be used

  BFGS hessian update to be used

  Lower half triangular hessian to be used

  Start of defect optimisation :

  Cycle:      0 Defect Energy:   7.893035  Gnorm:     0.101531  CPU:   11.418
  ** Hessian calculated **
  Cycle:      1 Defect Energy:   5.446603  Gnorm:     0.053971  CPU:   20.540
  Cycle:      2 Defect Energy:   4.551572  Gnorm:     0.008353  CPU:   29.991
  ** Hessian calculated **
  Cycle:      3 Defect Energy:   4.538691  Gnorm:     0.002758  CPU:   34.865
  Cycle:      4 Defect Energy:   4.535131  Gnorm:     0.001927  CPU:   36.346
  Cycle:      5 Defect Energy:   4.531666  Gnorm:     0.001491  CPU:   37.301
  Cycle:      6 Defect Energy:   4.527797  Gnorm:     0.001143  CPU:   38.245
  Cycle:      7 Defect Energy:   4.524904  Gnorm:     0.001127  CPU:   39.206
  Cycle:      8 Defect Energy:   4.522388  Gnorm:     0.001258  CPU:   40.270
  Cycle:      9 Defect Energy:   4.520198  Gnorm:     0.001320  CPU:   41.273
  Cycle:     10 Defect Energy:   4.518037  Gnorm:     0.001359  CPU:   42.193
  Cycle:     11 Defect Energy:   4.515856  Gnorm:     0.001422  CPU:   43.093
  Cycle:     12 Defect Energy:   4.513323  Gnorm:     0.001447  CPU:   43.990
  ** Hessian calculated **
  Cycle:     13 Defect Energy:   4.512554  Gnorm:     0.001229  CPU:   46.585
  Cycle:     14 Defect Energy:   4.511693  Gnorm:     0.001156  CPU:   47.549
  Cycle:     15 Defect Energy:   4.510606  Gnorm:     0.001121  CPU:   49.055
  Cycle:     16 Defect Energy:   4.509229  Gnorm:     0.001081  CPU:   50.647
  Cycle:     17 Defect Energy:   4.507504  Gnorm:     0.001087  CPU:   51.510
  Cycle:     18 Defect Energy:   4.505419  Gnorm:     0.001153  CPU:   52.373
  Cycle:     19 Defect Energy:   4.503214  Gnorm:     0.001298  CPU:   53.258
  Cycle:     20 Defect Energy:   4.500555  Gnorm:     0.001594  CPU:   54.239
  Cycle:     21 Defect Energy:   4.496618  Gnorm:     0.001889  CPU:   55.122
  Cycle:     22 Defect Energy:   4.490547  Gnorm:     0.002489  CPU:   55.990
  ** Hessian calculated **
  Cycle:     23 Defect Energy:   4.487859  Gnorm:     0.002152  CPU:   58.397
  Cycle:     24 Defect Energy:   4.484628  Gnorm:     0.002022  CPU:   59.236
  Cycle:     25 Defect Energy:   4.480488  Gnorm:     0.001881  CPU:   59.759
  Cycle:     26 Defect Energy:   4.475584  Gnorm:     0.001843  CPU:   60.206
  Cycle:     27 Defect Energy:   4.470601  Gnorm:     0.001801  CPU:   60.663
  Cycle:     28 Defect Energy:   4.466723  Gnorm:     0.001819  CPU:   61.110
  Cycle:     29 Defect Energy:   4.462561  Gnorm:     0.002040  CPU:   61.556
  Cycle:     30 Defect Energy:   4.456637  Gnorm:     0.002343  CPU:   62.012
  Cycle:     31 Defect Energy:   4.447974  Gnorm:     0.002910  CPU:   62.460
  Cycle:     32 Defect Energy:   4.435002  Gnorm:     0.003645  CPU:   62.907
  ** Hessian calculated **
  Cycle:     33 Defect Energy:   4.427547  Gnorm:     0.003314  CPU:   64.190
  Cycle:     34 Defect Energy:   4.418208  Gnorm:     0.003150  CPU:   64.799
  Cycle:     35 Defect Energy:   4.406137  Gnorm:     0.002888  CPU:   65.419
  Cycle:     36 Defect Energy:   4.391270  Gnorm:     0.002819  CPU:   66.039
  Cycle:     37 Defect Energy:   4.373747  Gnorm:     0.002858  CPU:   66.661
  Cycle:     38 Defect Energy:   4.357047  Gnorm:     0.002923  CPU:   67.287
  Cycle:     39 Defect Energy:   4.340520  Gnorm:     0.003444  CPU:   67.908
  Cycle:     40 Defect Energy:   4.320991  Gnorm:     0.004020  CPU:   68.533
  Cycle:     41 Defect Energy:   4.299624  Gnorm:     0.004913  CPU:   69.153
  Cycle:     42 Defect Energy:   4.280607  Gnorm:     0.005257  CPU:   69.775
  ** Hessian calculated **
  Cycle:     43 Defect Energy:   4.239787  Gnorm:     0.004722  CPU:   71.515
  Cycle:     44 Defect Energy:   4.166116  Gnorm:     0.003983  CPU:   72.140
  ** Hessian calculated **
  Cycle:     45 Defect Energy:   4.158533  Gnorm:     0.003646  CPU:   73.901
  Cycle:     46 Defect Energy:   4.148845  Gnorm:     0.003437  CPU:   74.515
  Cycle:     47 Defect Energy:   4.136569  Gnorm:     0.003182  CPU:   75.139
  Cycle:     48 Defect Energy:   4.123029  Gnorm:     0.003014  CPU:   75.764
  Cycle:     49 Defect Energy:   4.115314  Gnorm:     0.002715  CPU:   76.386
  Cycle:     50 Defect Energy:   4.109984  Gnorm:     0.002687  CPU:   77.004
  Cycle:     51 Defect Energy:   4.105630  Gnorm:     0.002719  CPU:   77.628
  Cycle:     52 Defect Energy:   4.100974  Gnorm:     0.002798  CPU:   78.247
  Cycle:     53 Defect Energy:   4.096034  Gnorm:     0.002835  CPU:   78.867
  Cycle:     54 Defect Energy:   4.090285  Gnorm:     0.002963  CPU:   79.489
  ** Hessian calculated **
  Cycle:     55 Defect Energy:   4.088526  Gnorm:     0.002849  CPU:   81.209
  Cycle:     56 Defect Energy:   4.086126  Gnorm:     0.002829  CPU:   81.847
  Cycle:     57 Defect Energy:   4.082872  Gnorm:     0.002721  CPU:   82.565
  Cycle:     58 Defect Energy:   4.078725  Gnorm:     0.002662  CPU:   83.243
  Cycle:     59 Defect Energy:   4.075033  Gnorm:     0.002624  CPU:   83.867
  Cycle:     60 Defect Energy:   4.072007  Gnorm:     0.002642  CPU:   84.431
  Cycle:     61 Defect Energy:   4.069157  Gnorm:     0.002685  CPU:   84.979
  Cycle:     62 Defect Energy:   4.066194  Gnorm:     0.002753  CPU:   85.526
  Cycle:     63 Defect Energy:   4.063120  Gnorm:     0.002799  CPU:   86.071
  Cycle:     64 Defect Energy:   4.059900  Gnorm:     0.002868  CPU:   86.620
  ** Hessian calculated **
  Cycle:     65 Defect Energy:   4.050722  Gnorm:     0.002690  CPU:   88.115
  Cycle:     66 Defect Energy:   4.037533  Gnorm:     0.002381  CPU:   88.667
  Cycle:     67 Defect Energy:   4.018888  Gnorm:     0.001711  CPU:   89.214
  Cycle:     68 Defect Energy:   4.010006  Gnorm:     0.001150  CPU:   89.760
  Cycle:     69 Defect Energy:   4.006281  Gnorm:     0.000813  CPU:   90.318
  Cycle:     70 Defect Energy:   4.004495  Gnorm:     0.000541  CPU:   90.868
  Cycle:     71 Defect Energy:   4.003646  Gnorm:     0.000403  CPU:   91.414
  Cycle:     72 Defect Energy:   4.003174  Gnorm:     0.000229  CPU:   91.962
  Cycle:     73 Defect Energy:   4.002970  Gnorm:     0.000184  CPU:   92.508
  Cycle:     74 Defect Energy:   4.002845  Gnorm:     0.000153  CPU:   93.120
  ** Hessian calculated **
  Cycle:     75 Defect Energy:   4.002840  Gnorm:     0.000101  CPU:   94.668


  **** Optimisation achieved ****


  Final defect energy  =        4.00283793
  Final defect Gnorm   =        0.00007652

  Components of defect energy : 

--------------------------------------------------------------------------------
  Region 1 - region 1                   =     -5.78547821 eV
  Region 1 - region 2a (unrelaxed)      =     10.14364070 eV
  Region 1 - 2a (relaxed - correction)  =     -0.14949124 eV
  Region 1 (Total)                      =      4.20867126 eV
  Region 2a                             =      0.07473902 eV
  Region 2b                             =     -0.28057235 eV
--------------------------------------------------------------------------------
  Total defect energy                   =      4.00283793 eV
--------------------------------------------------------------------------------

  Largest displacement in region 2 =   0.0079 Angstroms

  Final coordinates of region 1 :

--------------------------------------------------------------------------------
   No.  Atomic        x           y           z          Radius      Charge
        Label       (Angs)      (Angs)      (Angs)       (Angs)       (e) 
--------------------------------------------------------------------------------
     1  O     c     2.236680    2.236680   -2.339188    0.000000    0.183000
     2  O     c     2.236680    2.236680    2.339188    0.000000    0.183000
     3  Cl    c     4.588001    4.588001    0.000000    0.000000    1.485000
     4  Cl    c     4.588001   -0.114640    0.000000    0.000000    1.485000
     5  Cl    c    -0.114640    4.588001    0.000000    0.000000    1.485000
     6  Cl    c    -0.114640   -0.114640    0.000000    0.000000    1.485000
     7  Na    c     4.374130    2.236680   -1.880084    0.000000    1.000000
     8  Na    c     4.374130    2.236680    1.880084    0.000000    1.000000
     9  Na    c     0.099231    2.236680   -1.880084    0.000000    1.000000
    10  Na    c     0.099231    2.236680    1.880084    0.000000    1.000000
    11  Na    c     2.236680    4.374130   -1.880084    0.000000    1.000000
    12  Na    c     2.236680    4.374130    1.880084    0.000000    1.000000
    13  Na    c     2.236680    0.099231   -1.880084    0.000000    1.000000
    14  Na    c     2.236680    0.099231    1.880084    0.000000    1.000000
    15  Na    c     2.236680    2.236680    4.479699    0.000000    1.000000
    16  Na    c     2.236680    2.236680   -4.479699    0.000000    1.000000
    17  Na    c     2.236680    6.995580    0.000000    0.000000    1.000000
    18  Na    c     2.236680   -2.522219    0.000000    0.000000    1.000000
    19  Na    c     6.995580    2.236680    0.000000    0.000000    1.000000
    20  Na    c    -2.522219    2.236680    0.000000    0.000000    1.000000
    21  O     c     2.236680    6.689303   -2.211668    0.000000    0.183000
    22  O     c     2.236680    6.689303    2.211668    0.000000    0.183000
    23  O     c     2.236680   -2.215942   -2.211668    0.000000    0.183000
    24  O     c     2.236680   -2.215942    2.211668    0.000000    0.183000
    25  O     c     6.689303    2.236680   -2.211668    0.000000    0.183000
    26  O     c     6.689303    2.236680    2.211668    0.000000    0.183000
    27  O     c    -2.215942    2.236680   -2.211668    0.000000    0.183000
    28  O     c    -2.215942    2.236680    2.211668    0.000000    0.183000
    29  Na    c     4.471276    6.692619   -2.133726    0.000000    1.000000
    30  Na    c     4.471276    6.692619    2.133726    0.000000    1.000000
    31  Na    c     4.471276   -2.219259   -2.133726    0.000000    1.000000
    32  Na    c     4.471276   -2.219259    2.133726    0.000000    1.000000
    33  Na    c     0.002085    6.692619   -2.133726    0.000000    1.000000
    34  Na    c     0.002085    6.692619    2.133726    0.000000    1.000000
    35  Na    c     0.002085   -2.219259   -2.133726    0.000000    1.000000
    36  Na    c     0.002085   -2.219259    2.133726    0.000000    1.000000
    37  Na    c     6.692619    4.471276   -2.133726    0.000000    1.000000
    38  Na    c     6.692619    4.471276    2.133726    0.000000    1.000000
    39  Na    c     6.692619    0.002085   -2.133726    0.000000    1.000000
    40  Na    c     6.692619    0.002085    2.133726    0.000000    1.000000
    41  Na    c    -2.219259    4.471276   -2.133726    0.000000    1.000000
    42  Na    c    -2.219259    4.471276    2.133726    0.000000    1.000000
    43  Na    c    -2.219259    0.002085   -2.133726    0.000000    1.000000
    44  Na    c    -2.219259    0.002085    2.133726    0.000000    1.000000
    45  Cl    c     4.523694    4.523694    4.591652    0.000000    1.485000
    46  Cl    c     4.523694    4.523694   -4.591652    0.000000    1.485000
    47  Cl    c     4.523694   -0.050333    4.591652    0.000000    1.485000
    48  Cl    c     4.523694   -0.050333   -4.591652    0.000000    1.485000
    49  Cl    c    -0.050333    4.523694    4.591652    0.000000    1.485000
    50  Cl    c    -0.050333    4.523694   -4.591652    0.000000    1.485000
    51  Cl    c    -0.050333   -0.050333    4.591652    0.000000    1.485000
    52  Cl    c    -0.050333   -0.050333   -4.591652    0.000000    1.485000
    53  Na    c     2.236680    6.360537    4.436437    0.000000    1.000000
    54  Na    c     2.236680    6.360537   -4.436437    0.000000    1.000000
    55  Na    c     2.236680   -1.887176    4.436437    0.000000    1.000000
    56  Na    c     2.236680   -1.887176   -4.436437    0.000000    1.000000
    57  Na    c     6.360537    2.236680    4.436437    0.000000    1.000000
    58  Na    c     6.360537    2.236680   -4.436437    0.000000    1.000000
    59  Na    c    -1.887176    2.236680    4.436437    0.000000    1.000000
    60  Na    c    -1.887176    2.236680   -4.436437    0.000000    1.000000
    61  Na    c     6.839358    6.839358    0.000000    0.000000    1.000000
    62  Na    c     6.839358   -2.365997    0.000000    0.000000    1.000000
    63  Na    c    -2.365997    6.839358    0.000000    0.000000    1.000000
    64  Na    c    -2.365997   -2.365997    0.000000    0.000000    1.000000
    65  O     c     2.236680    2.236680    6.771994    0.000000    0.183000
    66  O     c     2.236680    2.236680   -6.771994    0.000000    0.183000
    67  O     c     6.719474    6.719474   -2.264434    0.000000    0.183000
    68  O     c     6.719474    6.719474    2.264434    0.000000    0.183000
    69  O     c     6.719474   -2.246113   -2.264434    0.000000    0.183000
    70  O     c     6.719474   -2.246113    2.264434    0.000000    0.183000
    71  O     c    -2.246113    6.719474   -2.264434    0.000000    0.183000
    72  O     c    -2.246113    6.719474    2.264434    0.000000    0.183000
    73  O     c    -2.246113   -2.246113   -2.264434    0.000000    0.183000
    74  O     c    -2.246113   -2.246113    2.264434    0.000000    0.183000
    75  Cl    c     4.488206    8.948175    0.000000    0.000000    1.485000
    76  Cl    c     4.488206   -4.474814    0.000000    0.000000    1.485000
    77  Cl    c     8.948175    4.488206    0.000000    0.000000    1.485000
    78  Cl    c     8.948175   -0.014845    0.000000    0.000000    1.485000
    79  Cl    c    -0.014845    8.948175    0.000000    0.000000    1.485000
    80  Cl    c    -0.014845   -4.474814    0.000000    0.000000    1.485000
    81  Cl    c    -4.474814    4.488206    0.000000    0.000000    1.485000
    82  Cl    c    -4.474814   -0.014845    0.000000    0.000000    1.485000
    83  Na    c     4.470289    2.236680    6.814868    0.000000    1.000000
    84  Na    c     4.470289    2.236680   -6.814868    0.000000    1.000000
    85  Na    c     0.003072    2.236680    6.814868    0.000000    1.000000
    86  Na    c     0.003072    2.236680   -6.814868    0.000000    1.000000
    87  Na    c     2.236680    4.470289    6.814868    0.000000    1.000000
    88  Na    c     2.236680    4.470289   -6.814868    0.000000    1.000000
    89  Na    c     2.236680    0.003072    6.814868    0.000000    1.000000
    90  Na    c     2.236680    0.003072   -6.814868    0.000000    1.000000
    91  Na    c     8.924520    2.236680   -2.557576    0.000000    1.000000
    92  Na    c     8.924520    2.236680    2.557576    0.000000    1.000000
    93  Na    c    -4.451159    2.236680   -2.557576    0.000000    1.000000
    94  Na    c    -4.451159    2.236680    2.557576    0.000000    1.000000
    95  Na    c     2.236680    8.924520   -2.557576    0.000000    1.000000
    96  Na    c     2.236680    8.924520    2.557576    0.000000    1.000000
    97  Na    c     2.236680   -4.451159   -2.557576    0.000000    1.000000
    98  Na    c     2.236680   -4.451159    2.557576    0.000000    1.000000
    99  Na    c     6.545207    6.545207    4.476842    0.000000    1.000000
   100  Na    c     6.545207    6.545207   -4.476842    0.000000    1.000000
   101  Na    c     6.545207   -2.071847    4.476842    0.000000    1.000000
   102  Na    c     6.545207   -2.071847   -4.476842    0.000000    1.000000
   103  Na    c    -2.071847    6.545207    4.476842    0.000000    1.000000
   104  Na    c    -2.071847    6.545207   -4.476842    0.000000    1.000000
   105  Na    c    -2.071847   -2.071847    4.476842    0.000000    1.000000
   106  Na    c    -2.071847   -2.071847   -4.476842    0.000000    1.000000
   107  O     c     2.236680    6.711289    6.697942    0.000000    0.183000
   108  O     c     2.236680    6.711289   -6.697942    0.000000    0.183000
   109  O     c     2.236680   -2.237928    6.697942    0.000000    0.183000
   110  O     c     2.236680   -2.237928   -6.697942    0.000000    0.183000
   111  O     c     6.711289    2.236680    6.697942    0.000000    0.183000
   112  O     c     6.711289    2.236680   -6.697942    0.000000    0.183000
   113  O     c    -2.237928    2.236680    6.697942    0.000000    0.183000
   114  O     c    -2.237928    2.236680   -6.697942    0.000000    0.183000
   115  Cl    c     4.498630    8.973753    4.472001    0.000000    1.485000
   116  Cl    c     4.498630    8.973753   -4.472001    0.000000    1.485000
   117  Cl    c     4.498630   -4.500392    4.472001    0.000000    1.485000
   118  Cl    c     4.498630   -4.500392   -4.472001    0.000000    1.485000
   119  Cl    c     8.973753    4.498630    4.472001    0.000000    1.485000
   120  Cl    c     8.973753    4.498630   -4.472001    0.000000    1.485000
   121  Cl    c     8.973753   -0.025269    4.472001    0.000000    1.485000
   122  Cl    c     8.973753   -0.025269   -4.472001    0.000000    1.485000
   123  Cl    c    -0.025269    8.973753    4.472001    0.000000    1.485000
   124  Cl    c    -0.025269    8.973753   -4.472001    0.000000    1.485000
   125  Cl    c    -0.025269   -4.500392    4.472001    0.000000    1.485000
   126  Cl    c    -0.025269   -4.500392   -4.472001    0.000000    1.485000
   127  Cl    c    -4.500392    4.498630    4.472001    0.000000    1.485000
   128  Cl    c    -4.500392    4.498630   -4.472001    0.000000    1.485000
   129  Cl    c    -4.500392   -0.025269    4.472001    0.000000    1.485000
   130  Cl    c    -4.500392   -0.025269   -4.472001    0.000000    1.485000
   131  Na    c     4.474858    6.704340    6.763332    0.000000    1.000000
   132  Na    c     4.474858    6.704340   -6.763332    0.000000    1.000000
   133  Na    c     4.474858   -2.230979    6.763332    0.000000    1.000000
   134  Na    c     4.474858   -2.230979   -6.763332    0.000000    1.000000
   135  Na    c    -0.001497    6.704340    6.763332    0.000000    1.000000
   136  Na    c    -0.001497    6.704340   -6.763332    0.000000    1.000000
   137  Na    c    -0.001497   -2.230979    6.763332    0.000000    1.000000
   138  Na    c    -0.001497   -2.230979   -6.763332    0.000000    1.000000
   139  Na    c     6.704340    4.474858    6.763332    0.000000    1.000000
   140  Na    c     6.704340    4.474858   -6.763332    0.000000    1.000000
   141  Na    c     6.704340   -0.001497    6.763332    0.000000    1.000000
   142  Na    c     6.704340   -0.001497   -6.763332    0.000000    1.000000
   143  Na    c    -2.230979    4.474858    6.763332    0.000000    1.000000
   144  Na    c    -2.230979    4.474858   -6.763332    0.000000    1.000000
   145  Na    c    -2.230979   -0.001497    6.763332    0.000000    1.000000
   146  Na    c    -2.230979   -0.001497   -6.763332    0.000000    1.000000
   147  Na    c     8.944844    6.707435   -2.444794    0.000000    1.000000
   148  Na    c     8.944844    6.707435    2.444794    0.000000    1.000000
   149  Na    c     8.944844   -2.234074   -2.444794    0.000000    1.000000
   150  Na    c     8.944844   -2.234074    2.444794    0.000000    1.000000
   151  Na    c    -4.471483    6.707435   -2.444794    0.000000    1.000000
   152  Na    c    -4.471483    6.707435    2.444794    0.000000    1.000000
   153  Na    c    -4.471483   -2.234074   -2.444794    0.000000    1.000000
   154  Na    c    -4.471483   -2.234074    2.444794    0.000000    1.000000
   155  Na    c     6.707435    8.944844   -2.444794    0.000000    1.000000
   156  Na    c     6.707435    8.944844    2.444794    0.000000    1.000000
   157  Na    c     6.707435   -4.471483   -2.444794    0.000000    1.000000
   158  Na    c     6.707435   -4.471483    2.444794    0.000000    1.000000
   159  Na    c    -2.234074    8.944844   -2.444794    0.000000    1.000000
   160  Na    c    -2.234074    8.944844    2.444794    0.000000    1.000000
   161  Na    c    -2.234074   -4.471483   -2.444794    0.000000    1.000000
   162  Na    c    -2.234074   -4.471483    2.444794    0.000000    1.000000
   163  Na    c     2.236680    2.236680    8.971299    0.000000    1.000000
   164  Na    c     2.236680    2.236680   -8.971299    0.000000    1.000000
   165  Na    c     2.236680   10.847366    0.000000    0.000000    1.000000
   166  Na    c     2.236680   -6.374005    0.000000    0.000000    1.000000
   167  Na    c    10.847366    2.236680    0.000000    0.000000    1.000000
   168  Na    c    -6.374005    2.236680    0.000000    0.000000    1.000000
   169  O     c     2.236680   11.168894   -2.237530    0.000000    0.183000
   170  O     c     2.236680   11.168894    2.237530    0.000000    0.183000
   171  O     c     2.236680   -6.695533   -2.237530    0.000000    0.183000
   172  O     c     2.236680   -6.695533    2.237530    0.000000    0.183000
   173  O     c    11.168894    2.236680   -2.237530    0.000000    0.183000
   174  O     c    11.168894    2.236680    2.237530    0.000000    0.183000
   175  O     c    -6.695533    2.236680   -2.237530    0.000000    0.183000
   176  O     c    -6.695533    2.236680    2.237530    0.000000    0.183000
   177  O     c     6.727120    6.727120    6.696327    0.000000    0.183000
   178  O     c     6.727120    6.727120   -6.696327    0.000000    0.183000
   179  O     c     6.727120   -2.253759    6.696327    0.000000    0.183000
   180  O     c     6.727120   -2.253759   -6.696327    0.000000    0.183000
   181  O     c    -2.253759    6.727120    6.696327    0.000000    0.183000
   182  O     c    -2.253759    6.727120   -6.696327    0.000000    0.183000
   183  O     c    -2.253759   -2.253759    6.696327    0.000000    0.183000
   184  O     c    -2.253759   -2.253759   -6.696327    0.000000    0.183000
   185  Cl    c     4.471029    4.471029    8.969300    0.000000    1.485000
   186  Cl    c     4.471029    4.471029   -8.969300    0.000000    1.485000
   187  Cl    c     4.471029    0.002332    8.969300    0.000000    1.485000
   188  Cl    c     4.471029    0.002332   -8.969300    0.000000    1.485000
   189  Cl    c     0.002332    4.471029    8.969300    0.000000    1.485000
   190  Cl    c     0.002332    4.471029   -8.969300    0.000000    1.485000
   191  Cl    c     0.002332    0.002332    8.969300    0.000000    1.485000
   192  Cl    c     0.002332    0.002332   -8.969300    0.000000    1.485000
   193  Cl    c     8.977149    8.977149    0.000000    0.000000    1.485000
   194  Cl    c     8.977149   -4.503788    0.000000    0.000000    1.485000
   195  Cl    c    -4.503788    8.977149    0.000000    0.000000    1.485000
   196  Cl    c    -4.503788   -4.503788    0.000000    0.000000    1.485000
   197  Na    c     4.472583   11.163959   -2.235915    0.000000    1.000000
   198  Na    c     4.472583   11.163959    2.235915    0.000000    1.000000
   199  Na    c     4.472583   -6.690598   -2.235915    0.000000    1.000000
   200  Na    c     4.472583   -6.690598    2.235915    0.000000    1.000000
   201  Na    c     0.000778   11.163959   -2.235915    0.000000    1.000000
   202  Na    c     0.000778   11.163959    2.235915    0.000000    1.000000
   203  Na    c     0.000778   -6.690598   -2.235915    0.000000    1.000000
   204  Na    c     0.000778   -6.690598    2.235915    0.000000    1.000000
   205  Na    c    11.163959    4.472583   -2.235915    0.000000    1.000000
   206  Na    c    11.163959    4.472583    2.235915    0.000000    1.000000
   207  Na    c    11.163959    0.000778   -2.235915    0.000000    1.000000
   208  Na    c    11.163959    0.000778    2.235915    0.000000    1.000000
   209  Na    c    -6.690598    4.472583   -2.235915    0.000000    1.000000
   210  Na    c    -6.690598    4.472583    2.235915    0.000000    1.000000
   211  Na    c    -6.690598    0.000778   -2.235915    0.000000    1.000000
   212  Na    c    -6.690598    0.000778    2.235915    0.000000    1.000000
   213  Na    c     8.928532    2.236680    6.405723    0.000000    1.000000
   214  Na    c     8.928532    2.236680   -6.405723    0.000000    1.000000
   215  Na    c    -4.455171    2.236680    6.405723    0.000000    1.000000
   216  Na    c    -4.455171    2.236680   -6.405723    0.000000    1.000000
   217  Na    c     2.236680    8.928532    6.405723    0.000000    1.000000
   218  Na    c     2.236680    8.928532   -6.405723    0.000000    1.000000
   219  Na    c     2.236680   -4.455171    6.405723    0.000000    1.000000
   220  Na    c     2.236680   -4.455171   -6.405723    0.000000    1.000000
   221  Na    c     2.236680    6.888619    8.929548    0.000000    1.000000
   222  Na    c     2.236680    6.888619   -8.929548    0.000000    1.000000
   223  Na    c     2.236680   -2.415258    8.929548    0.000000    1.000000
   224  Na    c     2.236680   -2.415258   -8.929548    0.000000    1.000000
   225  Na    c     6.888619    2.236680    8.929548    0.000000    1.000000
   226  Na    c     6.888619    2.236680   -8.929548    0.000000    1.000000
   227  Na    c    -2.415258    2.236680    8.929548    0.000000    1.000000
   228  Na    c    -2.415258    2.236680   -8.929548    0.000000    1.000000
   229  Na    c     2.236680   11.477377    4.465507    0.000000    1.000000
   230  Na    c     2.236680   11.477377   -4.465507    0.000000    1.000000
   231  Na    c     2.236680   -7.004016    4.465507    0.000000    1.000000
   232  Na    c     2.236680   -7.004016   -4.465507    0.000000    1.000000
   233  Na    c    11.477377    2.236680    4.465507    0.000000    1.000000
   234  Na    c    11.477377    2.236680   -4.465507    0.000000    1.000000
   235  Na    c    -7.004016    2.236680    4.465507    0.000000    1.000000
   236  Na    c    -7.004016    2.236680   -4.465507    0.000000    1.000000
   237  Na    c     6.706153   10.931437    0.000000    0.000000    1.000000
   238  Na    c     6.706153   -6.458076    0.000000    0.000000    1.000000
   239  Na    c    10.931437    6.706153    0.000000    0.000000    1.000000
   240  Na    c    10.931437   -2.232792    0.000000    0.000000    1.000000
   241  Na    c    -2.232792   10.931437    0.000000    0.000000    1.000000
   242  Na    c    -2.232792   -6.458076    0.000000    0.000000    1.000000
   243  Na    c    -6.458076    6.706153    0.000000    0.000000    1.000000
   244  Na    c    -6.458076   -2.232792    0.000000    0.000000    1.000000
   245  O     c     6.713843   11.184353   -2.229564    0.000000    0.183000
   246  O     c     6.713843   11.184353    2.229564    0.000000    0.183000
   247  O     c     6.713843   -6.710992   -2.229564    0.000000    0.183000
   248  O     c     6.713843   -6.710992    2.229564    0.000000    0.183000
   249  O     c    11.184353    6.713843   -2.229564    0.000000    0.183000
   250  O     c    11.184353    6.713843    2.229564    0.000000    0.183000
   251  O     c    11.184353   -2.240482   -2.229564    0.000000    0.183000
   252  O     c    11.184353   -2.240482    2.229564    0.000000    0.183000
   253  O     c    -2.240482   11.184353   -2.229564    0.000000    0.183000
   254  O     c    -2.240482   11.184353    2.229564    0.000000    0.183000
   255  O     c    -2.240482   -6.710992   -2.229564    0.000000    0.183000
   256  O     c    -2.240482   -6.710992    2.229564    0.000000    0.183000
   257  O     c    -6.710992    6.713843   -2.229564    0.000000    0.183000
   258  O     c    -6.710992    6.713843    2.229564    0.000000    0.183000
   259  O     c    -6.710992   -2.240482   -2.229564    0.000000    0.183000
   260  O     c    -6.710992   -2.240482    2.229564    0.000000    0.183000
   261  Cl    c     8.975218    8.975218    4.475642    0.000000    1.485000
   262  Cl    c     8.975218    8.975218   -4.475642    0.000000    1.485000
   263  Cl    c     8.975218   -4.501858    4.475642    0.000000    1.485000
   264  Cl    c     8.975218   -4.501858   -4.475642    0.000000    1.485000
   265  Cl    c    -4.501858    8.975218    4.475642    0.000000    1.485000
   266  Cl    c    -4.501858    8.975218   -4.475642    0.000000    1.485000
   267  Cl    c    -4.501858   -4.501858    4.475642    0.000000    1.485000
   268  Cl    c    -4.501858   -4.501858   -4.475642    0.000000    1.485000
   269  Na    c     8.953662    6.720135    6.521287    0.000000    1.000000
   270  Na    c     8.953662    6.720135   -6.521287    0.000000    1.000000
   271  Na    c     8.953662   -2.246774    6.521287    0.000000    1.000000
   272  Na    c     8.953662   -2.246774   -6.521287    0.000000    1.000000
   273  Na    c    -4.480301    6.720135    6.521287    0.000000    1.000000
   274  Na    c    -4.480301    6.720135   -6.521287    0.000000    1.000000
   275  Na    c    -4.480301   -2.246774    6.521287    0.000000    1.000000
   276  Na    c    -4.480301   -2.246774   -6.521287    0.000000    1.000000
   277  Na    c     6.720135    8.953662    6.521287    0.000000    1.000000
   278  Na    c     6.720135    8.953662   -6.521287    0.000000    1.000000
   279  Na    c     6.720135   -4.480301    6.521287    0.000000    1.000000
   280  Na    c     6.720135   -4.480301   -6.521287    0.000000    1.000000
   281  Na    c    -2.246774    8.953662    6.521287    0.000000    1.000000
   282  Na    c    -2.246774    8.953662   -6.521287    0.000000    1.000000
   283  Na    c    -2.246774   -4.480301    6.521287    0.000000    1.000000
   284  Na    c    -2.246774   -4.480301   -6.521287    0.000000    1.000000
   285  Na    c     6.717852   11.403404    4.465903    0.000000    1.000000
   286  Na    c     6.717852   11.403404   -4.465903    0.000000    1.000000
   287  Na    c     6.717852   -6.930043    4.465903    0.000000    1.000000
   288  Na    c     6.717852   -6.930043   -4.465903    0.000000    1.000000
   289  Na    c    11.403404    6.717852    4.465903    0.000000    1.000000
   290  Na    c    11.403404    6.717852   -4.465903    0.000000    1.000000
   291  Na    c    11.403404   -2.244491    4.465903    0.000000    1.000000
   292  Na    c    11.403404   -2.244491   -4.465903    0.000000    1.000000
   293  Na    c    -2.244491   11.403404    4.465903    0.000000    1.000000
   294  Na    c    -2.244491   11.403404   -4.465903    0.000000    1.000000
   295  Na    c    -2.244491   -6.930043    4.465903    0.000000    1.000000
   296  Na    c    -2.244491   -6.930043   -4.465903    0.000000    1.000000
   297  Na    c    -6.930043    6.717852    4.465903    0.000000    1.000000
   298  Na    c    -6.930043    6.717852   -4.465903    0.000000    1.000000
   299  Na    c    -6.930043   -2.244491    4.465903    0.000000    1.000000
   300  Na    c    -6.930043   -2.244491   -4.465903    0.000000    1.000000
   301  Na    c     6.838930    6.838930    8.931087    0.000000    1.000000
   302  Na    c     6.838930    6.838930   -8.931087    0.000000    1.000000
   303  Na    c     6.838930   -2.365569    8.931087    0.000000    1.000000
   304  Na    c     6.838930   -2.365569   -8.931087    0.000000    1.000000
   305  Na    c    -2.365569    6.838930    8.931087    0.000000    1.000000
   306  Na    c    -2.365569    6.838930   -8.931087    0.000000    1.000000
   307  Na    c    -2.365569   -2.365569    8.931087    0.000000    1.000000
   308  Na    c    -2.365569   -2.365569   -8.931087    0.000000    1.000000
   309  O     c     2.236680   11.176454    6.697200    0.000000    0.183000
   310  O     c     2.236680   11.176454   -6.697200    0.000000    0.183000
   311  O     c     2.236680   -6.703093    6.697200    0.000000    0.183000
   312  O     c     2.236680   -6.703093   -6.697200    0.000000    0.183000
   313  O     c    11.176454    2.236680    6.697200    0.000000    0.183000
   314  O     c    11.176454    2.236680   -6.697200    0.000000    0.183000
   315  O     c    -6.703093    2.236680    6.697200    0.000000    0.183000
   316  O     c    -6.703093    2.236680   -6.697200    0.000000    0.183000
   317  O     c     2.236680    2.236680   11.172257    0.000000    0.183000
   318  O     c     2.236680    2.236680  -11.172257    0.000000    0.183000
   319  Cl    c     4.486475    8.947933    8.959134    0.000000    1.485000
   320  Cl    c     4.486475    8.947933   -8.959134    0.000000    1.485000
   321  Cl    c     4.486475   -4.474572    8.959134    0.000000    1.485000
   322  Cl    c     4.486475   -4.474572   -8.959134    0.000000    1.485000
   323  Cl    c     8.947933    4.486475    8.959134    0.000000    1.485000
   324  Cl    c     8.947933    4.486475   -8.959134    0.000000    1.485000
   325  Cl    c     8.947933   -0.013114    8.959134    0.000000    1.485000
   326  Cl    c     8.947933   -0.013114   -8.959134    0.000000    1.485000
   327  Cl    c    -0.013114    8.947933    8.959134    0.000000    1.485000
   328  Cl    c    -0.013114    8.947933   -8.959134    0.000000    1.485000
   329  Cl    c    -0.013114   -4.474572    8.959134    0.000000    1.485000
   330  Cl    c    -0.013114   -4.474572   -8.959134    0.000000    1.485000
   331  Cl    c    -4.474572    4.486475    8.959134    0.000000    1.485000
   332  Cl    c    -4.474572    4.486475   -8.959134    0.000000    1.485000
   333  Cl    c    -4.474572   -0.013114    8.959134    0.000000    1.485000
   334  Cl    c    -4.474572   -0.013114   -8.959134    0.000000    1.485000
   335  Na    c     4.472606   11.151321    6.689030    0.000000    1.000000
   336  Na    c     4.472606   11.151321   -6.689030    0.000000    1.000000
   337  Na    c     4.472606   -6.677960    6.689030    0.000000    1.000000
   338  Na    c     4.472606   -6.677960   -6.689030    0.000000    1.000000
   339  Na    c     0.000755   11.151321    6.689030    0.000000    1.000000
   340  Na    c     0.000755   11.151321   -6.689030    0.000000    1.000000
   341  Na    c     0.000755   -6.677960    6.689030    0.000000    1.000000
[...]
     98 y         11.183402     11.286686     0.103284    Cartesian    0.92
     98 z         13.420083     13.413932    -0.006151    Cartesian   -0.05
     99 x         11.183402     11.184746     0.001344    Cartesian    0.01
     99 y         15.656763     15.659191     0.002428    Cartesian    0.02
     99 z         -2.236680     -2.239138    -0.002457    Cartesian    0.11
    100 x          2.236680      2.236680     0.000000    Cartesian    0.00
    100 y          6.710041      6.702129    -0.007912    Cartesian   -0.12
    100 z         15.656763     15.656270    -0.000493    Cartesian   -0.00
    101 x          8.946722      8.944438    -0.002283    Cartesian   -0.03
    101 y         15.656763     15.646559    -0.010204    Cartesian   -0.07
    101 z          6.710041      6.724754     0.014713    Cartesian    0.22
    102 x          4.473361      4.469476    -0.003885    Cartesian   -0.09
    102 y         17.893444     17.927246     0.033802    Cartesian    0.19
    102 z          4.473361      4.473388     0.000027    Cartesian    0.00
    103 x          8.946722      8.953378     0.006656    Cartesian    0.07
    103 y          8.946722      8.953378     0.006656    Cartesian    0.07
    103 z         13.420083     13.420859     0.000777    Cartesian    0.01
    104 x         17.893444     17.889712    -0.003732    Cartesian   -0.02
    104 y          6.710041      6.703865    -0.006177    Cartesian   -0.09
    104 z         -2.236680     -2.334271    -0.097590    Cartesian    4.36
    105 x         13.420083     13.428852     0.008769    Cartesian    0.07
    105 y         13.420083     13.428852     0.008769    Cartesian    0.07
    105 z          4.473361      4.476709     0.003349    Cartesian    0.07
    106 x          4.473361      4.466307    -0.007054    Cartesian   -0.16
    106 y          6.710041      6.718693     0.008652    Cartesian    0.13
    106 z         15.656763     15.679940     0.023177    Cartesian    0.15
    107 x         13.420083     13.413358    -0.006725    Cartesian   -0.05
    107 y          6.710041      6.736927     0.026885    Cartesian    0.40
    107 z         11.183402     11.092727    -0.090676    Cartesian   -0.81
    108 x          6.710041      6.680244    -0.029797    Cartesian   -0.44
    108 y         15.656763     15.745932     0.089169    Cartesian    0.57
    108 z          8.946722      8.947394     0.000672    Cartesian    0.01
    109 x         11.183402     11.172893    -0.010509    Cartesian   -0.09
    109 y         15.656763     15.658676     0.001913    Cartesian    0.01
    109 z          4.473361      4.474138     0.000777    Cartesian    0.02
    110 x          6.710041      6.699691    -0.010350    Cartesian   -0.15
    110 y         11.183402     11.248263     0.064860    Cartesian    0.58
    110 z         13.420083     13.417061    -0.003022    Cartesian   -0.02
    111 x          6.710041      6.700973    -0.009068    Cartesian   -0.14
    111 y          6.710041      6.700973    -0.009068    Cartesian   -0.14
    111 z         15.656763     15.654568    -0.002195    Cartesian   -0.01
    112 x         11.183402     11.186938     0.003536    Cartesian    0.03
    112 y         11.183402     11.186938     0.003536    Cartesian    0.03
    112 z         11.183402     11.185613     0.002211    Cartesian    0.02
    113 x          8.946722      8.956895     0.010174    Cartesian    0.11
    113 y         17.893444     17.890201    -0.003242    Cartesian   -0.02
    113 z          0.000000      0.000000     0.000000    Cartesian    0.00
    114 x         17.893444     17.883068    -0.010375    Cartesian   -0.06
    114 y          2.236680      2.236680     0.000000    Cartesian    0.00
    114 z          6.710041      6.620643    -0.089398    Cartesian   -1.33
    115 x          8.946722      8.947652     0.000931    Cartesian    0.01
    115 y          2.236680      2.236680     0.000000    Cartesian    0.00
    115 z         15.656763     15.607559    -0.049205    Cartesian   -0.31
    116 x         11.183402     11.184294     0.000892    Cartesian    0.01
    116 y         15.656763     15.661697     0.004934    Cartesian    0.03
    116 z          6.710041      6.711755     0.001714    Cartesian    0.03
    117 x          2.236680      2.236680     0.000000    Cartesian    0.00
    117 y         15.656763     15.660758     0.003995    Cartesian    0.03
    117 z         11.183402     11.175009    -0.008394    Cartesian   -0.08
    118 x          8.946722      8.942545    -0.004177    Cartesian   -0.05
    118 y         17.893444     17.915282     0.021839    Cartesian    0.12
    118 z          4.473361      4.475237     0.001876    Cartesian    0.04
    119 x          4.473361      4.472155    -0.001205    Cartesian   -0.03
    119 y         15.656763     15.617444    -0.039319    Cartesian   -0.25
    119 z         11.183402     11.201244     0.017842    Cartesian    0.16
    120 x         13.420083     13.419181    -0.000902    Cartesian   -0.01
    120 y         15.656763     15.651330    -0.005433    Cartesian   -0.03
    120 z         -2.236680     -2.241526    -0.004845    Cartesian    0.22
    121 x         17.893444     17.884114    -0.009330    Cartesian   -0.05
    121 y          6.710041      6.709288    -0.000754    Cartesian   -0.01
    121 z          6.710041      6.639365    -0.070677    Cartesian   -1.05
    122 x          4.473361      4.471756    -0.001605    Cartesian   -0.04
    122 y         13.420083     13.420249     0.000166    Cartesian    0.00
    122 z         13.420083     13.441127     0.021045    Cartesian    0.16
    123 x          8.946722      8.943002    -0.003720    Cartesian   -0.04
    123 y          6.710041      6.712824     0.002782    Cartesian    0.04
    123 z         15.656763     15.619450    -0.037313    Cartesian   -0.24
    124 x          2.236680      2.236680     0.000000    Cartesian    0.00
    124 y          2.236680      2.236680     0.000000    Cartesian    0.00
    124 z         17.893444     17.893166    -0.000278    Cartesian   -0.00
    125 x          2.236680      2.236680     0.000000    Cartesian    0.00
    125 y         20.130124     20.077263    -0.052861    Cartesian   -0.26
    125 z          0.000000      0.000000     0.000000    Cartesian    0.00
    126 x          2.236680      2.236680     0.000000    Cartesian    0.00
    126 y          2.236680      2.236680     0.000000    Cartesian    0.00
    126 z         -2.236680     -2.339318    -0.102637    Cartesian    4.59
    127 x          4.473361      4.589825     0.116464    Cartesian    2.60
    127 y          4.473361      4.589825     0.116464    Cartesian    2.60
    127 z          0.000000      0.000000     0.000000    Cartesian    0.00
    128 x          2.236680      2.236680     0.000000    Cartesian    0.00
    128 y          6.710041      6.689370    -0.020672    Cartesian   -0.31
    128 z         -2.236680     -2.211638     0.025043    Cartesian   -1.12
    129 x          4.473361      4.537611     0.064250    Cartesian    1.44
    129 y          4.473361      4.537611     0.064250    Cartesian    1.44
    129 z          4.473361      4.603918     0.130557    Cartesian    2.92
    130 x          2.236680      2.236680     0.000000    Cartesian    0.00
    130 y          2.236680      2.236680     0.000000    Cartesian    0.00
    130 z          6.710041      6.772122     0.062081    Cartesian    0.93
    131 x          6.710041      6.719474     0.009433    Cartesian    0.14
    131 y          6.710041      6.719474     0.009433    Cartesian    0.14
    131 z         -2.236680     -2.264499    -0.027819    Cartesian    1.24
    132 x          4.473361      4.483165     0.009804    Cartesian    0.22
    132 y          8.946722      8.951619     0.004897    Cartesian    0.05
    132 z          0.000000      0.000000     0.000000    Cartesian    0.00
    133 x          2.236680      2.236680     0.000000    Cartesian    0.00
    133 y          6.710041      6.711271     0.001229    Cartesian    0.02
    133 z          6.710041      6.697985    -0.012057    Cartesian   -0.18
    134 x          4.473361      4.498634     0.025273    Cartesian    0.56
    134 y          8.946722      8.976385     0.029663    Cartesian    0.33
    134 z          4.473361      4.471954    -0.001407    Cartesian   -0.03
    135 x          2.236680      2.236680     0.000000    Cartesian    0.00
    135 y         11.183402     11.168907    -0.014495    Cartesian   -0.13
    135 z         -2.236680     -2.237543    -0.000863    Cartesian    0.04
    136 x          6.710041      6.727122     0.017081    Cartesian    0.25
    136 y          6.710041      6.727122     0.017081    Cartesian    0.25
    136 z          6.710041      6.696281    -0.013760    Cartesian   -0.21
    137 x          4.473361      4.468178    -0.005183    Cartesian   -0.12
    137 y          4.473361      4.468178    -0.005183    Cartesian   -0.12
    137 z          8.946722      8.971711     0.024990    Cartesian    0.28
    138 x          8.946722      8.979163     0.032442    Cartesian    0.36
    138 y          8.946722      8.979163     0.032442    Cartesian    0.36
    138 z          0.000000      0.000000     0.000000    Cartesian    0.00
    139 x          6.710041      6.713848     0.003807    Cartesian    0.06
    139 y         11.183402     11.184351     0.000949    Cartesian    0.01
    139 z         -2.236680     -2.229558     0.007123    Cartesian   -0.32
    140 x          8.946722      8.973700     0.026979    Cartesian    0.30
    140 y          8.946722      8.973700     0.026979    Cartesian    0.30
    140 z          4.473361      4.475971     0.002610    Cartesian    0.06
    141 x          2.236680      2.236680     0.000000    Cartesian    0.00
    141 y         11.183402     11.176477    -0.006925    Cartesian   -0.06
    141 z          6.710041      6.697199    -0.012843    Cartesian   -0.19
    142 x          2.236680      2.236680     0.000000    Cartesian    0.00
    142 y          2.236680      2.236680     0.000000    Cartesian    0.00
    142 z         11.183402     11.172188    -0.011214    Cartesian   -0.10
    143 x          4.473361      4.483789     0.010428    Cartesian    0.23
    143 y          8.946722      8.950844     0.004122    Cartesian    0.05
    143 z          8.946722      8.962333     0.015611    Cartesian    0.17
    144 x          4.473361      4.479668     0.006307    Cartesian    0.14
    144 y         13.420083     13.435531     0.015449    Cartesian    0.12
    144 z          0.000000      0.000000     0.000000    Cartesian    0.00
    145 x          6.710041      6.712322     0.002280    Cartesian    0.03
    145 y         11.183402     11.189782     0.006380    Cartesian    0.06
    145 z          6.710041      6.708565    -0.001476    Cartesian   -0.02
    146 x          2.236680      2.236680     0.000000    Cartesian    0.00
    146 y          6.710041      6.722686     0.012645    Cartesian    0.19
    146 z         11.183402     11.173349    -0.010054    Cartesian   -0.09
    147 x          4.473361      4.480258     0.006897    Cartesian    0.15
    147 y         13.420083     13.433113     0.013030    Cartesian    0.10
    147 z          4.473361      4.476772     0.003411    Cartesian    0.08
    148 x          6.710041      6.713502     0.003460    Cartesian    0.05
    148 y          6.710041      6.713502     0.003460    Cartesian    0.05
    148 z         11.183402     11.188193     0.004791    Cartesian    0.04
    149 x         11.183402     11.188569     0.005167    Cartesian    0.05
    149 y         11.183402     11.188569     0.005167    Cartesian    0.05
    149 z         -2.236680     -2.237179    -0.000498    Cartesian    0.02
    150 x          8.946722      8.974732     0.028010    Cartesian    0.31
    150 y          8.946722      8.974732     0.028010    Cartesian    0.31
    150 z          8.946722      8.957523     0.010801    Cartesian    0.12
    151 x          8.946722      8.966666     0.019945    Cartesian    0.22
    151 y         13.420083     13.435293     0.015211    Cartesian    0.11
    151 z          0.000000      0.000000     0.000000    Cartesian    0.00
    152 x          2.236680      2.236680     0.000000    Cartesian    0.00
    152 y         15.656763     15.642150    -0.014613    Cartesian   -0.09
    152 z         -2.236680     -2.230897     0.005784    Cartesian   -0.26
    153 x          4.473361      4.472643    -0.000718    Cartesian   -0.02
    153 y          4.473361      4.472643    -0.000718    Cartesian   -0.02
    153 z         13.420083     13.431466     0.011383    Cartesian    0.08
    154 x          8.946722      8.968260     0.021538    Cartesian    0.24
    154 y         13.420083     13.431443     0.011361    Cartesian    0.08
    154 z          4.473361      4.478420     0.005059    Cartesian    0.11
    155 x          6.710041      6.710739     0.000698    Cartesian    0.01
    155 y         15.656763     15.653291    -0.003473    Cartesian   -0.02
    155 z         -2.236680     -2.226976     0.009705    Cartesian   -0.43
    156 x          2.236680      2.236680     0.000000    Cartesian    0.00
    156 y         11.183402     11.173694    -0.009709    Cartesian   -0.09
    156 z         11.183402     11.175316    -0.008086    Cartesian   -0.07
    157 x         11.183402     11.187087     0.003685    Cartesian    0.03
    157 y         11.183402     11.187087     0.003685    Cartesian    0.03
    157 z          6.710041      6.710823     0.000781    Cartesian    0.01
    158 x          4.473361      4.478793     0.005432    Cartesian    0.12
    158 y         13.420083     13.444448     0.024365    Cartesian    0.18
    158 z          8.946722      8.959667     0.012945    Cartesian    0.14
    159 x          2.236680      2.236680     0.000000    Cartesian    0.00
    159 y         15.656763     15.640401    -0.016362    Cartesian   -0.10
    159 z          6.710041      6.710664     0.000623    Cartesian    0.01
    160 x          6.710041      6.709852    -0.000189    Cartesian   -0.00
    160 y         11.183402     11.174135    -0.009267    Cartesian   -0.08
    160 z         11.183402     11.182216    -0.001187    Cartesian   -0.01
    161 x          4.473361      4.475891     0.002530    Cartesian    0.06
    161 y          8.946722      8.949059     0.002338    Cartesian    0.03
    161 z         13.420083     13.422569     0.002486    Cartesian    0.02
    162 x          6.710041      6.708728    -0.001314    Cartesian   -0.02
    162 y         15.656763     15.646194    -0.010569    Cartesian   -0.07
    162 z          6.710041      6.714077     0.004035    Cartesian    0.06
    163 x          2.236680      2.236680     0.000000    Cartesian    0.00
    163 y          2.236680      2.236680     0.000000    Cartesian    0.00
    163 z         15.656763     15.660704     0.003941    Cartesian    0.03
    164 x          4.473361      4.470152    -0.003209    Cartesian   -0.07
    164 y         17.893444     17.878516    -0.014927    Cartesian   -0.08
    164 z          0.000000      0.000000     0.000000    Cartesian    0.00
    165 x          8.946722      8.951777     0.005056    Cartesian    0.06
    165 y         13.420083     13.435322     0.015240    Cartesian    0.11
    165 z          8.946722      8.949825     0.003103    Cartesian    0.03
    166 x         13.420083     13.428578     0.008495    Cartesian    0.06
    166 y         13.420083     13.428578     0.008495    Cartesian    0.06
    166 z          0.000000      0.000000     0.000000    Cartesian    0.00
    167 x         11.183402     11.184750     0.001347    Cartesian    0.01
    167 y         15.656763     15.659190     0.002427    Cartesian    0.02
    167 z         -2.236680     -2.239139    -0.002458    Cartesian    0.11
    168 x          2.236680      2.236680     0.000000    Cartesian    0.00
    168 y          6.710041      6.702110    -0.007931    Cartesian   -0.12
    168 z         15.656763     15.656280    -0.000483    Cartesian   -0.00
    169 x          4.473361      4.468467    -0.004894    Cartesian   -0.11
    169 y         17.893444     17.934175     0.040731    Cartesian    0.23
    169 z          4.473361      4.472786    -0.000575    Cartesian   -0.01
    170 x          8.946722      8.953608     0.006887    Cartesian    0.08
    170 y          8.946722      8.953608     0.006887    Cartesian    0.08
    170 z         13.420083     13.418630    -0.001453    Cartesian   -0.01
    171 x         13.420083     13.429830     0.009747    Cartesian    0.07
    171 y         13.420083     13.429830     0.009747    Cartesian    0.07
    171 z          4.473361      4.476727     0.003367    Cartesian    0.08
    172 x          6.710041      6.700957    -0.009084    Cartesian   -0.14
    172 y          6.710041      6.700957    -0.009084    Cartesian   -0.14
    172 z         15.656763     15.654561    -0.002202    Cartesian   -0.01
    173 x         11.183402     11.186941     0.003539    Cartesian    0.03
    173 y         11.183402     11.186941     0.003539    Cartesian    0.03
    173 z         11.183402     11.185615     0.002213    Cartesian    0.02
    174 x          8.946722      8.957375     0.010653    Cartesian    0.12
    174 y         17.893444     17.887292    -0.006152    Cartesian   -0.03
    174 z          0.000000      0.000000     0.000000    Cartesian    0.00
    175 x         11.183402     11.184296     0.000894    Cartesian    0.01
    175 y         15.656763     15.661702     0.004938    Cartesian    0.03
    175 z          6.710041      6.711758     0.001717    Cartesian    0.03
    176 x          2.236680      2.236680     0.000000    Cartesian    0.00
    176 y         15.656763     15.660786     0.004023    Cartesian    0.03
    176 z         11.183402     11.174989    -0.008413    Cartesian   -0.08
    177 x          8.946722      8.941324    -0.005398    Cartesian   -0.06
    177 y         17.893444     17.919385     0.025942    Cartesian    0.14
    177 z          4.473361      4.475197     0.001836    Cartesian    0.04
    178 x          4.473361      4.471363    -0.001997    Cartesian   -0.04
    178 y         13.420083     13.418764    -0.001319    Cartesian   -0.01
    178 z         13.420083     13.445286     0.025204    Cartesian    0.19
--------------------------------------------------------------------------------


  Time to end of optimisation  =       95.2212 seconds


  Peak dynamic memory used =     569.01 MB 


  Timing analysis for GULP :

--------------------------------------------------------------------------------
  Task / Subroutine                                          Time (Seconds)
--------------------------------------------------------------------------------
  Calculation of reciprocal space energy and derivatives          0.0007
  Calculation of reciprocal space energy using symmetry           0.0011
  Calculation of real space energy and derivatives                0.0040
  Calculation of real space energy using symmetry                 0.0098
  Calculation for region 1 energy and derivatives (2-b)          56.9842
  Calculation for region 2a energy                               33.2227
  Calculation for region 2b energy                                0.0003
  Calculation and manipulation of Hessian matrix                  3.9733
  Calculation of matrix inversion                                 0.2490
  Symmetry generation of equivalent positions                     0.0053
--------------------------------------------------------------------------------
  Total CPU time                                                 95.2212
--------------------------------------------------------------------------------


  Dump file written as Na3OCl.grs


  Job Finished at 14:27.56  3rd January    2021                               

