********************************************************************************
*                       GENERAL UTILITY LATTICE PROGRAM                        *
*                                 Julian Gale                                  *
*                       Curtin Institute for Computation                       *
*                    School of Molecular and Life Sciences                     *
*                    Curtin University, Western Australia                      *
********************************************************************************
* Version = 5.2.0 * Last modified =  10th September 2020                       *
********************************************************************************
*  optimise     - perform optimisation run                                     *
*  conp         - constant pressure calculation                                *
*  property     - calculate properties for final geometry                      *
*  defect       - perform defect calculation after bulk run                    *
*  compare      - compare initial and final structures                         *
********************************************************************************

  Job Started  at 14:00.59  3rd February   2021                               

  Number of CPUs =     1


  Total number of configurations input =      1

********************************************************************************
*  Input for Configuration =   1                                               *
********************************************************************************

  Formula = ClONa3                                                      

  Number of irreducible atoms/shells =       5


  Total number atoms/shells =       7

  Dimensionality = 3               :  Bulk   


  Symmetry :

  Crystal family                   :  Cubic       
  Crystal class  (Groth - 1921)    :  Cubic Hexakisoctahedral              

  Space group (centrosymmetric)    :  P M 3 M         

  Patterson group                  :  P m -3 m 

  Cartesian lattice vectors (Angstroms) :

        4.504000    0.000000    0.000000
        0.000000    4.504000    0.000000
        0.000000    0.000000    4.504000

  Cell parameters (Angstroms/Degrees):

  a =       4.5040    alpha =  90.0000
  b =       4.5040    beta  =  90.0000
  c =       4.5040    gamma =  90.0000

  Initial cell volume =          91.368216 Angs**3

  Temperature of configuration =   0.00     K 

  Pressure of configuration =         0.000 GPa 

  Fractional coordinates of asymmetric unit :

--------------------------------------------------------------------------------
   No.  Atomic       x           y          z         Charge      Occupancy
        Label      (Frac)      (Frac)     (Frac)        (e)         (Frac)  
--------------------------------------------------------------------------------
      1 Cl    c    0.000000    0.000000    0.000000     1.48500    1.000000    
      2 O     c    0.500000    0.500000    0.500000     0.18300    1.000000    
      3 Na    c    0.500000    0.500000    0.000000     1.00000    1.000000    
      4 Cl    s    0.000000    0.000000    0.000000    -2.48500    1.000000    
      5 O     s    0.500000    0.500000    0.500000    -2.18300    1.000000    
--------------------------------------------------------------------------------


  Constraints : 

--------------------------------------------------------------------------------
  Constraint no.      Unconstrained     Constrained    Coefficient    Offset
                         Variable         Variable
--------------------------------------------------------------------------------
           1              Strain 1        Strain 2       1.00000      0.0000
           2              Strain 1        Strain 3       1.00000      0.0000
--------------------------------------------------------------------------------


********************************************************************************
*  General input information                                                   *
********************************************************************************

  Species output for all configurations : 

--------------------------------------------------------------------------------
  Species    Type    Atomic    Atomic    Charge       Radii (Angs)     Library
                     Number     Mass       (e)     Cova   Ionic  VDW   Symbol
--------------------------------------------------------------------------------
    Na       Core       11      22.99   1.000000   0.970  0.000  2.300          
    O        Core        8      16.00   0.183000   0.730  0.000  1.360          
    O        Shell       8       0.00  -2.183000   0.730  0.000  1.360          
    Cl       Core       17      35.45   1.485000   0.990  0.000  1.650          
    Cl       Shell      17       0.00  -2.485000   0.990  0.000  1.650          
    Mg       Core       12      24.31   0.415000   1.100  0.000  0.000          
    Mg       Shell      12       0.00   1.585000   1.100  0.000  0.000          
    Ca       Core       20      40.08  -1.135000   0.990  0.000  0.000          
    Ca       Shell      20       0.00   3.135000   0.990  0.000  0.000          
    Sr       Core       38      87.62  -1.251000   1.120  0.000  0.000          
    Sr       Shell      38       0.00   3.251000   1.120  0.000  0.000          
    Ba       Core       56     137.33  -7.203000   1.340  0.000  0.000          
    Ba       Shell      56       0.00   9.203000   1.340  0.000  0.000          
--------------------------------------------------------------------------------


  Lattice summation method               =    Ewald          (3-D)
                                         =    Parry          (2-D)
                                         =    Saunders et al (1-D)
  Accuracy factor for lattice sums       =   12.000


  Analytic derivatives to be used

  Time limit = Infinity

  Maximum range for interatomic potentials =    100000.000000 Angstroms

  General interatomic potentials :

--------------------------------------------------------------------------------
Atom  Types   Potential      Parameter       Value         Units   Cutoffs(Ang)
  1     2                                                            Min /  Max 
--------------------------------------------------------------------------------
O    c O    s Spring (c-s)  Spring k 2       593.71600    eV*Ang^-2 0.000  0.800
                            Spring k 4       0.0000000    eV*Ang^-4 
--------------------------------------------------------------------------------
Cl   c Cl   s Spring (c-s)  Spring k 2       29.380000    eV*Ang^-2 0.000  0.800
                            Spring k 4       0.0000000    eV*Ang^-4 
--------------------------------------------------------------------------------
Mg   c Mg   s Spring (c-s)  Spring k 2       361.60000    eV*Ang^-2 0.000  0.800
                            Spring k 4       0.0000000    eV*Ang^-4 
--------------------------------------------------------------------------------
Ca   c Ca   s Spring (c-s)  Spring k 2       110.20000    eV*Ang^-2 0.000  0.800
                            Spring k 4       0.0000000    eV*Ang^-4 
--------------------------------------------------------------------------------
Sr   c Sr   s Spring (c-s)  Spring k 2       71.700000    eV*Ang^-2 0.000  0.800
                            Spring k 4       0.0000000    eV*Ang^-4 
--------------------------------------------------------------------------------
Ba   c Ba   s Spring (c-s)  Spring k 2       495.20000    eV*Ang^-2 0.000  0.800
                            Spring k 4       0.0000000    eV*Ang^-4 
--------------------------------------------------------------------------------
Na   c Na   c Buckingham    Buckingham A     1788.1900    eV        0.000 12.000
                            Buckingham rho  0.15900000    Ang       
                            Buckingham C     0.0000000    eV*Ang^6  
--------------------------------------------------------------------------------
Na   c O    s Buckingham    Buckingham A     588.38000    eV        0.000 12.000
                            Buckingham rho  0.33800000    Ang       
                            Buckingham C     0.0000000    eV*Ang^6  
--------------------------------------------------------------------------------
Na   c Cl   s Buckingham    Buckingham A     1170.4100    eV        0.000 12.000
                            Buckingham rho  0.31500000    Ang       
                            Buckingham C     0.0000000    eV*Ang^6  
--------------------------------------------------------------------------------
O    s O    s Buckingham    Buckingham A     22764.300    eV        0.000 12.000
                            Buckingham rho  0.14900000    Ang       
                            Buckingham C     13.190000    eV*Ang^6  
--------------------------------------------------------------------------------
O    s Cl   s Buckingham    Buckingham A     8286.9100    eV        0.000 12.000
                            Buckingham rho  0.25900000    Ang       
                            Buckingham C     62.200000    eV*Ang^6  
--------------------------------------------------------------------------------
Cl   s Cl   s Buckingham    Buckingham A     1227.2000    eV        0.000 12.000
                            Buckingham rho  0.32100000    Ang       
                            Buckingham C     14.530000    eV*Ang^6  
--------------------------------------------------------------------------------
O    s Mg   s Buckingham    Buckingham A     1428.5000    eV        0.000 12.000
                            Buckingham rho  0.29450000    Ang       
                            Buckingham C     0.0000000    eV*Ang^6  
--------------------------------------------------------------------------------
Mg   s Cl   s Buckingham    Buckingham A     4914.5400    eV        0.000 12.000
                            Buckingham rho  0.25700000    Ang       
                            Buckingham C     0.0000000    eV*Ang^6  
--------------------------------------------------------------------------------
O    s Ca   s Buckingham    Buckingham A     1090.4000    eV        0.000 12.000
                            Buckingham rho  0.34370000    Ang       
                            Buckingham C     0.0000000    eV*Ang^6  
--------------------------------------------------------------------------------
Cl   s Ca   s Buckingham    Buckingham A     2302.0000    eV        0.000 12.000
                            Buckingham rho  0.34020000    Ang       
                            Buckingham C     0.0000000    eV*Ang^6  
--------------------------------------------------------------------------------
O    s Sr   s Buckingham    Buckingham A     959.10000    eV        0.000 12.000
                            Buckingham rho  0.37210000    Ang       
                            Buckingham C     0.0000000    eV*Ang^6  
--------------------------------------------------------------------------------
Cl   s Sr   s Buckingham    Buckingham A     2191.0900    eV        0.000 12.000
                            Buckingham rho  0.34570000    Ang       
                            Buckingham C     0.0000000    eV*Ang^6  
--------------------------------------------------------------------------------
O    s Ba   s Buckingham    Buckingham A     905.70000    eV        0.000 12.000
                            Buckingham rho  0.39760000    Ang       
                            Buckingham C     0.0000000    eV*Ang^6  
--------------------------------------------------------------------------------
Cl   s Ba   s Buckingham    Buckingham A     2704.5500    eV        0.000 12.000
                            Buckingham rho  0.35280000    Ang       
                            Buckingham C     0.0000000    eV*Ang^6  
--------------------------------------------------------------------------------

********************************************************************************
*  Output for configuration   1                                                *
********************************************************************************


  Components of energy : 

--------------------------------------------------------------------------------
  Interatomic potentials     =           4.94315381 eV    
  Monopole - monopole (real) =         -10.03624526 eV    
  Monopole - monopole (recip)=         -29.53581274 eV    
  Monopole - monopole (total)=         -39.57205800 eV    
--------------------------------------------------------------------------------
  Total lattice energy       =         -34.62890419 eV    
--------------------------------------------------------------------------------
  Total lattice energy       =           -3341.1599 kJ/(mole unit cells)
--------------------------------------------------------------------------------


  Number of variables =        1

  Maximum number of calculations  =          1000
  Maximum Hessian update interval =            10
  Maximum step size               =   1.000000000
  Maximum parameter tolerance     =   0.000010000
  Maximum function  tolerance     =   0.000010000
  Maximum gradient  tolerance     =   0.001000000
  Maximum gradient  component     =   0.010000000

  Symmetry constrained optimisation

  Symmetry used for second derivatives

  Cell parameters to be optimised using strains

  Newton-Raphson optimiser to be used

  BFGS hessian update to be used

  Lower half triangular hessian to be used

  Start of bulk optimisation :

  Cycle:      0 Energy:       -34.628904  Gnorm:      4.328237  CPU:    0.014
  ** Hessian calculated **
  Cycle:      1 Energy:       -34.677667  Gnorm:      0.044008  CPU:    0.018
  Cycle:      2 Energy:       -34.677671  Gnorm:      0.003653  CPU:    0.021


  **** Optimisation achieved ****


  Final energy =     -34.67767136 eV
  Final Gnorm  =       0.00000010

  Components of energy : 

--------------------------------------------------------------------------------
  Interatomic potentials     =           5.77546103 eV    
  Monopole - monopole (real) =         -10.25970290 eV    
  Monopole - monopole (recip)=         -30.19342950 eV    
  Monopole - monopole (total)=         -40.45313239 eV    
--------------------------------------------------------------------------------
  Total lattice energy       =         -34.67767136 eV    
--------------------------------------------------------------------------------
  Total lattice energy       =           -3345.8652 kJ/(mole unit cells)
--------------------------------------------------------------------------------

  Final asymmetric unit coordinates :

--------------------------------------------------------------------------------
   No.  Atomic        x           y           z         Radius
        Label       (Frac)      (Frac)      (Frac)       (Angs) 
--------------------------------------------------------------------------------
     1  Cl    c     0.000000    0.000000    0.000000    0.000000
     2  O     c     0.500000    0.500000    0.500000    0.000000
     3  Na    c     0.500000    0.500000    0.000000    0.000000
     4  Cl    s     0.000000    0.000000    0.000000    0.000000
     5  O     s     0.500000    0.500000    0.500000    0.000000
--------------------------------------------------------------------------------

  Final Cartesian lattice vectors (Angstroms) :

        4.405902    0.000000    0.000000
        0.000000    4.405902    0.000000
        0.000000    0.000000    4.405902


  Final cell parameters and derivatives :

--------------------------------------------------------------------------------
       a            4.405902 Angstrom     dE/de1(xx)     0.000000 eV/strain
       b            4.405902 Angstrom     dE/de2(yy)     0.000000 eV/strain
       c            4.405902 Angstrom     dE/de3(zz)     0.000000 eV/strain
       alpha       90.000000 Degrees      dE/de4(yz)     0.000000 eV/strain
       beta        90.000000 Degrees      dE/de5(xz)     0.000000 eV/strain
       gamma       90.000000 Degrees      dE/de6(xy)     0.000000 eV/strain
--------------------------------------------------------------------------------

  Primitive cell volume =            85.527266 Angs**3

  Density of cell =      2.338030 g/cm**3

  Non-primitive cell volume =            85.527266 Angs**3


  Final internal derivatives :

--------------------------------------------------------------------------------
   No.  Atomic          a             b             c           Radius
        Label          (eV)          (eV)          (eV)        (eV/Angs)
--------------------------------------------------------------------------------
      1 Cl    c       0.000000      0.000000      0.000000      0.000000
      2 O     c       0.000000      0.000000      0.000000      0.000000
      3 Na    c       0.000000      0.000000      0.000000      0.000000
      4 Cl    s       0.000000      0.000000      0.000000      0.000000
      5 O     s       0.000000      0.000000      0.000000      0.000000
--------------------------------------------------------------------------------
  Maximum abs         0.000000      0.000000      0.000000      0.000000
--------------------------------------------------------------------------------

  Comparison of initial and final structures : 

--------------------------------------------------------------------------------
  Parameter   Initial value   Final value   Difference    Units      Percent
--------------------------------------------------------------------------------
    Volume        91.368216     85.527266    -5.840950    Angs**3     -6.39
    a              4.504000      4.405902    -0.098098    Angstroms   -2.18
    b              4.504000      4.405902    -0.098098    Angstroms   -2.18
    c              4.504000      4.405902    -0.098098    Angstroms   -2.18
    alpha         90.000000     90.000000     0.000000    Degrees      0.00
    beta          90.000000     90.000000     0.000000    Degrees      0.00
    gamma         90.000000     90.000000     0.000000    Degrees      0.00
      1 x          0.000000      0.000000     0.000000    Fractional   0.00
      1 y          0.000000      0.000000     0.000000    Fractional   0.00
      1 z          0.000000      0.000000     0.000000    Fractional   0.00
      2 x          0.500000      0.500000     0.000000    Fractional   0.00
      2 y          0.500000      0.500000     0.000000    Fractional   0.00
      2 z          0.500000      0.500000     0.000000    Fractional   0.00
      3 x          0.500000      0.500000     0.000000    Fractional   0.00
      3 y          0.500000      0.500000     0.000000    Fractional   0.00
      3 z          0.000000      0.000000     0.000000    Fractional   0.00
      4 x          0.000000      0.000000     0.000000    Fractional   0.00
      4 y          0.000000      0.000000     0.000000    Fractional   0.00
      4 z          0.000000      0.000000     0.000000    Fractional   0.00
      5 x          0.500000      0.500000     0.000000    Fractional   0.00
      5 y          0.500000      0.500000     0.000000    Fractional   0.00
      5 z          0.500000      0.500000     0.000000    Fractional   0.00
--------------------------------------------------------------------------------


  Born effective charge tensors : 

-------------------------------------------------------------------------------
  Atom             x           y             z
-------------------------------------------------------------------------------
    1 Cl    x      -0.9918     -0.0000     -0.0000
            y      -0.0000     -0.9918     -0.0000
            z      -0.0000     -0.0000     -0.9918
-------------------------------------------------------------------------------
    2 O     x      -2.2939      0.0000      0.0000
            y       0.0000     -2.2939      0.0000
            z       0.0000      0.0000     -2.2939
-------------------------------------------------------------------------------
    3 Na    x       1.2243      0.0000      0.0000
            y       0.0000      1.2243     -0.0000
            z       0.0000      0.0000      0.8372
-------------------------------------------------------------------------------




  Elastic Constant Matrix: (Units=GPa)

-------------------------------------------------------------------------------
  Indices      1         2         3         4         5         6    
-------------------------------------------------------------------------------
       1     82.7680   24.3534   24.3534   -0.0000    0.0000   -0.0000
       2     24.3534   82.7680   24.3534    0.0000   -0.0000   -0.0000
       3     24.3534   24.3534   82.7680    0.0000   -0.0000    0.0000
       4     -0.0000    0.0000    0.0000   24.3534   -0.0000    0.0000
       5      0.0000   -0.0000   -0.0000   -0.0000   24.3534    0.0000
       6     -0.0000   -0.0000    0.0000    0.0000    0.0000   24.3534
-------------------------------------------------------------------------------


  Elastic Compliance Matrix: (Units=1/GPa)

-------------------------------------------------------------------------------
  Indices      1         2         3         4         5         6    
-------------------------------------------------------------------------------
       1    0.013948 -0.003171 -0.003171  0.000000 -0.000000  0.000000
       2   -0.003171  0.013948 -0.003171 -0.000000  0.000000 -0.000000
       3   -0.003171 -0.003171  0.013948 -0.000000  0.000000 -0.000000
       4    0.000000 -0.000000 -0.000000  0.041062  0.000000 -0.000000
       5   -0.000000  0.000000  0.000000  0.000000  0.041062 -0.000000
       6    0.000000 -0.000000 -0.000000 -0.000000 -0.000000  0.041062
-------------------------------------------------------------------------------

  Mechanical properties :

-------------------------------------------------------------------------------
  Convention :                    Reuss         Voigt         Hill
-------------------------------------------------------------------------------
  Bulk  Modulus (GPa)     =      43.82493      43.82493      43.82493
  Shear Modulus (GPa)     =      26.08758      26.29496      26.19127
-------------------------------------------------------------------------------
  Velocity S-wave (km/s)  =       3.34035       3.35360       3.34698
  Velocity P-wave (km/s)  =       5.79842       5.80861       5.80351
-------------------------------------------------------------------------------
  Compressibility (1/GPa) =    0.02281806
-------------------------------------------------------------------------------
  Stress axis :                     x             y             z
-------------------------------------------------------------------------------
  Youngs Moduli (GPa)     =      71.69479      71.69479      71.69479
-------------------------------------------------------------------------------
  Poissons Ratio (x)      =                     0.22734       0.22734
  Poissons Ratio (y)      =       0.22734                     0.22734
  Poissons Ratio (z)      =       0.22734       0.22734
-------------------------------------------------------------------------------


  Piezoelectric Strain Matrix: (Units=C/m**2)

-------------------------------------------------------------------------------
  Indices      1         2         3         4         5         6    
-------------------------------------------------------------------------------
       x    -0.00000  -0.00000  -0.00000  -0.00000   0.00000  -0.00000
       y     0.00000  -0.00000   0.00000   0.00000  -0.00000   0.00000
       z    -0.00000  -0.00000   0.00000  -0.00000   0.00000  -0.00000
-------------------------------------------------------------------------------


  Piezoelectric Stress Matrix: (Units=10**-11 C/N)

-------------------------------------------------------------------------------
  Indices      1         2         3         4         5         6    
-------------------------------------------------------------------------------
       x     0.00000  -0.00000  -0.00000  -0.00000   0.00000  -0.00000
       y     0.00000  -0.00000   0.00000   0.00000  -0.00000   0.00000
       z    -0.00000  -0.00000   0.00000  -0.00000   0.00000  -0.00000
-------------------------------------------------------------------------------


  Static dielectric constant tensor : 

-------------------------------------------------------------------------------
              x         y         z
-------------------------------------------------------------------------------
       x    11.08357   0.00000   0.00000
       y     0.00000  11.08357   0.00000
       z     0.00000   0.00000  11.08357
--------------------------------------------------------------------------------

  High frequency dielectric constant tensor : 

-------------------------------------------------------------------------------
              x         y         z
-------------------------------------------------------------------------------
       x     1.50771   0.00000   0.00000
       y     0.00000   1.50771   0.00000
       z     0.00000   0.00000   1.50771
-------------------------------------------------------------------------------

  Static refractive indices : 

-------------------------------------------------------------------------------
    1 =    3.32920      2 =    3.32920      3 =    3.32920
-------------------------------------------------------------------------------

  High frequency refractive indices : 

-------------------------------------------------------------------------------
    1 =    1.22789      2 =    1.22789      3 =    1.22789
-------------------------------------------------------------------------------


  Time to end of optimisation =       0.0313 seconds

********************************************************************************
*  Defect calculation for configuration   1 :                                  *
********************************************************************************

  Total number of defects =      1

  Total charge on defect  =   1.00

  Defect centre is at   0.5000   0.2500   0.2500  Frac

  Region 1 radius =  18.0000      Number of ions =   2015

  Number of symmetry inequivalent region 1 ions  =   1112

  Region 2 radius =  24.0000      Number of ions =   2754

  Number of symmetry inequivalent region 2a ions =   1461

  Region 2a mode = 4 : screened electrostatics due to region 1 
                       neglect correction to region 1 forces from 2a
                       region 2a displacements based on defects only

  Region 2a ions will only interact with defects in region 1

  Impurities:

--------------------------------------------------------------------------------
    Specification type     Symbol/Number         x          y          z
--------------------------------------------------------------------------------
    Frac/Symbol             Ba               0.500000   0.500000   0.000000
--------------------------------------------------------------------------------


  Symmetry reduced region 1 (Relative to defect centre) :

--------------------------------------------------------------------------------
   No.   Atomic       x            y             z       Radius  Multiplicity   
         Label      (Angs)       (Angs)        (Angs)    (Angs)     
--------------------------------------------------------------------------------
     1  O     c      0.0000       1.1015 *     1.1015 *  0.0000     1          
     2  Na    c      0.0000      -1.1015 *     1.1015 *  0.0000     1          
     3  Ba    c      0.0000       1.1015      -1.1015    0.0000     1    Defect
     4  Cl    c      2.2030 *    -1.1015 *    -1.1015 *  0.0000     2          
     5  Na    c      2.2030 *     1.1015 *     1.1015 *  0.0000     2          
     6  O     c      0.0000       1.1015 *    -3.3044 *  0.0000     1          
     7  O     c      0.0000      -3.3044 *     1.1015 *  0.0000     1          
     8  Na    c      0.0000       1.1015 *     3.3044 *  0.0000     1          
     9  Na    c      0.0000      -3.3044 *    -1.1015 *  0.0000     1          
    10  Na    c      0.0000      -1.1015 *    -3.3044 *  0.0000     1          
    11  Na    c      0.0000       3.3044 *     1.1015 *  0.0000     1          
    12  Cl    c      2.2030 *    -1.1015 *     3.3044 *  0.0000     2          
    13  Na    c      2.2030 *     1.1015 *    -3.3044 *  0.0000     2          
    14  Cl    c      2.2030 *     3.3044 *    -1.1015 *  0.0000     2          
    15  Na    c      2.2030 *    -3.3044 *     1.1015 *  0.0000     2          
    16  O     c      0.0000      -3.3044 *    -3.3044 *  0.0000     1          
    17  Na    c      0.0000      -3.3044 *     3.3044 *  0.0000     1          
    18  Na    c      0.0000       3.3044 *    -3.3044 *  0.0000     1          
    19  O     c      4.4059 *     1.1015 *     1.1015 *  0.0000     2          
    20  Na    c      4.4059 *     1.1015 *    -1.1015 *  0.0000     2          
    21  Na    c      4.4059 *    -1.1015 *     1.1015 *  0.0000     2          
    22  Cl    c      2.2030 *     3.3044 *     3.3044 *  0.0000     2          
    23  Na    c      2.2030 *    -3.3044 *    -3.3044 *  0.0000     2          
    24  O     c      0.0000       1.1015 *     5.5074 *  0.0000     1          
    25  O     c      0.0000       5.5074 *     1.1015 *  0.0000     1          
    26  O     c      4.4059 *     1.1015 *    -3.3044 *  0.0000     2          
    27  Na    c      0.0000       1.1015 *    -5.5074 *  0.0000     1          
    28  Na    c      0.0000       5.5074 *    -1.1015 *  0.0000     1          
    29  Na    c      4.4059 *     1.1015 *     3.3044 *  0.0000     2          
    30  Na    c      0.0000      -1.1015 *     5.5074 *  0.0000     1          
    31  Na    c      0.0000      -5.5074 *     1.1015 *  0.0000     1          
    32  Na    c      4.4059 *    -1.1015 *    -3.3044 *  0.0000     2          
    33  O     c      4.4059 *    -3.3044 *     1.1015 *  0.0000     2          
    34  Na    c      4.4059 *    -3.3044 *    -1.1015 *  0.0000     2          
    35  Na    c      4.4059 *     3.3044 *     1.1015 *  0.0000     2          
    36  Cl    c      2.2030 *    -1.1015 *    -5.5074 *  0.0000     2          
    37  Cl    c      2.2030 *    -5.5074 *    -1.1015 *  0.0000     2          
    38  Na    c      2.2030 *     1.1015 *     5.5074 *  0.0000     2          
    39  Na    c      2.2030 *     5.5074 *     1.1015 *  0.0000     2          
    40  O     c      0.0000       5.5074 *    -3.3044 *  0.0000     1          
    41  O     c      0.0000      -3.3044 *     5.5074 *  0.0000     1          
    42  Na    c      0.0000       5.5074 *     3.3044 *  0.0000     1          
    43  Na    c      0.0000      -3.3044 *    -5.5074 *  0.0000     1          
    44  Na    c      0.0000       3.3044 *     5.5074 *  0.0000     1          
    45  Na    c      0.0000      -5.5074 *    -3.3044 *  0.0000     1          
    46  O     c      4.4059 *    -3.3044 *    -3.3044 *  0.0000     2          
    47  Na    c      4.4059 *    -3.3044 *     3.3044 *  0.0000     2          
    48  Na    c      4.4059 *     3.3044 *    -3.3044 *  0.0000     2          
    49  Cl    c      6.6089 *    -1.1015 *    -1.1015 *  0.0000     2          
    50  Na    c      6.6089 *     1.1015 *     1.1015 *  0.0000     2          
    51  Cl    c      2.2030 *     3.3044 *    -5.5074 *  0.0000     2          
    52  Cl    c      2.2030 *    -5.5074 *     3.3044 *  0.0000     2          
    53  Na    c      2.2030 *     5.5074 *    -3.3044 *  0.0000     2          
    54  Na    c      2.2030 *    -3.3044 *     5.5074 *  0.0000     2          
    55  O     c      4.4059 *     1.1015 *     5.5074 *  0.0000     2          
    56  O     c      4.4059 *     5.5074 *     1.1015 *  0.0000     2          
    57  Na    c      4.4059 *     1.1015 *    -5.5074 *  0.0000     2          
    58  Na    c      4.4059 *     5.5074 *    -1.1015 *  0.0000     2          
    59  Na    c      4.4059 *    -1.1015 *     5.5074 *  0.0000     2          
    60  Na    c      4.4059 *    -5.5074 *     1.1015 *  0.0000     2          
    61  Cl    c      6.6089 *    -1.1015 *     3.3044 *  0.0000     2          
    62  Cl    c      6.6089 *     3.3044 *    -1.1015 *  0.0000     2          
    63  Na    c      6.6089 *     1.1015 *    -3.3044 *  0.0000     2          
    64  Na    c      6.6089 *    -3.3044 *     1.1015 *  0.0000     2          
    65  O     c      0.0000       1.1015 *    -7.7103 *  0.0000     1          
    66  O     c      0.0000       5.5074 *     5.5074 *  0.0000     1          
    67  O     c      0.0000      -7.7103 *     1.1015 *  0.0000     1          
    68  Na    c      0.0000       1.1015 *     7.7103 *  0.0000     1          
    69  Na    c      0.0000       5.5074 *    -5.5074 *  0.0000     1          
    70  Na    c      0.0000      -7.7103 *    -1.1015 *  0.0000     1          
    71  Na    c      0.0000      -1.1015 *    -7.7103 *  0.0000     1          
    72  Na    c      0.0000       7.7103 *     1.1015 *  0.0000     1          
    73  Na    c      0.0000      -5.5074 *     5.5074 *  0.0000     1          
    74  O     c      4.4059 *     5.5074 *    -3.3044 *  0.0000     2          
    75  O     c      4.4059 *    -3.3044 *     5.5074 *  0.0000     2          
    76  Na    c      4.4059 *     5.5074 *     3.3044 *  0.0000     2          
    77  Na    c      4.4059 *    -3.3044 *    -5.5074 *  0.0000     2          
    78  Na    c      4.4059 *     3.3044 *     5.5074 *  0.0000     2          
    79  Na    c      4.4059 *    -5.5074 *    -3.3044 *  0.0000     2          
    80  Cl    c      2.2030 *    -1.1015 *     7.7103 *  0.0000     2          
    81  Cl    c      2.2030 *    -5.5074 *    -5.5074 *  0.0000     2          
    82  Cl    c      6.6089 *     3.3044 *     3.3044 *  0.0000     2          
    83  Na    c      2.2030 *     1.1015 *    -7.7103 *  0.0000     2          
    84  Na    c      2.2030 *     5.5074 *     5.5074 *  0.0000     2          
    85  Na    c      6.6089 *    -3.3044 *    -3.3044 *  0.0000     2          
    86  Cl    c      2.2030 *     7.7103 *    -1.1015 *  0.0000     2          
    87  Na    c      2.2030 *    -7.7103 *     1.1015 *  0.0000     2          
    88  O     c      0.0000      -3.3044 *    -7.7103 *  0.0000     1          
    89  O     c      0.0000      -7.7103 *    -3.3044 *  0.0000     1          
    90  Na    c      0.0000      -3.3044 *     7.7103 *  0.0000     1          
    91  Na    c      0.0000      -7.7103 *     3.3044 *  0.0000     1          
    92  Na    c      0.0000       3.3044 *    -7.7103 *  0.0000     1          
    93  Na    c      0.0000       7.7103 *    -3.3044 *  0.0000     1          
    94  Cl    c      2.2030 *     3.3044 *     7.7103 *  0.0000     2          
    95  Cl    c      6.6089 *    -1.1015 *    -5.5074 *  0.0000     2          
    96  Na    c      2.2030 *    -3.3044 *    -7.7103 *  0.0000     2          
    97  Na    c      6.6089 *     1.1015 *     5.5074 *  0.0000     2          
    98  Cl    c      2.2030 *     7.7103 *     3.3044 *  0.0000     2          
    99  Cl    c      6.6089 *    -5.5074 *    -1.1015 *  0.0000     2          
   100  Na    c      2.2030 *    -7.7103 *    -3.3044 *  0.0000     2          
   101  Na    c      6.6089 *     5.5074 *     1.1015 *  0.0000     2          
   102  O     c      4.4059 *     1.1015 *    -7.7103 *  0.0000     2          
   103  O     c      4.4059 *     5.5074 *     5.5074 *  0.0000     2          
   104  Na    c      4.4059 *     1.1015 *     7.7103 *  0.0000     2          
   105  Na    c      4.4059 *     5.5074 *    -5.5074 *  0.0000     2          
   106  Na    c      4.4059 *    -1.1015 *    -7.7103 *  0.0000     2          
   107  Na    c      4.4059 *    -5.5074 *     5.5074 *  0.0000     2          
   108  O     c      4.4059 *    -7.7103 *     1.1015 *  0.0000     2          
   109  O     c      8.8118 *     1.1015 *     1.1015 *  0.0000     2          
   110  Na    c      4.4059 *    -7.7103 *    -1.1015 *  0.0000     2          
   111  Na    c      8.8118 *     1.1015 *    -1.1015 *  0.0000     2          
   112  Na    c      4.4059 *     7.7103 *     1.1015 *  0.0000     2          
   113  Na    c      8.8118 *    -1.1015 *     1.1015 *  0.0000     2          
   114  Cl    c      6.6089 *     3.3044 *    -5.5074 *  0.0000     2          
   115  Cl    c      6.6089 *    -5.5074 *     3.3044 *  0.0000     2          
   116  Na    c      6.6089 *     5.5074 *    -3.3044 *  0.0000     2          
   117  Na    c      6.6089 *    -3.3044 *     5.5074 *  0.0000     2          
   118  O     c      0.0000       5.5074 *    -7.7103 *  0.0000     1          
   119  O     c      0.0000      -7.7103 *     5.5074 *  0.0000     1          
   120  O     c      4.4059 *    -3.3044 *    -7.7103 *  0.0000     2          
   121  Na    c      0.0000       5.5074 *     7.7103 *  0.0000     1          
   122  Na    c      0.0000      -7.7103 *    -5.5074 *  0.0000     1          
   123  Na    c      4.4059 *    -3.3044 *     7.7103 *  0.0000     2          
   124  Na    c      0.0000       7.7103 *     5.5074 *  0.0000     1          
   125  Na    c      0.0000      -5.5074 *    -7.7103 *  0.0000     1          
   126  Na    c      4.4059 *     3.3044 *    -7.7103 *  0.0000     2          
   127  O     c      4.4059 *    -7.7103 *    -3.3044 *  0.0000     2          
   128  O     c      8.8118 *     1.1015 *    -3.3044 *  0.0000     2          
   129  O     c      8.8118 *    -3.3044 *     1.1015 *  0.0000     2          
   130  Na    c      4.4059 *    -7.7103 *     3.3044 *  0.0000     2          
   131  Na    c      8.8118 *     1.1015 *     3.3044 *  0.0000     2          
   132  Na    c      8.8118 *    -3.3044 *    -1.1015 *  0.0000     2          
   133  Na    c      4.4059 *     7.7103 *    -3.3044 *  0.0000     2          
   134  Na    c      8.8118 *    -1.1015 *    -3.3044 *  0.0000     2          
   135  Na    c      8.8118 *     3.3044 *     1.1015 *  0.0000     2          
   136  Cl    c      2.2030 *     7.7103 *    -5.5074 *  0.0000     2          
   137  Cl    c      2.2030 *    -5.5074 *     7.7103 *  0.0000     2          
   138  Na    c      2.2030 *     5.5074 *    -7.7103 *  0.0000     2          
   139  Na    c      2.2030 *    -7.7103 *     5.5074 *  0.0000     2          
   140  O     c      0.0000       1.1015 *     9.9133 *  0.0000     1          
   141  O     c      0.0000       9.9133 *     1.1015 *  0.0000     1          
   142  O     c      8.8118 *    -3.3044 *    -3.3044 *  0.0000     2          
   143  Na    c      0.0000       1.1015 *    -9.9133 *  0.0000     1          
   144  Na    c      0.0000       9.9133 *    -1.1015 *  0.0000     1          
   145  Na    c      8.8118 *    -3.3044 *     3.3044 *  0.0000     2          
   146  Na    c      0.0000      -1.1015 *     9.9133 *  0.0000     1          
   147  Na    c      0.0000      -9.9133 *     1.1015 *  0.0000     1          
   148  Na    c      8.8118 *     3.3044 *    -3.3044 *  0.0000     2          
   149  Cl    c      2.2030 *    -1.1015 *    -9.9133 *  0.0000     2          
   150  Cl    c      6.6089 *    -1.1015 *     7.7103 *  0.0000     2          
   151  Cl    c      6.6089 *     7.7103 *    -1.1015 *  0.0000     2          
   152  Cl    c      6.6089 *    -5.5074 *    -5.5074 *  0.0000     2          
   153  Na    c      2.2030 *     1.1015 *     9.9133 *  0.0000     2          
   154  Na    c      6.6089 *     1.1015 *    -7.7103 *  0.0000     2          
   155  Na    c      6.6089 *     5.5074 *     5.5074 *  0.0000     2          
   156  Na    c      6.6089 *    -7.7103 *     1.1015 *  0.0000     2          
   157  Cl    c      2.2030 *    -9.9133 *    -1.1015 *  0.0000     2          
   158  Na    c      2.2030 *     9.9133 *     1.1015 *  0.0000     2          
   159  O     c      0.0000       9.9133 *    -3.3044 *  0.0000     1          
   160  O     c      0.0000      -3.3044 *     9.9133 *  0.0000     1          
   161  O     c      4.4059 *     5.5074 *    -7.7103 *  0.0000     2          
   162  O     c      4.4059 *    -7.7103 *     5.5074 *  0.0000     2          
   163  O     c      8.8118 *     1.1015 *     5.5074 *  0.0000     2          
   164  O     c      8.8118 *     5.5074 *     1.1015 *  0.0000     2          
   165  Na    c      0.0000       9.9133 *     3.3044 *  0.0000     1          
   166  Na    c      0.0000      -3.3044 *    -9.9133 *  0.0000     1          
   167  Na    c      4.4059 *     5.5074 *     7.7103 *  0.0000     2          
   168  Na    c      4.4059 *    -7.7103 *    -5.5074 *  0.0000     2          
   169  Na    c      8.8118 *     1.1015 *    -5.5074 *  0.0000     2          
   170  Na    c      8.8118 *     5.5074 *    -1.1015 *  0.0000     2          
   171  Na    c      0.0000       3.3044 *     9.9133 *  0.0000     1          
   172  Na    c      0.0000      -9.9133 *    -3.3044 *  0.0000     1          
   173  Na    c      4.4059 *     7.7103 *     5.5074 *  0.0000     2          
   174  Na    c      4.4059 *    -5.5074 *    -7.7103 *  0.0000     2          
   175  Na    c      8.8118 *    -1.1015 *     5.5074 *  0.0000     2          
   176  Na    c      8.8118 *    -5.5074 *     1.1015 *  0.0000     2          
   177  Cl    c      6.6089 *     7.7103 *     3.3044 *  0.0000     2          
   178  Na    c      6.6089 *    -7.7103 *    -3.3044 *  0.0000     2          
   179  Cl    c      2.2030 *     3.3044 *    -9.9133 *  0.0000     2          
   180  Cl    c      2.2030 *    -9.9133 *     3.3044 *  0.0000     2          
   181  Cl    c      6.6089 *     3.3044 *     7.7103 *  0.0000     2          
   182  Na    c      2.2030 *     9.9133 *    -3.3044 *  0.0000     2          
   183  Na    c      2.2030 *    -3.3044 *     9.9133 *  0.0000     2          
   184  Na    c      6.6089 *    -3.3044 *    -7.7103 *  0.0000     2          
   185  O     c      0.0000      -7.7103 *    -7.7103 *  0.0000     1          
   186  O     c      4.4059 *     1.1015 *     9.9133 *  0.0000     2          
   187  O     c      4.4059 *     9.9133 *     1.1015 *  0.0000     2          
   188  O     c      8.8118 *     5.5074 *    -3.3044 *  0.0000     2          
   189  O     c      8.8118 *    -3.3044 *     5.5074 *  0.0000     2          
   190  Na    c      0.0000      -7.7103 *     7.7103 *  0.0000     1          
   191  Na    c      4.4059 *     1.1015 *    -9.9133 *  0.0000     2          
   192  Na    c      4.4059 *     9.9133 *    -1.1015 *  0.0000     2          
   193  Na    c      8.8118 *     5.5074 *     3.3044 *  0.0000     2          
   194  Na    c      8.8118 *    -3.3044 *    -5.5074 *  0.0000     2          
   195  Na    c      0.0000       7.7103 *    -7.7103 *  0.0000     1          
   196  Na    c      4.4059 *    -1.1015 *     9.9133 *  0.0000     2          
   197  Na    c      4.4059 *    -9.9133 *     1.1015 *  0.0000     2          
   198  Na    c      8.8118 *     3.3044 *     5.5074 *  0.0000     2          
   199  Na    c      8.8118 *    -5.5074 *    -3.3044 *  0.0000     2          
   200  Cl    c      2.2030 *     7.7103 *     7.7103 *  0.0000     2          
   201  Cl    c     11.0148 *    -1.1015 *    -1.1015 *  0.0000     2          
   202  Na    c      2.2030 *    -7.7103 *    -7.7103 *  0.0000     2          
   203  Na    c     11.0148 *     1.1015 *     1.1015 *  0.0000     2          
   204  O     c      4.4059 *     9.9133 *    -3.3044 *  0.0000     2          
   205  Na    c      4.4059 *     9.9133 *     3.3044 *  0.0000     2          
   206  Na    c      4.4059 *    -9.9133 *    -3.3044 *  0.0000     2          
   207  O     c      0.0000       5.5074 *     9.9133 *  0.0000     1          
   208  O     c      0.0000       9.9133 *     5.5074 *  0.0000     1          
   209  O     c      4.4059 *    -3.3044 *     9.9133 *  0.0000     2          
   210  Na    c      0.0000       5.5074 *    -9.9133 *  0.0000     1          
   211  Na    c      0.0000       9.9133 *    -5.5074 *  0.0000     1          
   212  Na    c      4.4059 *    -3.3044 *    -9.9133 *  0.0000     2          
   213  Na    c      0.0000      -5.5074 *     9.9133 *  0.0000     1          
   214  Na    c      0.0000      -9.9133 *     5.5074 *  0.0000     1          
   215  Na    c      4.4059 *     3.3044 *     9.9133 *  0.0000     2          
   216  Cl    c      2.2030 *    -5.5074 *    -9.9133 *  0.0000     2          
   217  Cl    c      2.2030 *    -9.9133 *    -5.5074 *  0.0000     2          
   218  Cl    c      6.6089 *     7.7103 *    -5.5074 *  0.0000     2          
   219  Cl    c      6.6089 *    -5.5074 *     7.7103 *  0.0000     2          
   220  Cl    c     11.0148 *    -1.1015 *     3.3044 *  0.0000     2          
   221  Cl    c     11.0148 *     3.3044 *    -1.1015 *  0.0000     2          
   222  Na    c      2.2030 *     5.5074 *     9.9133 *  0.0000     2          
   223  Na    c      2.2030 *     9.9133 *     5.5074 *  0.0000     2          
   224  Na    c      6.6089 *     5.5074 *    -7.7103 *  0.0000     2          
   225  Na    c      6.6089 *    -7.7103 *     5.5074 *  0.0000     2          
   226  Na    c     11.0148 *     1.1015 *    -3.3044 *  0.0000     2          
   227  Na    c     11.0148 *    -3.3044 *     1.1015 *  0.0000     2          
   228  O     c      4.4059 *    -7.7103 *    -7.7103 *  0.0000     2          
   229  O     c      8.8118 *     1.1015 *    -7.7103 *  0.0000     2          
   230  O     c      8.8118 *     5.5074 *     5.5074 *  0.0000     2          
   231  Na    c      4.4059 *    -7.7103 *     7.7103 *  0.0000     2          
   232  Na    c      8.8118 *     1.1015 *     7.7103 *  0.0000     2          
   233  Na    c      8.8118 *     5.5074 *    -5.5074 *  0.0000     2          
   234  Na    c      4.4059 *     7.7103 *    -7.7103 *  0.0000     2          
   235  Na    c      8.8118 *    -1.1015 *    -7.7103 *  0.0000     2          
   236  Na    c      8.8118 *    -5.5074 *     5.5074 *  0.0000     2          
   237  O     c      8.8118 *    -7.7103 *     1.1015 *  0.0000     2          
   238  Na    c      8.8118 *    -7.7103 *    -1.1015 *  0.0000     2          
   239  Na    c      8.8118 *     7.7103 *     1.1015 *  0.0000     2          
   240  Cl    c     11.0148 *     3.3044 *     3.3044 *  0.0000     2          
   241  Na    c     11.0148 *    -3.3044 *    -3.3044 *  0.0000     2          
   242  Cl    c      6.6089 *    -1.1015 *    -9.9133 *  0.0000     2          
   243  Cl    c      6.6089 *    -9.9133 *    -1.1015 *  0.0000     2          
   244  Na    c      6.6089 *     1.1015 *     9.9133 *  0.0000     2          
   245  Na    c      6.6089 *     9.9133 *     1.1015 *  0.0000     2          
   246  O     c      0.0000       1.1015 *   -12.1162 *  0.0000     1          
   247  O     c      0.0000     -12.1162 *     1.1015 *  0.0000     1          
   248  O     c      4.4059 *     5.5074 *     9.9133 *  0.0000     2          
   249  O     c      4.4059 *     9.9133 *     5.5074 *  0.0000     2          
   250  O     c      8.8118 *    -3.3044 *    -7.7103 *  0.0000     2          
   251  O     c      8.8118 *    -7.7103 *    -3.3044 *  0.0000     2          
   252  Na    c      0.0000       1.1015 *    12.1162 *  0.0000     1          
   253  Na    c      0.0000     -12.1162 *    -1.1015 *  0.0000     1          
   254  Na    c      4.4059 *     5.5074 *    -9.9133 *  0.0000     2          
   255  Na    c      4.4059 *     9.9133 *    -5.5074 *  0.0000     2          
   256  Na    c      8.8118 *    -3.3044 *     7.7103 *  0.0000     2          
   257  Na    c      8.8118 *    -7.7103 *     3.3044 *  0.0000     2          
   258  Na    c      0.0000      -1.1015 *   -12.1162 *  0.0000     1          
   259  Na    c      0.0000      12.1162 *     1.1015 *  0.0000     1          
   260  Na    c      4.4059 *    -5.5074 *     9.9133 *  0.0000     2          
   261  Na    c      4.4059 *    -9.9133 *     5.5074 *  0.0000     2          
   262  Na    c      8.8118 *     3.3044 *    -7.7103 *  0.0000     2          
   263  Na    c      8.8118 *     7.7103 *    -3.3044 *  0.0000     2          
   264  Cl    c      2.2030 *    -1.1015 *    12.1162 *  0.0000     2          
   265  Cl    c      2.2030 *    12.1162 *    -1.1015 *  0.0000     2          
   266  Cl    c      6.6089 *     3.3044 *    -9.9133 *  0.0000     2          
   267  Cl    c      6.6089 *    -9.9133 *     3.3044 *  0.0000     2          
   268  Cl    c     11.0148 *    -1.1015 *    -5.5074 *  0.0000     2          
   269  Cl    c     11.0148 *    -5.5074 *    -1.1015 *  0.0000     2          
   270  Na    c      2.2030 *     1.1015 *   -12.1162 *  0.0000     2          
   271  Na    c      2.2030 *   -12.1162 *     1.1015 *  0.0000     2          
   272  Na    c      6.6089 *     9.9133 *    -3.3044 *  0.0000     2          
   273  Na    c      6.6089 *    -3.3044 *     9.9133 *  0.0000     2          
   274  Na    c     11.0148 *     1.1015 *     5.5074 *  0.0000     2          
   275  Na    c     11.0148 *     5.5074 *     1.1015 *  0.0000     2          
   276  O     c      0.0000      -3.3044 *   -12.1162 *  0.0000     1          
   277  O     c      0.0000     -12.1162 *    -3.3044 *  0.0000     1          
   278  Na    c      0.0000      -3.3044 *    12.1162 *  0.0000     1          
   279  Na    c      0.0000     -12.1162 *     3.3044 *  0.0000     1          
   280  Na    c      0.0000       3.3044 *   -12.1162 *  0.0000     1          
   281  Na    c      0.0000      12.1162 *    -3.3044 *  0.0000     1          
   282  O     c      0.0000       9.9133 *    -7.7103 *  0.0000     1          
   283  O     c      0.0000      -7.7103 *     9.9133 *  0.0000     1          
   284  Na    c      0.0000       9.9133 *     7.7103 *  0.0000     1          
   285  Na    c      0.0000      -7.7103 *    -9.9133 *  0.0000     1          
   286  Na    c      0.0000       7.7103 *     9.9133 *  0.0000     1          
   287  Na    c      0.0000      -9.9133 *    -7.7103 *  0.0000     1          
   288  Cl    c      2.2030 *    12.1162 *     3.3044 *  0.0000     2          
   289  Cl    c      6.6089 *     7.7103 *     7.7103 *  0.0000     2          
   290  Cl    c     11.0148 *    -5.5074 *     3.3044 *  0.0000     2          
   291  Na    c      2.2030 *   -12.1162 *    -3.3044 *  0.0000     2          
   292  Na    c      6.6089 *    -7.7103 *    -7.7103 *  0.0000     2          
   293  Na    c     11.0148 *     5.5074 *    -3.3044 *  0.0000     2          
   294  Cl    c      2.2030 *     3.3044 *    12.1162 *  0.0000     2          
   295  Cl    c      2.2030 *     7.7103 *    -9.9133 *  0.0000     2          
   296  Cl    c      2.2030 *    -9.9133 *     7.7103 *  0.0000     2          
   297  Cl    c     11.0148 *     3.3044 *    -5.5074 *  0.0000     2          
   298  Na    c      2.2030 *     9.9133 *    -7.7103 *  0.0000     2          
   299  Na    c      2.2030 *    -3.3044 *   -12.1162 *  0.0000     2          
   300  Na    c      2.2030 *    -7.7103 *     9.9133 *  0.0000     2          
   301  Na    c     11.0148 *    -3.3044 *     5.5074 *  0.0000     2          
   302  O     c      4.4059 *     1.1015 *   -12.1162 *  0.0000     2          
   303  O     c      4.4059 *   -12.1162 *     1.1015 *  0.0000     2          
   304  O     c      8.8118 *     5.5074 *    -7.7103 *  0.0000     2          
   305  Na    c      4.4059 *     1.1015 *    12.1162 *  0.0000     2          
   306  Na    c      4.4059 *   -12.1162 *    -1.1015 *  0.0000     2          
   307  Na    c      8.8118 *     5.5074 *     7.7103 *  0.0000     2          
   308  Na    c      4.4059 *    -1.1015 *   -12.1162 *  0.0000     2          
   309  Na    c      4.4059 *    12.1162 *     1.1015 *  0.0000     2          
   310  Na    c      8.8118 *    -5.5074 *    -7.7103 *  0.0000     2          
   311  O     c      8.8118 *    -7.7103 *     5.5074 *  0.0000     2          
   312  Na    c      8.8118 *    -7.7103 *    -5.5074 *  0.0000     2          
   313  Na    c      8.8118 *     7.7103 *     5.5074 *  0.0000     2          
   314  Cl    c      6.6089 *    -5.5074 *    -9.9133 *  0.0000     2          
   315  Cl    c      6.6089 *    -9.9133 *    -5.5074 *  0.0000     2          
   316  Na    c      6.6089 *     5.5074 *     9.9133 *  0.0000     2          
   317  Na    c      6.6089 *     9.9133 *     5.5074 *  0.0000     2          
   318  O     c      4.4059 *     9.9133 *    -7.7103 *  0.0000     2          
   319  O     c      4.4059 *   -12.1162 *    -3.3044 *  0.0000     2          
   320  Na    c      4.4059 *     9.9133 *     7.7103 *  0.0000     2          
   321  Na    c      4.4059 *   -12.1162 *     3.3044 *  0.0000     2          
   322  Na    c      4.4059 *    12.1162 *    -3.3044 *  0.0000     2          
   323  Na    c      4.4059 *    -9.9133 *    -7.7103 *  0.0000     2          
   324  O     c      0.0000       5.5074 *   -12.1162 *  0.0000     1          
   325  O     c      0.0000     -12.1162 *     5.5074 *  0.0000     1          
   326  O     c      4.4059 *    -3.3044 *   -12.1162 *  0.0000     2          
   327  O     c      4.4059 *    -7.7103 *     9.9133 *  0.0000     2          
   328  O     c      8.8118 *     1.1015 *     9.9133 *  0.0000     2          
   329  O     c      8.8118 *     9.9133 *     1.1015 *  0.0000     2          
   330  O     c     13.2177 *     1.1015 *     1.1015 *  0.0000     2          
   331  Na    c      0.0000       5.5074 *    12.1162 *  0.0000     1          
   332  Na    c      0.0000     -12.1162 *    -5.5074 *  0.0000     1          
   333  Na    c      4.4059 *    -3.3044 *    12.1162 *  0.0000     2          
   334  Na    c      4.4059 *    -7.7103 *    -9.9133 *  0.0000     2          
   335  Na    c      8.8118 *     1.1015 *    -9.9133 *  0.0000     2          
   336  Na    c      8.8118 *     9.9133 *    -1.1015 *  0.0000     2          
   337  Na    c     13.2177 *     1.1015 *    -1.1015 *  0.0000     2          
   338  Na    c      0.0000      12.1162 *     5.5074 *  0.0000     1          
   339  Na    c      0.0000      -5.5074 *   -12.1162 *  0.0000     1          
   340  Na    c      4.4059 *     3.3044 *   -12.1162 *  0.0000     2          
   341  Na    c      4.4059 *     7.7103 *     9.9133 *  0.0000     2          
   342  Na    c      8.8118 *    -1.1015 *     9.9133 *  0.0000     2          
   343  Na    c      8.8118 *    -9.9133 *     1.1015 *  0.0000     2          
   344  Na    c     13.2177 *    -1.1015 *     1.1015 *  0.0000     2          
   345  Cl    c      2.2030 *    12.1162 *    -5.5074 *  0.0000     2          
   346  Cl    c      2.2030 *    -5.5074 *    12.1162 *  0.0000     2          
   347  Cl    c     11.0148 *    -1.1015 *     7.7103 *  0.0000     2          
   348  Cl    c     11.0148 *     7.7103 *    -1.1015 *  0.0000     2          
   349  Cl    c     11.0148 *    -5.5074 *    -5.5074 *  0.0000     2          
   350  Na    c      2.2030 *     5.5074 *   -12.1162 *  0.0000     2          
   351  Na    c      2.2030 *   -12.1162 *     5.5074 *  0.0000     2          
   352  Na    c     11.0148 *     1.1015 *    -7.7103 *  0.0000     2          
   353  Na    c     11.0148 *     5.5074 *     5.5074 *  0.0000     2          
   354  Na    c     11.0148 *    -7.7103 *     1.1015 *  0.0000     2          
   355  O     c      8.8118 *     9.9133 *    -3.3044 *  0.0000     2          
   356  O     c     13.2177 *     1.1015 *    -3.3044 *  0.0000     2          
   357  O     c     13.2177 *    -3.3044 *     1.1015 *  0.0000     2          
   358  Na    c      8.8118 *     9.9133 *     3.3044 *  0.0000     2          
   359  Na    c     13.2177 *     1.1015 *     3.3044 *  0.0000     2          
   360  Na    c     13.2177 *    -3.3044 *    -1.1015 *  0.0000     2          
   361  Na    c      8.8118 *    -9.9133 *    -3.3044 *  0.0000     2          
   362  Na    c     13.2177 *    -1.1015 *    -3.3044 *  0.0000     2          
   363  Na    c     13.2177 *     3.3044 *     1.1015 *  0.0000     2          
   364  O     c      8.8118 *    -3.3044 *     9.9133 *  0.0000     2          
   365  Na    c      8.8118 *    -3.3044 *    -9.9133 *  0.0000     2          
   366  Na    c      8.8118 *     3.3044 *     9.9133 *  0.0000     2          
   367  Cl    c      6.6089 *    -1.1015 *    12.1162 *  0.0000     2          
   368  Cl    c     11.0148 *     3.3044 *     7.7103 *  0.0000     2          
   369  Cl    c     11.0148 *     7.7103 *     3.3044 *  0.0000     2          
   370  Na    c      6.6089 *     1.1015 *   -12.1162 *  0.0000     2          
   371  Na    c     11.0148 *    -3.3044 *    -7.7103 *  0.0000     2          
   372  Na    c     11.0148 *    -7.7103 *    -3.3044 *  0.0000     2          
   373  Cl    c      6.6089 *    12.1162 *    -1.1015 *  0.0000     2          
   374  Na    c      6.6089 *   -12.1162 *     1.1015 *  0.0000     2          
   375  O     c     13.2177 *    -3.3044 *    -3.3044 *  0.0000     2          
   376  Na    c     13.2177 *    -3.3044 *     3.3044 *  0.0000     2          
   377  Na    c     13.2177 *     3.3044 *    -3.3044 *  0.0000     2          
   378  O     c      0.0000       9.9133 *     9.9133 *  0.0000     1          
   379  O     c      4.4059 *     5.5074 *   -12.1162 *  0.0000     2          
   380  O     c      4.4059 *   -12.1162 *     5.5074 *  0.0000     2          
   381  O     c      8.8118 *    -7.7103 *    -7.7103 *  0.0000     2          
   382  Na    c      0.0000       9.9133 *    -9.9133 *  0.0000     1          
   383  Na    c      4.4059 *     5.5074 *    12.1162 *  0.0000     2          
   384  Na    c      4.4059 *   -12.1162 *    -5.5074 *  0.0000     2          
   385  Na    c      8.8118 *    -7.7103 *     7.7103 *  0.0000     2          
   386  Na    c      0.0000      -9.9133 *     9.9133 *  0.0000     1          
   387  Na    c      4.4059 *    12.1162 *     5.5074 *  0.0000     2          
   388  Na    c      4.4059 *    -5.5074 *   -12.1162 *  0.0000     2          
   389  Na    c      8.8118 *     7.7103 *    -7.7103 *  0.0000     2          
   390  Cl    c      6.6089 *     3.3044 *    12.1162 *  0.0000     2          
   391  Cl    c      6.6089 *     7.7103 *    -9.9133 *  0.0000     2          
   392  Cl    c      6.6089 *    12.1162 *     3.3044 *  0.0000     2          
   393  Na    c      6.6089 *    -3.3044 *   -12.1162 *  0.0000     2          
   394  Na    c      6.6089 *    -7.7103 *     9.9133 *  0.0000     2          
   395  Na    c      6.6089 *   -12.1162 *    -3.3044 *  0.0000     2          
   396  Cl    c      2.2030 *    -9.9133 *    -9.9133 *  0.0000     2          
   397  Cl    c      6.6089 *    -9.9133 *     7.7103 *  0.0000     2          
   398  Na    c      2.2030 *     9.9133 *     9.9133 *  0.0000     2          
   399  Na    c      6.6089 *     9.9133 *    -7.7103 *  0.0000     2          
   400  O     c      0.0000       1.1015 *    14.3192 *  0.0000     1          
   401  O     c      0.0000      14.3192 *     1.1015 *  0.0000     1          
   402  O     c      0.0000      -7.7103 *   -12.1162 *  0.0000     1          
   403  O     c      0.0000     -12.1162 *    -7.7103 *  0.0000     1          
   404  O     c      8.8118 *     5.5074 *     9.9133 *  0.0000     2          
   405  Na    c      0.0000       1.1015 *   -14.3192 *  0.0000     1          
   406  Na    c      0.0000      14.3192 *    -1.1015 *  0.0000     1          
   407  Na    c      0.0000      -7.7103 *    12.1162 *  0.0000     1          
   408  Na    c      0.0000     -12.1162 *     7.7103 *  0.0000     1          
   409  Na    c      8.8118 *     5.5074 *    -9.9133 *  0.0000     2          
   410  Na    c      0.0000      -1.1015 *    14.3192 *  0.0000     1          
   411  Na    c      0.0000       7.7103 *   -12.1162 *  0.0000     1          
   412  Na    c      0.0000      12.1162 *    -7.7103 *  0.0000     1          
   413  Na    c      0.0000     -14.3192 *     1.1015 *  0.0000     1          
   414  Na    c      8.8118 *    -5.5074 *     9.9133 *  0.0000     2          
   415  O     c      8.8118 *     9.9133 *     5.5074 *  0.0000     2          
   416  O     c     13.2177 *     1.1015 *     5.5074 *  0.0000     2          
   417  O     c     13.2177 *     5.5074 *     1.1015 *  0.0000     2          
   418  Na    c      8.8118 *     9.9133 *    -5.5074 *  0.0000     2          
   419  Na    c     13.2177 *     1.1015 *    -5.5074 *  0.0000     2          
   420  Na    c     13.2177 *     5.5074 *    -1.1015 *  0.0000     2          
   421  Na    c      8.8118 *    -9.9133 *     5.5074 *  0.0000     2          
   422  Na    c     13.2177 *    -1.1015 *     5.5074 *  0.0000     2          
   423  Na    c     13.2177 *    -5.5074 *     1.1015 *  0.0000     2          
   424  Cl    c      2.2030 *    -1.1015 *   -14.3192 *  0.0000     2          
   425  Cl    c      2.2030 *   -14.3192 *    -1.1015 *  0.0000     2          
   426  Na    c      2.2030 *     1.1015 *    14.3192 *  0.0000     2          
   427  Na    c      2.2030 *    14.3192 *     1.1015 *  0.0000     2          
   428  Cl    c      2.2030 *     7.7103 *    12.1162 *  0.0000     2          
   429  Cl    c      2.2030 *    12.1162 *     7.7103 *  0.0000     2          
   430  Cl    c     11.0148 *     7.7103 *    -5.5074 *  0.0000     2          
   431  Cl    c     11.0148 *    -5.5074 *     7.7103 *  0.0000     2          
   432  Na    c      2.2030 *    -7.7103 *   -12.1162 *  0.0000     2          
   433  Na    c      2.2030 *   -12.1162 *    -7.7103 *  0.0000     2          
   434  Na    c     11.0148 *     5.5074 *    -7.7103 *  0.0000     2          
   435  Na    c     11.0148 *    -7.7103 *     5.5074 *  0.0000     2          
   436  O     c      0.0000      14.3192 *    -3.3044 *  0.0000     1          
   437  O     c      0.0000      -3.3044 *    14.3192 *  0.0000     1          
   438  Na    c      0.0000      14.3192 *     3.3044 *  0.0000     1          
   439  Na    c      0.0000      -3.3044 *   -14.3192 *  0.0000     1          
   440  Na    c      0.0000       3.3044 *    14.3192 *  0.0000     1          
   441  Na    c      0.0000     -14.3192 *    -3.3044 *  0.0000     1          
   442  O     c      4.4059 *     9.9133 *     9.9133 *  0.0000     2          
   443  O     c     13.2177 *     5.5074 *    -3.3044 *  0.0000     2          
   444  O     c     13.2177 *    -3.3044 *     5.5074 *  0.0000     2          
   445  Na    c      4.4059 *     9.9133 *    -9.9133 *  0.0000     2          
   446  Na    c     13.2177 *     5.5074 *     3.3044 *  0.0000     2          
   447  Na    c     13.2177 *    -3.3044 *    -5.5074 *  0.0000     2          
   448  Na    c      4.4059 *    -9.9133 *     9.9133 *  0.0000     2          
   449  Na    c     13.2177 *     3.3044 *     5.5074 *  0.0000     2          
   450  Na    c     13.2177 *    -5.5074 *    -3.3044 *  0.0000     2          
   451  Cl    c      2.2030 *   -14.3192 *     3.3044 *  0.0000     2          
   452  Na    c      2.2030 *    14.3192 *    -3.3044 *  0.0000     2          
   453  Cl    c      2.2030 *     3.3044 *   -14.3192 *  0.0000     2          
   454  Cl    c      6.6089 *    -5.5074 *    12.1162 *  0.0000     2          
   455  Cl    c     11.0148 *    -1.1015 *    -9.9133 *  0.0000     2          
   456  Na    c      2.2030 *    -3.3044 *    14.3192 *  0.0000     2          
   457  Na    c      6.6089 *     5.5074 *   -12.1162 *  0.0000     2          
   458  Na    c     11.0148 *     1.1015 *     9.9133 *  0.0000     2          
   459  Cl    c      6.6089 *    12.1162 *    -5.5074 *  0.0000     2          
   460  Cl    c     11.0148 *    -9.9133 *    -1.1015 *  0.0000     2          
   461  Na    c      6.6089 *   -12.1162 *     5.5074 *  0.0000     2          
   462  Na    c     11.0148 *     9.9133 *     1.1015 *  0.0000     2          
   463  O     c      4.4059 *     1.1015 *    14.3192 *  0.0000     2          
   464  O     c      4.4059 *    14.3192 *     1.1015 *  0.0000     2          
   465  Na    c      4.4059 *     1.1015 *   -14.3192 *  0.0000     2          
   466  Na    c      4.4059 *    14.3192 *    -1.1015 *  0.0000     2          
   467  Na    c      4.4059 *    -1.1015 *    14.3192 *  0.0000     2          
   468  Na    c      4.4059 *   -14.3192 *     1.1015 *  0.0000     2          
   469  O     c      4.4059 *    -7.7103 *   -12.1162 *  0.0000     2          
   470  O     c      4.4059 *   -12.1162 *    -7.7103 *  0.0000     2          
   471  O     c      8.8118 *     1.1015 *   -12.1162 *  0.0000     2          
   472  O     c      8.8118 *   -12.1162 *     1.1015 *  0.0000     2          
   473  Na    c      4.4059 *    -7.7103 *    12.1162 *  0.0000     2          
   474  Na    c      4.4059 *   -12.1162 *     7.7103 *  0.0000     2          
   475  Na    c      8.8118 *     1.1015 *    12.1162 *  0.0000     2          
   476  Na    c      8.8118 *   -12.1162 *    -1.1015 *  0.0000     2          
   477  Na    c      4.4059 *     7.7103 *   -12.1162 *  0.0000     2          
   478  Na    c      4.4059 *    12.1162 *    -7.7103 *  0.0000     2          
   479  Na    c      8.8118 *    -1.1015 *   -12.1162 *  0.0000     2          
   480  Na    c      8.8118 *    12.1162 *     1.1015 *  0.0000     2          
   481  Cl    c     11.0148 *     3.3044 *    -9.9133 *  0.0000     2          
   482  Cl    c     11.0148 *    -9.9133 *     3.3044 *  0.0000     2          
   483  Na    c     11.0148 *     9.9133 *    -3.3044 *  0.0000     2          
   484  Na    c     11.0148 *    -3.3044 *     9.9133 *  0.0000     2          
   485  O     c      4.4059 *    14.3192 *    -3.3044 *  0.0000     2          
   486  Na    c      4.4059 *    14.3192 *     3.3044 *  0.0000     2          
   487  Na    c      4.4059 *   -14.3192 *    -3.3044 *  0.0000     2          
   488  O     c      0.0000       5.5074 *    14.3192 *  0.0000     1          
   489  O     c      0.0000      14.3192 *     5.5074 *  0.0000     1          
   490  O     c      4.4059 *    -3.3044 *    14.3192 *  0.0000     2          
   491  O     c      8.8118 *     9.9133 *    -7.7103 *  0.0000     2          
   492  O     c      8.8118 *    -3.3044 *   -12.1162 *  0.0000     2          
   493  O     c      8.8118 *   -12.1162 *    -3.3044 *  0.0000     2          
   494  O     c     13.2177 *     1.1015 *    -7.7103 *  0.0000     2          
   495  Na    c      0.0000       5.5074 *   -14.3192 *  0.0000     1          
   496  Na    c      0.0000      14.3192 *    -5.5074 *  0.0000     1          
   497  Na    c      4.4059 *    -3.3044 *   -14.3192 *  0.0000     2          
   498  Na    c      8.8118 *     9.9133 *     7.7103 *  0.0000     2          
   499  Na    c      8.8118 *    -3.3044 *    12.1162 *  0.0000     2          
   500  Na    c      8.8118 *   -12.1162 *     3.3044 *  0.0000     2          
   501  Na    c     13.2177 *     1.1015 *     7.7103 *  0.0000     2          
   502  Na    c      0.0000      -5.5074 *    14.3192 *  0.0000     1          
   503  Na    c      0.0000     -14.3192 *     5.5074 *  0.0000     1          
   504  Na    c      4.4059 *     3.3044 *    14.3192 *  0.0000     2          
   505  Na    c      8.8118 *     3.3044 *   -12.1162 *  0.0000     2          
   506  Na    c      8.8118 *    12.1162 *    -3.3044 *  0.0000     2          
   507  Na    c      8.8118 *    -9.9133 *    -7.7103 *  0.0000     2          
   508  Na    c     13.2177 *    -1.1015 *    -7.7103 *  0.0000     2          
   509  O     c      8.8118 *    -7.7103 *     9.9133 *  0.0000     2          
   510  O     c     13.2177 *     5.5074 *     5.5074 *  0.0000     2          
   511  O     c     13.2177 *    -7.7103 *     1.1015 *  0.0000     2          
   512  Na    c      8.8118 *    -7.7103 *    -9.9133 *  0.0000     2          
   513  Na    c     13.2177 *     5.5074 *    -5.5074 *  0.0000     2          
   514  Na    c     13.2177 *    -7.7103 *    -1.1015 *  0.0000     2          
   515  Na    c      8.8118 *     7.7103 *     9.9133 *  0.0000     2          
   516  Na    c     13.2177 *     7.7103 *     1.1015 *  0.0000     2          
   517  Na    c     13.2177 *    -5.5074 *     5.5074 *  0.0000     2          
   518  Cl    c      2.2030 *    -5.5074 *   -14.3192 *  0.0000     2          
   519  Cl    c      2.2030 *   -14.3192 *    -5.5074 *  0.0000     2          
   520  Na    c      2.2030 *     5.5074 *    14.3192 *  0.0000     2          
   521  Na    c      2.2030 *    14.3192 *     5.5074 *  0.0000     2          
   522  Cl    c      6.6089 *    -9.9133 *    -9.9133 *  0.0000     2          
   523  Cl    c     11.0148 *     7.7103 *     7.7103 *  0.0000     2          
   524  Cl    c     15.4207 *    -1.1015 *    -1.1015 *  0.0000     2          
   525  Na    c      6.6089 *     9.9133 *     9.9133 *  0.0000     2          
   526  Na    c     11.0148 *    -7.7103 *    -7.7103 *  0.0000     2          
   527  Na    c     15.4207 *     1.1015 *     1.1015 *  0.0000     2          
   528  O     c     13.2177 *    -3.3044 *    -7.7103 *  0.0000     2          
   529  Na    c     13.2177 *    -3.3044 *     7.7103 *  0.0000     2          
   530  Na    c     13.2177 *     3.3044 *    -7.7103 *  0.0000     2          
   531  O     c      0.0000       9.9133 *   -12.1162 *  0.0000     1          
   532  O     c      0.0000     -12.1162 *     9.9133 *  0.0000     1          
   533  O     c     13.2177 *    -7.7103 *    -3.3044 *  0.0000     2          
   534  Na    c      0.0000       9.9133 *    12.1162 *  0.0000     1          
   535  Na    c      0.0000     -12.1162 *    -9.9133 *  0.0000     1          
   536  Na    c     13.2177 *    -7.7103 *     3.3044 *  0.0000     2          
   537  Na    c      0.0000      12.1162 *     9.9133 *  0.0000     1          
   538  Na    c      0.0000      -9.9133 *   -12.1162 *  0.0000     1          
   539  Na    c     13.2177 *     7.7103 *    -3.3044 *  0.0000     2          
   540  Cl    c      2.2030 *    12.1162 *    -9.9133 *  0.0000     2          
   541  Cl    c      2.2030 *    -9.9133 *    12.1162 *  0.0000     2          
   542  Cl    c      6.6089 *    -1.1015 *   -14.3192 *  0.0000     2          
   543  Cl    c      6.6089 *     7.7103 *    12.1162 *  0.0000     2          
   544  Cl    c      6.6089 *    12.1162 *     7.7103 *  0.0000     2          
   545  Cl    c      6.6089 *   -14.3192 *    -1.1015 *  0.0000     2          
   546  Cl    c     11.0148 *    -5.5074 *    -9.9133 *  0.0000     2          
   547  Cl    c     15.4207 *    -1.1015 *     3.3044 *  0.0000     2          
   548  Cl    c     15.4207 *     3.3044 *    -1.1015 *  0.0000     2          
   549  Na    c      2.2030 *     9.9133 *   -12.1162 *  0.0000     2          
   550  Na    c      2.2030 *   -12.1162 *     9.9133 *  0.0000     2          
   551  Na    c      6.6089 *     1.1015 *    14.3192 *  0.0000     2          
   552  Na    c      6.6089 *    14.3192 *     1.1015 *  0.0000     2          
   553  Na    c      6.6089 *    -7.7103 *   -12.1162 *  0.0000     2          
   554  Na    c      6.6089 *   -12.1162 *    -7.7103 *  0.0000     2          
   555  Na    c     11.0148 *     5.5074 *     9.9133 *  0.0000     2          
   556  Na    c     15.4207 *     1.1015 *    -3.3044 *  0.0000     2          
   557  Na    c     15.4207 *    -3.3044 *     1.1015 *  0.0000     2          
   558  Cl    c     11.0148 *    -9.9133 *    -5.5074 *  0.0000     2          
   559  Na    c     11.0148 *     9.9133 *     5.5074 *  0.0000     2          
   560  O     c      4.4059 *     5.5074 *    14.3192 *  0.0000     2          
   561  O     c      4.4059 *    14.3192 *     5.5074 *  0.0000     2          
   562  Na    c      4.4059 *     5.5074 *   -14.3192 *  0.0000     2          
   563  Na    c      4.4059 *    14.3192 *    -5.5074 *  0.0000     2          
   564  Na    c      4.4059 *    -5.5074 *    14.3192 *  0.0000     2          
   565  Na    c      4.4059 *   -14.3192 *     5.5074 *  0.0000     2          
   566  O     c      8.8118 *     5.5074 *   -12.1162 *  0.0000     2          
   567  O     c      8.8118 *   -12.1162 *     5.5074 *  0.0000     2          
   568  Na    c      8.8118 *     5.5074 *    12.1162 *  0.0000     2          
   569  Na    c      8.8118 *   -12.1162 *    -5.5074 *  0.0000     2          
   570  Na    c      8.8118 *    12.1162 *     5.5074 *  0.0000     2          
   571  Na    c      8.8118 *    -5.5074 *   -12.1162 *  0.0000     2          
   572  Cl    c      6.6089 *     3.3044 *   -14.3192 *  0.0000     2          
   573  Cl    c      6.6089 *   -14.3192 *     3.3044 *  0.0000     2          
   574  Cl    c     15.4207 *     3.3044 *     3.3044 *  0.0000     2          
   575  Na    c      6.6089 *    14.3192 *    -3.3044 *  0.0000     2          
   576  Na    c      6.6089 *    -3.3044 *    14.3192 *  0.0000     2          
   577  Na    c     15.4207 *    -3.3044 *    -3.3044 *  0.0000     2          
   578  O     c      0.0000      14.3192 *    -7.7103 *  0.0000     1          
   579  O     c      0.0000      -7.7103 *    14.3192 *  0.0000     1          
   580  O     c      4.4059 *     9.9133 *   -12.1162 *  0.0000     2          
   581  O     c      4.4059 *   -12.1162 *     9.9133 *  0.0000     2          
   582  O     c     13.2177 *     5.5074 *    -7.7103 *  0.0000     2          
   583  O     c     13.2177 *    -7.7103 *     5.5074 *  0.0000     2          
   584  Na    c      0.0000      14.3192 *     7.7103 *  0.0000     1          
   585  Na    c      0.0000      -7.7103 *   -14.3192 *  0.0000     1          
   586  Na    c      4.4059 *     9.9133 *    12.1162 *  0.0000     2          
   587  Na    c      4.4059 *   -12.1162 *    -9.9133 *  0.0000     2          
   588  Na    c     13.2177 *     5.5074 *     7.7103 *  0.0000     2          
   589  Na    c     13.2177 *    -7.7103 *    -5.5074 *  0.0000     2          
   590  Na    c      0.0000       7.7103 *    14.3192 *  0.0000     1          
   591  Na    c      0.0000     -14.3192 *    -7.7103 *  0.0000     1          
   592  Na    c      4.4059 *    12.1162 *     9.9133 *  0.0000     2          
   593  Na    c      4.4059 *    -9.9133 *   -12.1162 *  0.0000     2          
   594  Na    c     13.2177 *     7.7103 *     5.5074 *  0.0000     2          
   595  Na    c     13.2177 *    -5.5074 *    -7.7103 *  0.0000     2          
   596  Cl    c      2.2030 *   -14.3192 *     7.7103 *  0.0000     2          
   597  Cl    c     11.0148 *    12.1162 *    -1.1015 *  0.0000     2          
   598  Cl    c     15.4207 *    -5.5074 *    -1.1015 *  0.0000     2          
   599  Na    c      2.2030 *    14.3192 *    -7.7103 *  0.0000     2          
   600  Na    c     11.0148 *   -12.1162 *     1.1015 *  0.0000     2          
   601  Na    c     15.4207 *     5.5074 *     1.1015 *  0.0000     2          
   602  Cl    c      2.2030 *     7.7103 *   -14.3192 *  0.0000     2          
   603  Cl    c     11.0148 *    -1.1015 *    12.1162 *  0.0000     2          
   604  Cl    c     15.4207 *    -1.1015 *    -5.5074 *  0.0000     2          
   605  Na    c      2.2030 *    -7.7103 *    14.3192 *  0.0000     2          
   606  Na    c     11.0148 *     1.1015 *   -12.1162 *  0.0000     2          
   607  Na    c     15.4207 *     1.1015 *     5.5074 *  0.0000     2          
   608  O     c      0.0000       1.1015 *   -16.5221 *  0.0000     1          
   609  O     c      0.0000     -16.5221 *     1.1015 *  0.0000     1          
   610  Na    c      0.0000       1.1015 *    16.5221 *  0.0000     1          
   611  Na    c      0.0000     -16.5221 *    -1.1015 *  0.0000     1          
   612  Na    c      0.0000      -1.1015 *   -16.5221 *  0.0000     1          
   613  Na    c      0.0000      16.5221 *     1.1015 *  0.0000     1          
   614  O     c     13.2177 *     9.9133 *     1.1015 *  0.0000     2          
   615  Na    c     13.2177 *     9.9133 *    -1.1015 *  0.0000     2          
   616  Na    c     13.2177 *    -9.9133 *     1.1015 *  0.0000     2          
   617  O     c      8.8118 *     9.9133 *     9.9133 *  0.0000     2          
   618  O     c     13.2177 *     1.1015 *     9.9133 *  0.0000     2          
   619  Na    c      8.8118 *     9.9133 *    -9.9133 *  0.0000     2          
   620  Na    c     13.2177 *     1.1015 *    -9.9133 *  0.0000     2          
   621  Na    c      8.8118 *    -9.9133 *     9.9133 *  0.0000     2          
   622  Na    c     13.2177 *    -1.1015 *     9.9133 *  0.0000     2          
   623  Cl    c      2.2030 *    -1.1015 *    16.5221 *  0.0000     2          
   624  Cl    c      2.2030 *    16.5221 *    -1.1015 *  0.0000     2          
   625  Na    c      2.2030 *     1.1015 *   -16.5221 *  0.0000     2          
   626  Na    c      2.2030 *   -16.5221 *     1.1015 *  0.0000     2          
   627  Cl    c      6.6089 *    -5.5074 *   -14.3192 *  0.0000     2          
   628  Cl    c      6.6089 *   -14.3192 *    -5.5074 *  0.0000     2          
   629  Cl    c     11.0148 *     3.3044 *    12.1162 *  0.0000     2          
   630  Cl    c     11.0148 *     7.7103 *    -9.9133 *  0.0000     2          
   631  Cl    c     11.0148 *    12.1162 *     3.3044 *  0.0000     2          
   632  Cl    c     11.0148 *    -9.9133 *     7.7103 *  0.0000     2          
   633  Cl    c     15.4207 *     3.3044 *    -5.5074 *  0.0000     2          
   634  Cl    c     15.4207 *    -5.5074 *     3.3044 *  0.0000     2          
   635  Na    c      6.6089 *     5.5074 *    14.3192 *  0.0000     2          
   636  Na    c      6.6089 *    14.3192 *     5.5074 *  0.0000     2          
   637  Na    c     11.0148 *     9.9133 *    -7.7103 *  0.0000     2          
   638  Na    c     11.0148 *    -3.3044 *   -12.1162 *  0.0000     2          
   639  Na    c     11.0148 *    -7.7103 *     9.9133 *  0.0000     2          
   640  Na    c     11.0148 *   -12.1162 *    -3.3044 *  0.0000     2          
   641  Na    c     15.4207 *     5.5074 *    -3.3044 *  0.0000     2          
   642  Na    c     15.4207 *    -3.3044 *     5.5074 *  0.0000     2          
   643  O     c      0.0000      -3.3044 *   -16.5221 *  0.0000     1          
   644  O     c      0.0000     -16.5221 *    -3.3044 *  0.0000     1          
   645  O     c      4.4059 *    14.3192 *    -7.7103 *  0.0000     2          
   646  O     c      4.4059 *    -7.7103 *    14.3192 *  0.0000     2          
   647  O     c      8.8118 *     1.1015 *    14.3192 *  0.0000     2          
   648  O     c      8.8118 *    14.3192 *     1.1015 *  0.0000     2          
   649  O     c     13.2177 *    -3.3044 *     9.9133 *  0.0000     2          
   650  Na    c      0.0000      -3.3044 *    16.5221 *  0.0000     1          
   651  Na    c      0.0000     -16.5221 *     3.3044 *  0.0000     1          
   652  Na    c      4.4059 *    14.3192 *     7.7103 *  0.0000     2          
   653  Na    c      4.4059 *    -7.7103 *   -14.3192 *  0.0000     2          
   654  Na    c      8.8118 *     1.1015 *   -14.3192 *  0.0000     2          
[...]
   1032 y         -6.608853     -6.609928    -0.001075    Cartesian    0.02
   1032 z          6.608853      6.608077    -0.000777    Cartesian   -0.01
   1033 x          4.405902      4.403268    -0.002634    Cartesian   -0.06
   1033 y        -13.217707    -13.211868     0.005839    Cartesian   -0.04
   1033 z          8.811805      8.809070    -0.002734    Cartesian   -0.03
   1034 x         13.217707     13.211255    -0.006452    Cartesian   -0.05
   1034 y         13.217707     13.211851    -0.005856    Cartesian   -0.04
   1034 z          0.000000     -0.001882    -0.001882    Cartesian    0.00
   1035 x         17.623609     17.615334    -0.008275    Cartesian   -0.05
   1035 y         -4.405902     -4.403551     0.002351    Cartesian   -0.05
   1035 z          0.000000     -0.000521    -0.000521    Cartesian    0.00
   1036 x          4.405902      4.403373    -0.002529    Cartesian   -0.06
   1036 y          8.811805      8.811161    -0.000644    Cartesian   -0.01
   1036 z        -13.217707    -13.213111     0.004596    Cartesian   -0.03
   1037 x         13.217707     13.214918    -0.002789    Cartesian   -0.02
   1037 y          0.000000      0.000652     0.000652    Cartesian    0.00
   1037 z         13.217707     13.213940    -0.003767    Cartesian   -0.03
   1038 x         17.623609     17.615511    -0.008098    Cartesian   -0.05
   1038 y          0.000000     -0.000317    -0.000317    Cartesian    0.00
   1038 z         -4.405902     -4.404703     0.001199    Cartesian   -0.03
   1039 x          2.202951      2.202951     0.000000    Cartesian    0.00
   1039 y          2.202951      2.202394    -0.000558    Cartesian   -0.03
   1039 z        -15.420658    -15.427685    -0.007027    Cartesian    0.05
   1040 x          2.202951      2.202951     0.000000    Cartesian    0.00
   1040 y        -15.420658    -15.419619     0.001039    Cartesian   -0.01
   1040 z          2.202951      2.198538    -0.004413    Cartesian   -0.20
   1041 x         15.420658     15.420101    -0.000557    Cartesian   -0.00
   1041 y         11.014756     11.015252     0.000496    Cartesian    0.00
   1041 z          2.202951      2.202736    -0.000215    Cartesian   -0.01
   1042 x         11.014756     11.016410     0.001654    Cartesian    0.02
   1042 y         11.014756     11.016774     0.002019    Cartesian    0.02
   1042 z         11.014756     11.015861     0.001105    Cartesian    0.01
   1043 x         15.420658     15.420829     0.000171    Cartesian    0.00
   1043 y          2.202951      2.202580    -0.000371    Cartesian   -0.02
   1043 z         11.014756     11.019284     0.004528    Cartesian    0.04
   1044 x          4.405902      4.405966     0.000064    Cartesian    0.00
   1044 y          0.000000     -0.000094    -0.000094    Cartesian    0.00
   1044 z         17.623609     17.618495    -0.005115    Cartesian   -0.03
   1045 x          4.405902      4.402471    -0.003431    Cartesian   -0.08
   1045 y         17.623609     17.616275    -0.007335    Cartesian   -0.04
   1045 z          0.000000     -0.000277    -0.000277    Cartesian    0.00
   1046 x          8.811805      8.809194    -0.002611    Cartesian   -0.03
   1046 y         -4.405902     -4.403081     0.002821    Cartesian   -0.06
   1046 z        -13.217707    -13.212278     0.005429    Cartesian   -0.04
   1047 x          8.811805      8.810027    -0.001778    Cartesian   -0.02
   1047 y        -13.217707    -13.209692     0.008015    Cartesian   -0.06
   1047 z         -4.405902     -4.404642     0.001260    Cartesian   -0.03
   1048 x         13.217707     13.214249    -0.003458    Cartesian   -0.03
   1048 y          4.405902      4.404706    -0.001197    Cartesian   -0.03
   1048 z         13.217707     13.212691    -0.005016    Cartesian   -0.04
   1049 x         13.217707     13.211820    -0.005887    Cartesian   -0.04
   1049 y          8.811805      8.808580    -0.003225    Cartesian   -0.04
   1049 z         -8.811805     -8.807243     0.004561    Cartesian   -0.05
   1050 x         13.217707     13.211349    -0.006358    Cartesian   -0.05
   1050 y         13.217707     13.212149    -0.005558    Cartesian   -0.04
   1050 z          4.405902      4.402980    -0.002922    Cartesian   -0.07
   1051 x         13.217707     13.213632    -0.004075    Cartesian   -0.03
   1051 y         -8.811805     -8.806920     0.004884    Cartesian   -0.06
   1051 z          8.811805      8.807698    -0.004107    Cartesian   -0.05
   1052 x         17.623609     17.613263    -0.010346    Cartesian   -0.06
   1052 y          4.405902      4.406937     0.001034    Cartesian    0.02
   1052 z         -4.405902     -4.404778     0.001124    Cartesian   -0.03
   1053 x         17.623609     17.614972    -0.008638    Cartesian   -0.05
   1053 y         -4.405902     -4.403667     0.002236    Cartesian   -0.05
   1053 z          4.405902      4.404492    -0.001410    Cartesian   -0.03
   1054 x          2.202951      2.202951     0.000000    Cartesian    0.00
   1054 y         -2.202951     -2.206669    -0.003718    Cartesian    0.17
   1054 z        -15.420658    -15.424069    -0.003411    Cartesian    0.02
   1055 x          2.202951      2.202951     0.000000    Cartesian    0.00
   1055 y        -15.420658    -15.420038     0.000620    Cartesian   -0.00
   1055 z         -2.202951     -2.199035     0.003916    Cartesian   -0.18
   1056 x          6.608853      6.609160     0.000306    Cartesian    0.00
   1056 y         15.420658     15.420306    -0.000352    Cartesian   -0.00
   1056 z         -6.608853     -6.610886    -0.002032    Cartesian    0.03
   1057 x          6.608853      6.609496     0.000642    Cartesian    0.01
   1057 y         -6.608853     -6.610224    -0.001371    Cartesian    0.02
   1057 z         15.420658     15.421367     0.000709    Cartesian    0.00
   1058 x         11.014756     11.013020    -0.001736    Cartesian   -0.02
   1058 y          2.202951      2.202635    -0.000316    Cartesian   -0.01
   1058 z         15.420658     15.421988     0.001330    Cartesian    0.01
   1059 x         11.014756     11.013478    -0.001277    Cartesian   -0.01
   1059 y         15.420658     15.419171    -0.001487    Cartesian   -0.01
   1059 z          2.202951      2.203425     0.000474    Cartesian    0.02
   1060 x         15.420658     15.420331    -0.000327    Cartesian   -0.00
   1060 y         -2.202951     -2.203730    -0.000779    Cartesian    0.04
   1060 z         11.014756     11.013607    -0.001148    Cartesian   -0.01
   1061 x         11.014756     11.014032    -0.000724    Cartesian   -0.01
   1061 y         -6.608853     -6.608805     0.000048    Cartesian   -0.00
   1061 z        -11.014756    -11.013811     0.000945    Cartesian   -0.01
   1062 x         11.014756     11.013958    -0.000797    Cartesian   -0.01
   1062 y        -11.014756    -11.013849     0.000907    Cartesian   -0.01
   1062 z         -6.608853     -6.608085     0.000768    Cartesian   -0.01
   1063 x         15.420658     15.419138    -0.001520    Cartesian   -0.01
   1063 y         11.014756     11.013756    -0.001000    Cartesian   -0.01
   1063 z         -2.202951     -2.204080    -0.001129    Cartesian    0.05
   1064 x          4.405902      4.405499    -0.000403    Cartesian   -0.01
   1064 y          4.405902      4.405435    -0.000467    Cartesian   -0.01
   1064 z         17.623609     17.616335    -0.007274    Cartesian   -0.04
   1065 x          4.405902      4.405870    -0.000032    Cartesian   -0.00
   1065 y         17.623609     17.612714    -0.010895    Cartesian   -0.06
   1065 z          4.405902      4.402771    -0.003132    Cartesian   -0.07
   1066 x          8.811805      8.808187    -0.003617    Cartesian   -0.04
   1066 y         13.217707     13.211697    -0.006010    Cartesian   -0.05
   1066 z         -8.811805     -8.807166     0.004638    Cartesian   -0.05
   1067 x          8.811805      8.809990    -0.001814    Cartesian   -0.02
   1067 y         -8.811805     -8.807581     0.004223    Cartesian   -0.05
   1067 z         13.217707     13.212555    -0.005152    Cartesian   -0.04
   1068 x          6.608853      6.611991     0.003137    Cartesian    0.05
   1068 y          2.202951      2.203162     0.000211    Cartesian    0.01
   1068 z        -15.420658    -15.424167    -0.003509    Cartesian    0.02
   1069 x          6.608853      6.609148     0.000294    Cartesian    0.00
   1069 y        -15.420658    -15.420148     0.000510    Cartesian   -0.00
   1069 z          2.202951      2.202712    -0.000239    Cartesian   -0.01
   1070 x          2.202951      2.202951     0.000000    Cartesian    0.00
   1070 y        -11.014756    -11.013039     0.001717    Cartesian   -0.02
   1070 z        -11.014756    -11.015238    -0.000482    Cartesian    0.00
   1071 x         11.014756     11.013644    -0.001112    Cartesian   -0.01
   1071 y         15.420658     15.419113    -0.001546    Cartesian   -0.01
   1071 z         -2.202951     -2.204328    -0.001377    Cartesian    0.06
   1072 x         11.014756     11.014555    -0.000201    Cartesian   -0.00
   1072 y         -2.202951     -2.203372    -0.000421    Cartesian    0.02
   1072 z         15.420658     15.420106    -0.000552    Cartesian   -0.00
   1073 x         15.420658     15.418635    -0.002023    Cartesian   -0.01
   1073 y         -6.608853     -6.607781     0.001073    Cartesian   -0.02
   1073 z         -6.608853     -6.606941     0.001913    Cartesian   -0.03
   1074 x         13.217707     13.211084    -0.006623    Cartesian   -0.05
   1074 y         13.217707     13.211496    -0.006211    Cartesian   -0.05
   1074 z         -4.405902     -4.403104     0.002799    Cartesian   -0.06
   1075 x         17.623609     17.612835    -0.010774    Cartesian   -0.06
   1075 y          8.811805      8.808174    -0.003630    Cartesian   -0.04
   1075 z          0.000000     -0.000339    -0.000339    Cartesian    0.00
   1076 x         17.623609     17.613703    -0.009906    Cartesian   -0.06
   1076 y         -4.405902     -4.402966     0.002937    Cartesian   -0.07
   1076 z         -4.405902     -4.404448     0.001454    Cartesian   -0.03
   1077 x          4.405902      4.402082    -0.003820    Cartesian   -0.09
   1077 y         13.217707     13.213946    -0.003761    Cartesian   -0.03
   1077 z         13.217707     13.212362    -0.005345    Cartesian   -0.04
   1078 x         13.217707     13.213453    -0.004254    Cartesian   -0.03
   1078 y         -4.405902     -4.402542     0.003360    Cartesian   -0.08
   1078 z         13.217707     13.211240    -0.006466    Cartesian   -0.05
   1079 x         17.623609     17.615993    -0.007616    Cartesian   -0.04
   1079 y          0.000000      0.001291     0.001291    Cartesian    0.00
   1079 z          8.811805      8.806691    -0.005113    Cartesian   -0.06
   1080 x          2.202951      2.202951     0.000000    Cartesian    0.00
   1080 y          6.608853      6.609047     0.000194    Cartesian    0.00
   1080 z        -15.420658    -15.422382    -0.001724    Cartesian    0.01
   1081 x          2.202951      2.202951     0.000000    Cartesian    0.00
   1081 y        -15.420658    -15.417893     0.002765    Cartesian   -0.02
   1081 z          6.608853      6.609701     0.000847    Cartesian    0.01
   1082 x          6.608853      6.608445    -0.000408    Cartesian   -0.01
   1082 y         -2.202951     -2.204595    -0.001644    Cartesian    0.07
   1082 z        -15.420658    -15.420977    -0.000319    Cartesian    0.00
   1083 x          2.202951      2.202951     0.000000    Cartesian    0.00
   1083 y         11.014756     11.013112    -0.001644    Cartesian   -0.01
   1083 z         15.420658     15.421529     0.000871    Cartesian    0.01
   1084 x          2.202951      2.202951     0.000000    Cartesian    0.00
   1084 y         15.420658     15.418532    -0.002126    Cartesian   -0.01
   1084 z         11.014756     11.015597     0.000842    Cartesian    0.01
   1085 x          6.608853      6.608000    -0.000853    Cartesian   -0.01
   1085 y        -15.420658    -15.419313     0.001345    Cartesian   -0.01
   1085 z         -2.202951     -2.203743    -0.000792    Cartesian    0.04
   1086 x         15.420658     15.418493    -0.002165    Cartesian   -0.01
   1086 y         11.014756     11.013064    -0.001692    Cartesian   -0.02
   1086 z          6.608853      6.606699    -0.002154    Cartesian   -0.03
   1087 x         15.420658     15.419241    -0.001417    Cartesian   -0.01
   1087 y          6.608853      6.607518    -0.001335    Cartesian   -0.02
   1087 z         11.014756     11.012708    -0.002048    Cartesian   -0.02
   1088 x          4.405902      4.403336    -0.002566    Cartesian   -0.06
   1088 y         17.623609     17.611508    -0.012101    Cartesian   -0.07
   1088 z         -4.405902     -4.403775     0.002128    Cartesian   -0.05
   1089 x          4.405902      4.404175    -0.001727    Cartesian   -0.04
   1089 y         -4.405902     -4.403781     0.002121    Cartesian   -0.05
   1089 z         17.623609     17.615006    -0.008603    Cartesian   -0.05
   1090 x          4.405902      4.403920    -0.001982    Cartesian   -0.04
   1090 y        -13.217707    -13.209654     0.008053    Cartesian   -0.06
   1090 z         -8.811805     -8.805802     0.006002    Cartesian   -0.07
   1091 x          8.811805      8.808237    -0.003568    Cartesian   -0.04
   1091 y          8.811805      8.808175    -0.003629    Cartesian   -0.04
   1091 z        -13.217707    -13.210128     0.007579    Cartesian   -0.06
   1092 x          4.405902      4.402445    -0.003457    Cartesian   -0.08
   1092 y         -8.811805     -8.807457     0.004348    Cartesian   -0.05
   1092 z        -13.217707    -13.209745     0.007962    Cartesian   -0.06
   1093 x          8.811805      8.808924    -0.002880    Cartesian   -0.03
   1093 y        -13.217707    -13.209572     0.008135    Cartesian   -0.06
   1093 z          8.811805      8.807901    -0.003904    Cartesian   -0.04
   1094 x         17.623609     17.615459    -0.008150    Cartesian   -0.05
   1094 y          4.405902      4.404205    -0.001698    Cartesian   -0.04
   1094 z          8.811805      8.806283    -0.005521    Cartesian   -0.06
   1095 x         17.623609     17.613467    -0.010142    Cartesian   -0.06
   1095 y          8.811805      8.808555    -0.003250    Cartesian   -0.04
   1095 z          4.405902      4.403017    -0.002886    Cartesian   -0.07
   1096 x          6.608853      6.607543    -0.001311    Cartesian   -0.02
   1096 y        -11.014756    -11.013356     0.001399    Cartesian   -0.01
   1096 z        -11.014756    -11.012402     0.002354    Cartesian   -0.02
   1097 x         11.014756     11.013505    -0.001251    Cartesian   -0.01
   1097 y          6.608853      6.607686    -0.001167    Cartesian   -0.02
   1097 z         15.420658     15.418618    -0.002040    Cartesian   -0.01
   1098 x         11.014756     11.012890    -0.001866    Cartesian   -0.02
   1098 y         15.420658     15.418370    -0.002288    Cartesian   -0.01
   1098 z          6.608853      6.606424    -0.002429    Cartesian   -0.04
   1099 x         19.826560     19.826045    -0.000515    Cartesian   -0.00
   1099 y          2.202951      2.203247     0.000296    Cartesian    0.01
   1099 z          2.202951      2.198732    -0.004220    Cartesian   -0.19
   1100 x          8.811805      8.809022    -0.002783    Cartesian   -0.03
   1100 y          0.000000      0.001430     0.001430    Cartesian    0.00
   1100 z         17.623609     17.614194    -0.009415    Cartesian   -0.05
   1101 x          8.811805      8.806930    -0.004875    Cartesian   -0.06
   1101 y         17.623609     17.611318    -0.012291    Cartesian   -0.07
   1101 z          0.000000     -0.000289    -0.000289    Cartesian    0.00
   1102 x         13.217707     13.209911    -0.007796    Cartesian   -0.06
   1102 y         -8.811805     -8.804382     0.007422    Cartesian   -0.08
   1102 z         -8.811805     -8.805902     0.005903    Cartesian   -0.07
   1103 x          6.608853      6.607694    -0.001160    Cartesian   -0.02
   1103 y          6.608853      6.607324    -0.001529    Cartesian   -0.02
   1103 z        -15.420658    -15.419806     0.000852    Cartesian   -0.01
   1104 x          6.608853      6.607750    -0.001104    Cartesian   -0.02
   1104 y        -15.420658    -15.418493     0.002165    Cartesian   -0.01
   1104 z          6.608853      6.607061    -0.001793    Cartesian   -0.03
   1105 x          6.608853      6.607502    -0.001352    Cartesian   -0.02
   1105 y         11.014756     11.013793    -0.000963    Cartesian   -0.01
   1105 z         15.420658     15.418265    -0.002393    Cartesian   -0.02
   1106 x          6.608853      6.607529    -0.001325    Cartesian   -0.02
   1106 y         15.420658     15.419020    -0.001639    Cartesian   -0.01
   1106 z         11.014756     11.012096    -0.002660    Cartesian   -0.02
   1107 x         11.014756     11.012985    -0.001771    Cartesian   -0.02
   1107 y         11.014756     11.013133    -0.001623    Cartesian   -0.01
   1107 z        -11.014756    -11.011983     0.002773    Cartesian   -0.03
   1108 x         11.014756     11.012853    -0.001903    Cartesian   -0.02
   1108 y        -11.014756    -11.012566     0.002190    Cartesian   -0.02
   1108 z         11.014756     11.012840    -0.001916    Cartesian   -0.02
   1109 x         15.420658     15.417299    -0.003360    Cartesian   -0.02
   1109 y          2.202951      2.201652    -0.001299    Cartesian   -0.06
   1109 z        -11.014756    -11.015046    -0.000290    Cartesian    0.00
   1110 x         15.420658     15.418434    -0.002224    Cartesian   -0.01
   1110 y        -11.014756    -11.012977     0.001779    Cartesian   -0.02
   1110 z          2.202951      2.200885    -0.002066    Cartesian   -0.09
   1111 x         19.826560     19.825758    -0.000802    Cartesian   -0.00
   1111 y          2.202951      2.202022    -0.000929    Cartesian   -0.04
   1111 z         -2.202951     -2.199263     0.003689    Cartesian   -0.17
   1112 x         19.826560     19.823922    -0.002638    Cartesian   -0.01
   1112 y         -2.202951     -2.201693     0.001258    Cartesian   -0.06
   1112 z          2.202951      2.202365    -0.000586    Cartesian   -0.03
--------------------------------------------------------------------------------


  Time to end of optimisation  =      335.8206 seconds


  Peak dynamic memory used =    1204.50 MB 


  Timing analysis for GULP :

--------------------------------------------------------------------------------
  Task / Subroutine                                          Time (Seconds)
--------------------------------------------------------------------------------
  Calculation of reciprocal space energy and derivatives          0.0007
  Calculation of reciprocal space energy using symmetry           0.0011
  Calculation of real space energy and derivatives                0.0041
  Calculation of real space energy using symmetry                 0.0116
  Calculation for region 1 energy and derivatives (2-b)         163.7073
  Calculation for region 2a energy                              128.9857
  Calculation for region 2b energy                                0.0077
  Calculation and manipulation of Hessian matrix                  0.9003
  Calculation of matrix inversion                                40.7140
  Symmetry generation of equivalent positions                     0.0047
--------------------------------------------------------------------------------
  Total CPU time                                                335.8206
--------------------------------------------------------------------------------


  Dump file written as Na3OCl.grs


  Job Finished at 14:06.39  3rd February   2021                               

