********************************************************************************
*                       GENERAL UTILITY LATTICE PROGRAM                        *
*                                 Julian Gale                                  *
*                       Curtin Institute for Computation                       *
*                    School of Molecular and Life Sciences                     *
*                    Curtin University, Western Australia                      *
********************************************************************************
* Version = 5.2.0 * Last modified =  10th September 2020                       *
********************************************************************************
*  optimise     - perform optimisation run                                     *
*  conp         - constant pressure calculation                                *
*  property     - calculate properties for final geometry                      *
*  defect       - perform defect calculation after bulk run                    *
*  compare      - compare initial and final structures                         *
********************************************************************************

  Job Started  at 14:01.24  3rd February   2021                               

  Number of CPUs =     1


  Total number of configurations input =      1

********************************************************************************
*  Input for Configuration =   1                                               *
********************************************************************************

  Formula = ClONa3                                                      

  Number of irreducible atoms/shells =       5


  Total number atoms/shells =       7

  Dimensionality = 3               :  Bulk   


  Symmetry :

  Crystal family                   :  Cubic       
  Crystal class  (Groth - 1921)    :  Cubic Hexakisoctahedral              

  Space group (centrosymmetric)    :  P M 3 M         

  Patterson group                  :  P m -3 m 

  Cartesian lattice vectors (Angstroms) :

        4.504000    0.000000    0.000000
        0.000000    4.504000    0.000000
        0.000000    0.000000    4.504000

  Cell parameters (Angstroms/Degrees):

  a =       4.5040    alpha =  90.0000
  b =       4.5040    beta  =  90.0000
  c =       4.5040    gamma =  90.0000

  Initial cell volume =          91.368216 Angs**3

  Temperature of configuration =   0.00     K 

  Pressure of configuration =         0.000 GPa 

  Fractional coordinates of asymmetric unit :

--------------------------------------------------------------------------------
   No.  Atomic       x           y          z         Charge      Occupancy
        Label      (Frac)      (Frac)     (Frac)        (e)         (Frac)  
--------------------------------------------------------------------------------
      1 Cl    c    0.000000    0.000000    0.000000     1.48500    1.000000    
      2 O     c    0.500000    0.500000    0.500000     0.18300    1.000000    
      3 Na    c    0.500000    0.500000    0.000000     1.00000    1.000000    
      4 Cl    s    0.000000    0.000000    0.000000    -2.48500    1.000000    
      5 O     s    0.500000    0.500000    0.500000    -2.18300    1.000000    
--------------------------------------------------------------------------------


  Constraints : 

--------------------------------------------------------------------------------
  Constraint no.      Unconstrained     Constrained    Coefficient    Offset
                         Variable         Variable
--------------------------------------------------------------------------------
           1              Strain 1        Strain 2       1.00000      0.0000
           2              Strain 1        Strain 3       1.00000      0.0000
--------------------------------------------------------------------------------


********************************************************************************
*  General input information                                                   *
********************************************************************************

  Species output for all configurations : 

--------------------------------------------------------------------------------
  Species    Type    Atomic    Atomic    Charge       Radii (Angs)     Library
                     Number     Mass       (e)     Cova   Ionic  VDW   Symbol
--------------------------------------------------------------------------------
    Na       Core       11      22.99   1.000000   0.970  0.000  2.300          
    O        Core        8      16.00   0.183000   0.730  0.000  1.360          
    O        Shell       8       0.00  -2.183000   0.730  0.000  1.360          
    Cl       Core       17      35.45   1.485000   0.990  0.000  1.650          
    Cl       Shell      17       0.00  -2.485000   0.990  0.000  1.650          
    Mg       Core       12      24.31   0.415000   1.100  0.000  0.000          
    Mg       Shell      12       0.00   1.585000   1.100  0.000  0.000          
    Ca       Core       20      40.08  -1.135000   0.990  0.000  0.000          
    Ca       Shell      20       0.00   3.135000   0.990  0.000  0.000          
    Sr       Core       38      87.62  -1.251000   1.120  0.000  0.000          
    Sr       Shell      38       0.00   3.251000   1.120  0.000  0.000          
    Ba       Core       56     137.33  -7.203000   1.340  0.000  0.000          
    Ba       Shell      56       0.00   9.203000   1.340  0.000  0.000          
--------------------------------------------------------------------------------


  Lattice summation method               =    Ewald          (3-D)
                                         =    Parry          (2-D)
                                         =    Saunders et al (1-D)
  Accuracy factor for lattice sums       =   12.000


  Analytic derivatives to be used

  Time limit = Infinity

  Maximum range for interatomic potentials =    100000.000000 Angstroms

  General interatomic potentials :

--------------------------------------------------------------------------------
Atom  Types   Potential      Parameter       Value         Units   Cutoffs(Ang)
  1     2                                                            Min /  Max 
--------------------------------------------------------------------------------
O    c O    s Spring (c-s)  Spring k 2       593.71600    eV*Ang^-2 0.000  0.800
                            Spring k 4       0.0000000    eV*Ang^-4 
--------------------------------------------------------------------------------
Cl   c Cl   s Spring (c-s)  Spring k 2       29.380000    eV*Ang^-2 0.000  0.800
                            Spring k 4       0.0000000    eV*Ang^-4 
--------------------------------------------------------------------------------
Mg   c Mg   s Spring (c-s)  Spring k 2       361.60000    eV*Ang^-2 0.000  0.800
                            Spring k 4       0.0000000    eV*Ang^-4 
--------------------------------------------------------------------------------
Ca   c Ca   s Spring (c-s)  Spring k 2       110.20000    eV*Ang^-2 0.000  0.800
                            Spring k 4       0.0000000    eV*Ang^-4 
--------------------------------------------------------------------------------
Sr   c Sr   s Spring (c-s)  Spring k 2       71.700000    eV*Ang^-2 0.000  0.800
                            Spring k 4       0.0000000    eV*Ang^-4 
--------------------------------------------------------------------------------
Ba   c Ba   s Spring (c-s)  Spring k 2       495.20000    eV*Ang^-2 0.000  0.800
                            Spring k 4       0.0000000    eV*Ang^-4 
--------------------------------------------------------------------------------
Na   c Na   c Buckingham    Buckingham A     1788.1900    eV        0.000 12.000
                            Buckingham rho  0.15900000    Ang       
                            Buckingham C     0.0000000    eV*Ang^6  
--------------------------------------------------------------------------------
Na   c O    s Buckingham    Buckingham A     588.38000    eV        0.000 12.000
                            Buckingham rho  0.33800000    Ang       
                            Buckingham C     0.0000000    eV*Ang^6  
--------------------------------------------------------------------------------
Na   c Cl   s Buckingham    Buckingham A     1170.4100    eV        0.000 12.000
                            Buckingham rho  0.31500000    Ang       
                            Buckingham C     0.0000000    eV*Ang^6  
--------------------------------------------------------------------------------
O    s O    s Buckingham    Buckingham A     22764.300    eV        0.000 12.000
                            Buckingham rho  0.14900000    Ang       
                            Buckingham C     13.190000    eV*Ang^6  
--------------------------------------------------------------------------------
O    s Cl   s Buckingham    Buckingham A     8286.9100    eV        0.000 12.000
                            Buckingham rho  0.25900000    Ang       
                            Buckingham C     62.200000    eV*Ang^6  
--------------------------------------------------------------------------------
Cl   s Cl   s Buckingham    Buckingham A     1227.2000    eV        0.000 12.000
                            Buckingham rho  0.32100000    Ang       
                            Buckingham C     14.530000    eV*Ang^6  
--------------------------------------------------------------------------------
O    s Mg   s Buckingham    Buckingham A     1428.5000    eV        0.000 12.000
                            Buckingham rho  0.29450000    Ang       
                            Buckingham C     0.0000000    eV*Ang^6  
--------------------------------------------------------------------------------
Mg   s Cl   s Buckingham    Buckingham A     4914.5400    eV        0.000 12.000
                            Buckingham rho  0.25700000    Ang       
                            Buckingham C     0.0000000    eV*Ang^6  
--------------------------------------------------------------------------------
O    s Ca   s Buckingham    Buckingham A     1090.4000    eV        0.000 12.000
                            Buckingham rho  0.34370000    Ang       
                            Buckingham C     0.0000000    eV*Ang^6  
--------------------------------------------------------------------------------
Cl   s Ca   s Buckingham    Buckingham A     2302.0000    eV        0.000 12.000
                            Buckingham rho  0.34020000    Ang       
                            Buckingham C     0.0000000    eV*Ang^6  
--------------------------------------------------------------------------------
O    s Sr   s Buckingham    Buckingham A     959.10000    eV        0.000 12.000
                            Buckingham rho  0.37210000    Ang       
                            Buckingham C     0.0000000    eV*Ang^6  
--------------------------------------------------------------------------------
Cl   s Sr   s Buckingham    Buckingham A     2191.0900    eV        0.000 12.000
                            Buckingham rho  0.34570000    Ang       
                            Buckingham C     0.0000000    eV*Ang^6  
--------------------------------------------------------------------------------
O    s Ba   s Buckingham    Buckingham A     905.70000    eV        0.000 12.000
                            Buckingham rho  0.39760000    Ang       
                            Buckingham C     0.0000000    eV*Ang^6  
--------------------------------------------------------------------------------
Cl   s Ba   s Buckingham    Buckingham A     2704.5500    eV        0.000 12.000
                            Buckingham rho  0.35280000    Ang       
                            Buckingham C     0.0000000    eV*Ang^6  
--------------------------------------------------------------------------------

********************************************************************************
*  Output for configuration   1                                                *
********************************************************************************


  Components of energy : 

--------------------------------------------------------------------------------
  Interatomic potentials     =           4.94315381 eV    
  Monopole - monopole (real) =         -10.03624526 eV    
  Monopole - monopole (recip)=         -29.53581274 eV    
  Monopole - monopole (total)=         -39.57205800 eV    
--------------------------------------------------------------------------------
  Total lattice energy       =         -34.62890419 eV    
--------------------------------------------------------------------------------
  Total lattice energy       =           -3341.1599 kJ/(mole unit cells)
--------------------------------------------------------------------------------


  Number of variables =        1

  Maximum number of calculations  =          1000
  Maximum Hessian update interval =            10
  Maximum step size               =   1.000000000
  Maximum parameter tolerance     =   0.000010000
  Maximum function  tolerance     =   0.000010000
  Maximum gradient  tolerance     =   0.001000000
  Maximum gradient  component     =   0.010000000

  Symmetry constrained optimisation

  Symmetry used for second derivatives

  Cell parameters to be optimised using strains

  Newton-Raphson optimiser to be used

  BFGS hessian update to be used

  Lower half triangular hessian to be used

  Start of bulk optimisation :

  Cycle:      0 Energy:       -34.628904  Gnorm:      4.328237  CPU:    0.013
  ** Hessian calculated **
  Cycle:      1 Energy:       -34.677667  Gnorm:      0.044008  CPU:    0.017
  Cycle:      2 Energy:       -34.677671  Gnorm:      0.003653  CPU:    0.020


  **** Optimisation achieved ****


  Final energy =     -34.67767136 eV
  Final Gnorm  =       0.00000010

  Components of energy : 

--------------------------------------------------------------------------------
  Interatomic potentials     =           5.77546103 eV    
  Monopole - monopole (real) =         -10.25970290 eV    
  Monopole - monopole (recip)=         -30.19342950 eV    
  Monopole - monopole (total)=         -40.45313239 eV    
--------------------------------------------------------------------------------
  Total lattice energy       =         -34.67767136 eV    
--------------------------------------------------------------------------------
  Total lattice energy       =           -3345.8652 kJ/(mole unit cells)
--------------------------------------------------------------------------------

  Final asymmetric unit coordinates :

--------------------------------------------------------------------------------
   No.  Atomic        x           y           z         Radius
        Label       (Frac)      (Frac)      (Frac)       (Angs) 
--------------------------------------------------------------------------------
     1  Cl    c     0.000000    0.000000    0.000000    0.000000
     2  O     c     0.500000    0.500000    0.500000    0.000000
     3  Na    c     0.500000    0.500000    0.000000    0.000000
     4  Cl    s     0.000000    0.000000    0.000000    0.000000
     5  O     s     0.500000    0.500000    0.500000    0.000000
--------------------------------------------------------------------------------

  Final Cartesian lattice vectors (Angstroms) :

        4.405902    0.000000    0.000000
        0.000000    4.405902    0.000000
        0.000000    0.000000    4.405902


  Final cell parameters and derivatives :

--------------------------------------------------------------------------------
       a            4.405902 Angstrom     dE/de1(xx)     0.000000 eV/strain
       b            4.405902 Angstrom     dE/de2(yy)     0.000000 eV/strain
       c            4.405902 Angstrom     dE/de3(zz)     0.000000 eV/strain
       alpha       90.000000 Degrees      dE/de4(yz)     0.000000 eV/strain
       beta        90.000000 Degrees      dE/de5(xz)     0.000000 eV/strain
       gamma       90.000000 Degrees      dE/de6(xy)     0.000000 eV/strain
--------------------------------------------------------------------------------

  Primitive cell volume =            85.527266 Angs**3

  Density of cell =      2.338030 g/cm**3

  Non-primitive cell volume =            85.527266 Angs**3


  Final internal derivatives :

--------------------------------------------------------------------------------
   No.  Atomic          a             b             c           Radius
        Label          (eV)          (eV)          (eV)        (eV/Angs)
--------------------------------------------------------------------------------
      1 Cl    c       0.000000      0.000000      0.000000      0.000000
      2 O     c       0.000000      0.000000      0.000000      0.000000
      3 Na    c       0.000000      0.000000      0.000000      0.000000
      4 Cl    s       0.000000      0.000000      0.000000      0.000000
      5 O     s       0.000000      0.000000      0.000000      0.000000
--------------------------------------------------------------------------------
  Maximum abs         0.000000      0.000000      0.000000      0.000000
--------------------------------------------------------------------------------

  Comparison of initial and final structures : 

--------------------------------------------------------------------------------
  Parameter   Initial value   Final value   Difference    Units      Percent
--------------------------------------------------------------------------------
    Volume        91.368216     85.527266    -5.840950    Angs**3     -6.39
    a              4.504000      4.405902    -0.098098    Angstroms   -2.18
    b              4.504000      4.405902    -0.098098    Angstroms   -2.18
    c              4.504000      4.405902    -0.098098    Angstroms   -2.18
    alpha         90.000000     90.000000     0.000000    Degrees      0.00
    beta          90.000000     90.000000     0.000000    Degrees      0.00
    gamma         90.000000     90.000000     0.000000    Degrees      0.00
      1 x          0.000000      0.000000     0.000000    Fractional   0.00
      1 y          0.000000      0.000000     0.000000    Fractional   0.00
      1 z          0.000000      0.000000     0.000000    Fractional   0.00
      2 x          0.500000      0.500000     0.000000    Fractional   0.00
      2 y          0.500000      0.500000     0.000000    Fractional   0.00
      2 z          0.500000      0.500000     0.000000    Fractional   0.00
      3 x          0.500000      0.500000     0.000000    Fractional   0.00
      3 y          0.500000      0.500000     0.000000    Fractional   0.00
      3 z          0.000000      0.000000     0.000000    Fractional   0.00
      4 x          0.000000      0.000000     0.000000    Fractional   0.00
      4 y          0.000000      0.000000     0.000000    Fractional   0.00
      4 z          0.000000      0.000000     0.000000    Fractional   0.00
      5 x          0.500000      0.500000     0.000000    Fractional   0.00
      5 y          0.500000      0.500000     0.000000    Fractional   0.00
      5 z          0.500000      0.500000     0.000000    Fractional   0.00
--------------------------------------------------------------------------------


  Born effective charge tensors : 

-------------------------------------------------------------------------------
  Atom             x           y             z
-------------------------------------------------------------------------------
    1 Cl    x      -0.9918     -0.0000     -0.0000
            y      -0.0000     -0.9918     -0.0000
            z      -0.0000     -0.0000     -0.9918
-------------------------------------------------------------------------------
    2 O     x      -2.2939      0.0000      0.0000
            y       0.0000     -2.2939      0.0000
            z       0.0000      0.0000     -2.2939
-------------------------------------------------------------------------------
    3 Na    x       1.2243      0.0000      0.0000
            y       0.0000      1.2243     -0.0000
            z       0.0000      0.0000      0.8372
-------------------------------------------------------------------------------




  Elastic Constant Matrix: (Units=GPa)

-------------------------------------------------------------------------------
  Indices      1         2         3         4         5         6    
-------------------------------------------------------------------------------
       1     82.7680   24.3534   24.3534   -0.0000    0.0000   -0.0000
       2     24.3534   82.7680   24.3534    0.0000   -0.0000   -0.0000
       3     24.3534   24.3534   82.7680    0.0000   -0.0000    0.0000
       4     -0.0000    0.0000    0.0000   24.3534   -0.0000    0.0000
       5      0.0000   -0.0000   -0.0000   -0.0000   24.3534    0.0000
       6     -0.0000   -0.0000    0.0000    0.0000    0.0000   24.3534
-------------------------------------------------------------------------------


  Elastic Compliance Matrix: (Units=1/GPa)

-------------------------------------------------------------------------------
  Indices      1         2         3         4         5         6    
-------------------------------------------------------------------------------
       1    0.013948 -0.003171 -0.003171  0.000000 -0.000000  0.000000
       2   -0.003171  0.013948 -0.003171 -0.000000  0.000000 -0.000000
       3   -0.003171 -0.003171  0.013948 -0.000000  0.000000 -0.000000
       4    0.000000 -0.000000 -0.000000  0.041062  0.000000 -0.000000
       5   -0.000000  0.000000  0.000000  0.000000  0.041062 -0.000000
       6    0.000000 -0.000000 -0.000000 -0.000000 -0.000000  0.041062
-------------------------------------------------------------------------------

  Mechanical properties :

-------------------------------------------------------------------------------
  Convention :                    Reuss         Voigt         Hill
-------------------------------------------------------------------------------
  Bulk  Modulus (GPa)     =      43.82493      43.82493      43.82493
  Shear Modulus (GPa)     =      26.08758      26.29496      26.19127
-------------------------------------------------------------------------------
  Velocity S-wave (km/s)  =       3.34035       3.35360       3.34698
  Velocity P-wave (km/s)  =       5.79842       5.80861       5.80351
-------------------------------------------------------------------------------
  Compressibility (1/GPa) =    0.02281806
-------------------------------------------------------------------------------
  Stress axis :                     x             y             z
-------------------------------------------------------------------------------
  Youngs Moduli (GPa)     =      71.69479      71.69479      71.69479
-------------------------------------------------------------------------------
  Poissons Ratio (x)      =                     0.22734       0.22734
  Poissons Ratio (y)      =       0.22734                     0.22734
  Poissons Ratio (z)      =       0.22734       0.22734
-------------------------------------------------------------------------------


  Piezoelectric Strain Matrix: (Units=C/m**2)

-------------------------------------------------------------------------------
  Indices      1         2         3         4         5         6    
-------------------------------------------------------------------------------
       x    -0.00000  -0.00000  -0.00000  -0.00000   0.00000  -0.00000
       y     0.00000  -0.00000   0.00000   0.00000  -0.00000   0.00000
       z    -0.00000  -0.00000   0.00000  -0.00000   0.00000  -0.00000
-------------------------------------------------------------------------------


  Piezoelectric Stress Matrix: (Units=10**-11 C/N)

-------------------------------------------------------------------------------
  Indices      1         2         3         4         5         6    
-------------------------------------------------------------------------------
       x     0.00000  -0.00000  -0.00000  -0.00000   0.00000  -0.00000
       y     0.00000  -0.00000   0.00000   0.00000  -0.00000   0.00000
       z    -0.00000  -0.00000   0.00000  -0.00000   0.00000  -0.00000
-------------------------------------------------------------------------------


  Static dielectric constant tensor : 

-------------------------------------------------------------------------------
              x         y         z
-------------------------------------------------------------------------------
       x    11.08357   0.00000   0.00000
       y     0.00000  11.08357   0.00000
       z     0.00000   0.00000  11.08357
--------------------------------------------------------------------------------

  High frequency dielectric constant tensor : 

-------------------------------------------------------------------------------
              x         y         z
-------------------------------------------------------------------------------
       x     1.50771   0.00000   0.00000
       y     0.00000   1.50771   0.00000
       z     0.00000   0.00000   1.50771
-------------------------------------------------------------------------------

  Static refractive indices : 

-------------------------------------------------------------------------------
    1 =    3.32920      2 =    3.32920      3 =    3.32920
-------------------------------------------------------------------------------

  High frequency refractive indices : 

-------------------------------------------------------------------------------
    1 =    1.22789      2 =    1.22789      3 =    1.22789
-------------------------------------------------------------------------------


  Time to end of optimisation =       0.0283 seconds

********************************************************************************
*  Defect calculation for configuration   1 :                                  *
********************************************************************************

  Total number of defects =      1

  Total charge on defect  =   1.00

  Defect centre is at   0.5000   0.2500   0.2500  Frac

  Region 1 radius =  20.0000      Number of ions =   2745

  Number of symmetry inequivalent region 1 ions  =   1501

  Region 2 radius =  24.0000      Number of ions =   2024

  Number of symmetry inequivalent region 2a ions =   1072

  Region 2a mode = 4 : screened electrostatics due to region 1 
                       neglect correction to region 1 forces from 2a
                       region 2a displacements based on defects only

  Region 2a ions will only interact with defects in region 1

  Impurities:

--------------------------------------------------------------------------------
    Specification type     Symbol/Number         x          y          z
--------------------------------------------------------------------------------
    Frac/Symbol             Ba               0.500000   0.500000   0.000000
--------------------------------------------------------------------------------


  Symmetry reduced region 1 (Relative to defect centre) :

--------------------------------------------------------------------------------
   No.   Atomic       x            y             z       Radius  Multiplicity   
         Label      (Angs)       (Angs)        (Angs)    (Angs)     
--------------------------------------------------------------------------------
     1  O     c      0.0000       1.1015 *     1.1015 *  0.0000     1          
     2  Na    c      0.0000      -1.1015 *     1.1015 *  0.0000     1          
     3  Ba    c      0.0000       1.1015      -1.1015    0.0000     1    Defect
     4  Cl    c      2.2030 *    -1.1015 *    -1.1015 *  0.0000     2          
     5  Na    c      2.2030 *     1.1015 *     1.1015 *  0.0000     2          
     6  O     c      0.0000       1.1015 *    -3.3044 *  0.0000     1          
     7  O     c      0.0000      -3.3044 *     1.1015 *  0.0000     1          
     8  Na    c      0.0000       1.1015 *     3.3044 *  0.0000     1          
     9  Na    c      0.0000      -3.3044 *    -1.1015 *  0.0000     1          
    10  Na    c      0.0000      -1.1015 *    -3.3044 *  0.0000     1          
    11  Na    c      0.0000       3.3044 *     1.1015 *  0.0000     1          
    12  Cl    c      2.2030 *    -1.1015 *     3.3044 *  0.0000     2          
    13  Na    c      2.2030 *     1.1015 *    -3.3044 *  0.0000     2          
    14  Cl    c      2.2030 *     3.3044 *    -1.1015 *  0.0000     2          
    15  Na    c      2.2030 *    -3.3044 *     1.1015 *  0.0000     2          
    16  O     c      0.0000      -3.3044 *    -3.3044 *  0.0000     1          
    17  Na    c      0.0000      -3.3044 *     3.3044 *  0.0000     1          
    18  Na    c      0.0000       3.3044 *    -3.3044 *  0.0000     1          
    19  O     c      4.4059 *     1.1015 *     1.1015 *  0.0000     2          
    20  Na    c      4.4059 *     1.1015 *    -1.1015 *  0.0000     2          
    21  Na    c      4.4059 *    -1.1015 *     1.1015 *  0.0000     2          
    22  Cl    c      2.2030 *     3.3044 *     3.3044 *  0.0000     2          
    23  Na    c      2.2030 *    -3.3044 *    -3.3044 *  0.0000     2          
    24  O     c      0.0000       1.1015 *     5.5074 *  0.0000     1          
    25  O     c      0.0000       5.5074 *     1.1015 *  0.0000     1          
    26  O     c      4.4059 *     1.1015 *    -3.3044 *  0.0000     2          
    27  Na    c      0.0000       1.1015 *    -5.5074 *  0.0000     1          
    28  Na    c      0.0000       5.5074 *    -1.1015 *  0.0000     1          
    29  Na    c      4.4059 *     1.1015 *     3.3044 *  0.0000     2          
    30  Na    c      0.0000      -1.1015 *     5.5074 *  0.0000     1          
    31  Na    c      0.0000      -5.5074 *     1.1015 *  0.0000     1          
    32  Na    c      4.4059 *    -1.1015 *    -3.3044 *  0.0000     2          
    33  O     c      4.4059 *    -3.3044 *     1.1015 *  0.0000     2          
    34  Na    c      4.4059 *    -3.3044 *    -1.1015 *  0.0000     2          
    35  Na    c      4.4059 *     3.3044 *     1.1015 *  0.0000     2          
    36  Cl    c      2.2030 *    -1.1015 *    -5.5074 *  0.0000     2          
    37  Cl    c      2.2030 *    -5.5074 *    -1.1015 *  0.0000     2          
    38  Na    c      2.2030 *     1.1015 *     5.5074 *  0.0000     2          
    39  Na    c      2.2030 *     5.5074 *     1.1015 *  0.0000     2          
    40  O     c      0.0000       5.5074 *    -3.3044 *  0.0000     1          
    41  O     c      0.0000      -3.3044 *     5.5074 *  0.0000     1          
    42  Na    c      0.0000       5.5074 *     3.3044 *  0.0000     1          
    43  Na    c      0.0000      -3.3044 *    -5.5074 *  0.0000     1          
    44  Na    c      0.0000       3.3044 *     5.5074 *  0.0000     1          
    45  Na    c      0.0000      -5.5074 *    -3.3044 *  0.0000     1          
    46  O     c      4.4059 *    -3.3044 *    -3.3044 *  0.0000     2          
    47  Na    c      4.4059 *    -3.3044 *     3.3044 *  0.0000     2          
    48  Na    c      4.4059 *     3.3044 *    -3.3044 *  0.0000     2          
    49  Cl    c      6.6089 *    -1.1015 *    -1.1015 *  0.0000     2          
    50  Na    c      6.6089 *     1.1015 *     1.1015 *  0.0000     2          
    51  Cl    c      2.2030 *     3.3044 *    -5.5074 *  0.0000     2          
    52  Cl    c      2.2030 *    -5.5074 *     3.3044 *  0.0000     2          
    53  Na    c      2.2030 *     5.5074 *    -3.3044 *  0.0000     2          
    54  Na    c      2.2030 *    -3.3044 *     5.5074 *  0.0000     2          
    55  O     c      4.4059 *     1.1015 *     5.5074 *  0.0000     2          
    56  O     c      4.4059 *     5.5074 *     1.1015 *  0.0000     2          
    57  Na    c      4.4059 *     1.1015 *    -5.5074 *  0.0000     2          
    58  Na    c      4.4059 *     5.5074 *    -1.1015 *  0.0000     2          
    59  Na    c      4.4059 *    -1.1015 *     5.5074 *  0.0000     2          
    60  Na    c      4.4059 *    -5.5074 *     1.1015 *  0.0000     2          
    61  Cl    c      6.6089 *    -1.1015 *     3.3044 *  0.0000     2          
    62  Cl    c      6.6089 *     3.3044 *    -1.1015 *  0.0000     2          
    63  Na    c      6.6089 *     1.1015 *    -3.3044 *  0.0000     2          
    64  Na    c      6.6089 *    -3.3044 *     1.1015 *  0.0000     2          
    65  O     c      0.0000       1.1015 *    -7.7103 *  0.0000     1          
    66  O     c      0.0000       5.5074 *     5.5074 *  0.0000     1          
    67  O     c      0.0000      -7.7103 *     1.1015 *  0.0000     1          
    68  Na    c      0.0000       1.1015 *     7.7103 *  0.0000     1          
    69  Na    c      0.0000       5.5074 *    -5.5074 *  0.0000     1          
    70  Na    c      0.0000      -7.7103 *    -1.1015 *  0.0000     1          
    71  Na    c      0.0000      -1.1015 *    -7.7103 *  0.0000     1          
    72  Na    c      0.0000       7.7103 *     1.1015 *  0.0000     1          
    73  Na    c      0.0000      -5.5074 *     5.5074 *  0.0000     1          
    74  O     c      4.4059 *     5.5074 *    -3.3044 *  0.0000     2          
    75  O     c      4.4059 *    -3.3044 *     5.5074 *  0.0000     2          
    76  Na    c      4.4059 *     5.5074 *     3.3044 *  0.0000     2          
    77  Na    c      4.4059 *    -3.3044 *    -5.5074 *  0.0000     2          
    78  Na    c      4.4059 *     3.3044 *     5.5074 *  0.0000     2          
    79  Na    c      4.4059 *    -5.5074 *    -3.3044 *  0.0000     2          
    80  Cl    c      2.2030 *    -1.1015 *     7.7103 *  0.0000     2          
    81  Cl    c      2.2030 *    -5.5074 *    -5.5074 *  0.0000     2          
    82  Cl    c      6.6089 *     3.3044 *     3.3044 *  0.0000     2          
    83  Na    c      2.2030 *     1.1015 *    -7.7103 *  0.0000     2          
    84  Na    c      2.2030 *     5.5074 *     5.5074 *  0.0000     2          
    85  Na    c      6.6089 *    -3.3044 *    -3.3044 *  0.0000     2          
    86  Cl    c      2.2030 *     7.7103 *    -1.1015 *  0.0000     2          
    87  Na    c      2.2030 *    -7.7103 *     1.1015 *  0.0000     2          
    88  O     c      0.0000      -3.3044 *    -7.7103 *  0.0000     1          
    89  O     c      0.0000      -7.7103 *    -3.3044 *  0.0000     1          
    90  Na    c      0.0000      -3.3044 *     7.7103 *  0.0000     1          
    91  Na    c      0.0000      -7.7103 *     3.3044 *  0.0000     1          
    92  Na    c      0.0000       3.3044 *    -7.7103 *  0.0000     1          
    93  Na    c      0.0000       7.7103 *    -3.3044 *  0.0000     1          
    94  Cl    c      2.2030 *     3.3044 *     7.7103 *  0.0000     2          
    95  Cl    c      6.6089 *    -1.1015 *    -5.5074 *  0.0000     2          
    96  Na    c      2.2030 *    -3.3044 *    -7.7103 *  0.0000     2          
    97  Na    c      6.6089 *     1.1015 *     5.5074 *  0.0000     2          
    98  Cl    c      2.2030 *     7.7103 *     3.3044 *  0.0000     2          
    99  Cl    c      6.6089 *    -5.5074 *    -1.1015 *  0.0000     2          
   100  Na    c      2.2030 *    -7.7103 *    -3.3044 *  0.0000     2          
   101  Na    c      6.6089 *     5.5074 *     1.1015 *  0.0000     2          
   102  O     c      4.4059 *     1.1015 *    -7.7103 *  0.0000     2          
   103  O     c      4.4059 *     5.5074 *     5.5074 *  0.0000     2          
   104  Na    c      4.4059 *     1.1015 *     7.7103 *  0.0000     2          
   105  Na    c      4.4059 *     5.5074 *    -5.5074 *  0.0000     2          
   106  Na    c      4.4059 *    -1.1015 *    -7.7103 *  0.0000     2          
   107  Na    c      4.4059 *    -5.5074 *     5.5074 *  0.0000     2          
   108  O     c      4.4059 *    -7.7103 *     1.1015 *  0.0000     2          
   109  O     c      8.8118 *     1.1015 *     1.1015 *  0.0000     2          
   110  Na    c      4.4059 *    -7.7103 *    -1.1015 *  0.0000     2          
   111  Na    c      8.8118 *     1.1015 *    -1.1015 *  0.0000     2          
   112  Na    c      4.4059 *     7.7103 *     1.1015 *  0.0000     2          
   113  Na    c      8.8118 *    -1.1015 *     1.1015 *  0.0000     2          
   114  Cl    c      6.6089 *     3.3044 *    -5.5074 *  0.0000     2          
   115  Cl    c      6.6089 *    -5.5074 *     3.3044 *  0.0000     2          
   116  Na    c      6.6089 *     5.5074 *    -3.3044 *  0.0000     2          
   117  Na    c      6.6089 *    -3.3044 *     5.5074 *  0.0000     2          
   118  O     c      0.0000       5.5074 *    -7.7103 *  0.0000     1          
   119  O     c      0.0000      -7.7103 *     5.5074 *  0.0000     1          
   120  O     c      4.4059 *    -3.3044 *    -7.7103 *  0.0000     2          
   121  Na    c      0.0000       5.5074 *     7.7103 *  0.0000     1          
   122  Na    c      0.0000      -7.7103 *    -5.5074 *  0.0000     1          
   123  Na    c      4.4059 *    -3.3044 *     7.7103 *  0.0000     2          
   124  Na    c      0.0000       7.7103 *     5.5074 *  0.0000     1          
   125  Na    c      0.0000      -5.5074 *    -7.7103 *  0.0000     1          
   126  Na    c      4.4059 *     3.3044 *    -7.7103 *  0.0000     2          
   127  O     c      4.4059 *    -7.7103 *    -3.3044 *  0.0000     2          
   128  O     c      8.8118 *     1.1015 *    -3.3044 *  0.0000     2          
   129  O     c      8.8118 *    -3.3044 *     1.1015 *  0.0000     2          
   130  Na    c      4.4059 *    -7.7103 *     3.3044 *  0.0000     2          
   131  Na    c      8.8118 *     1.1015 *     3.3044 *  0.0000     2          
   132  Na    c      8.8118 *    -3.3044 *    -1.1015 *  0.0000     2          
   133  Na    c      4.4059 *     7.7103 *    -3.3044 *  0.0000     2          
   134  Na    c      8.8118 *    -1.1015 *    -3.3044 *  0.0000     2          
   135  Na    c      8.8118 *     3.3044 *     1.1015 *  0.0000     2          
   136  Cl    c      2.2030 *     7.7103 *    -5.5074 *  0.0000     2          
   137  Cl    c      2.2030 *    -5.5074 *     7.7103 *  0.0000     2          
   138  Na    c      2.2030 *     5.5074 *    -7.7103 *  0.0000     2          
   139  Na    c      2.2030 *    -7.7103 *     5.5074 *  0.0000     2          
   140  O     c      0.0000       1.1015 *     9.9133 *  0.0000     1          
   141  O     c      0.0000       9.9133 *     1.1015 *  0.0000     1          
   142  O     c      8.8118 *    -3.3044 *    -3.3044 *  0.0000     2          
   143  Na    c      0.0000       1.1015 *    -9.9133 *  0.0000     1          
   144  Na    c      0.0000       9.9133 *    -1.1015 *  0.0000     1          
   145  Na    c      8.8118 *    -3.3044 *     3.3044 *  0.0000     2          
   146  Na    c      0.0000      -1.1015 *     9.9133 *  0.0000     1          
   147  Na    c      0.0000      -9.9133 *     1.1015 *  0.0000     1          
   148  Na    c      8.8118 *     3.3044 *    -3.3044 *  0.0000     2          
   149  Cl    c      2.2030 *    -1.1015 *    -9.9133 *  0.0000     2          
   150  Cl    c      6.6089 *    -1.1015 *     7.7103 *  0.0000     2          
   151  Cl    c      6.6089 *     7.7103 *    -1.1015 *  0.0000     2          
   152  Cl    c      6.6089 *    -5.5074 *    -5.5074 *  0.0000     2          
   153  Na    c      2.2030 *     1.1015 *     9.9133 *  0.0000     2          
   154  Na    c      6.6089 *     1.1015 *    -7.7103 *  0.0000     2          
   155  Na    c      6.6089 *     5.5074 *     5.5074 *  0.0000     2          
   156  Na    c      6.6089 *    -7.7103 *     1.1015 *  0.0000     2          
   157  Cl    c      2.2030 *    -9.9133 *    -1.1015 *  0.0000     2          
   158  Na    c      2.2030 *     9.9133 *     1.1015 *  0.0000     2          
   159  O     c      0.0000       9.9133 *    -3.3044 *  0.0000     1          
   160  O     c      0.0000      -3.3044 *     9.9133 *  0.0000     1          
   161  O     c      4.4059 *     5.5074 *    -7.7103 *  0.0000     2          
   162  O     c      4.4059 *    -7.7103 *     5.5074 *  0.0000     2          
   163  O     c      8.8118 *     1.1015 *     5.5074 *  0.0000     2          
   164  O     c      8.8118 *     5.5074 *     1.1015 *  0.0000     2          
   165  Na    c      0.0000       9.9133 *     3.3044 *  0.0000     1          
   166  Na    c      0.0000      -3.3044 *    -9.9133 *  0.0000     1          
   167  Na    c      4.4059 *     5.5074 *     7.7103 *  0.0000     2          
   168  Na    c      4.4059 *    -7.7103 *    -5.5074 *  0.0000     2          
   169  Na    c      8.8118 *     1.1015 *    -5.5074 *  0.0000     2          
   170  Na    c      8.8118 *     5.5074 *    -1.1015 *  0.0000     2          
   171  Na    c      0.0000       3.3044 *     9.9133 *  0.0000     1          
   172  Na    c      0.0000      -9.9133 *    -3.3044 *  0.0000     1          
   173  Na    c      4.4059 *     7.7103 *     5.5074 *  0.0000     2          
   174  Na    c      4.4059 *    -5.5074 *    -7.7103 *  0.0000     2          
   175  Na    c      8.8118 *    -1.1015 *     5.5074 *  0.0000     2          
   176  Na    c      8.8118 *    -5.5074 *     1.1015 *  0.0000     2          
   177  Cl    c      6.6089 *     7.7103 *     3.3044 *  0.0000     2          
   178  Na    c      6.6089 *    -7.7103 *    -3.3044 *  0.0000     2          
   179  Cl    c      2.2030 *     3.3044 *    -9.9133 *  0.0000     2          
   180  Cl    c      2.2030 *    -9.9133 *     3.3044 *  0.0000     2          
   181  Cl    c      6.6089 *     3.3044 *     7.7103 *  0.0000     2          
   182  Na    c      2.2030 *     9.9133 *    -3.3044 *  0.0000     2          
   183  Na    c      2.2030 *    -3.3044 *     9.9133 *  0.0000     2          
   184  Na    c      6.6089 *    -3.3044 *    -7.7103 *  0.0000     2          
   185  O     c      0.0000      -7.7103 *    -7.7103 *  0.0000     1          
   186  O     c      4.4059 *     1.1015 *     9.9133 *  0.0000     2          
   187  O     c      4.4059 *     9.9133 *     1.1015 *  0.0000     2          
   188  O     c      8.8118 *     5.5074 *    -3.3044 *  0.0000     2          
   189  O     c      8.8118 *    -3.3044 *     5.5074 *  0.0000     2          
   190  Na    c      0.0000      -7.7103 *     7.7103 *  0.0000     1          
   191  Na    c      4.4059 *     1.1015 *    -9.9133 *  0.0000     2          
   192  Na    c      4.4059 *     9.9133 *    -1.1015 *  0.0000     2          
   193  Na    c      8.8118 *     5.5074 *     3.3044 *  0.0000     2          
   194  Na    c      8.8118 *    -3.3044 *    -5.5074 *  0.0000     2          
   195  Na    c      0.0000       7.7103 *    -7.7103 *  0.0000     1          
   196  Na    c      4.4059 *    -1.1015 *     9.9133 *  0.0000     2          
   197  Na    c      4.4059 *    -9.9133 *     1.1015 *  0.0000     2          
   198  Na    c      8.8118 *     3.3044 *     5.5074 *  0.0000     2          
   199  Na    c      8.8118 *    -5.5074 *    -3.3044 *  0.0000     2          
   200  Cl    c      2.2030 *     7.7103 *     7.7103 *  0.0000     2          
   201  Cl    c     11.0148 *    -1.1015 *    -1.1015 *  0.0000     2          
   202  Na    c      2.2030 *    -7.7103 *    -7.7103 *  0.0000     2          
   203  Na    c     11.0148 *     1.1015 *     1.1015 *  0.0000     2          
   204  O     c      4.4059 *     9.9133 *    -3.3044 *  0.0000     2          
   205  Na    c      4.4059 *     9.9133 *     3.3044 *  0.0000     2          
   206  Na    c      4.4059 *    -9.9133 *    -3.3044 *  0.0000     2          
   207  O     c      0.0000       5.5074 *     9.9133 *  0.0000     1          
   208  O     c      0.0000       9.9133 *     5.5074 *  0.0000     1          
   209  O     c      4.4059 *    -3.3044 *     9.9133 *  0.0000     2          
   210  Na    c      0.0000       5.5074 *    -9.9133 *  0.0000     1          
   211  Na    c      0.0000       9.9133 *    -5.5074 *  0.0000     1          
   212  Na    c      4.4059 *    -3.3044 *    -9.9133 *  0.0000     2          
   213  Na    c      0.0000      -5.5074 *     9.9133 *  0.0000     1          
   214  Na    c      0.0000      -9.9133 *     5.5074 *  0.0000     1          
   215  Na    c      4.4059 *     3.3044 *     9.9133 *  0.0000     2          
   216  Cl    c      2.2030 *    -5.5074 *    -9.9133 *  0.0000     2          
   217  Cl    c      2.2030 *    -9.9133 *    -5.5074 *  0.0000     2          
   218  Cl    c      6.6089 *     7.7103 *    -5.5074 *  0.0000     2          
   219  Cl    c      6.6089 *    -5.5074 *     7.7103 *  0.0000     2          
   220  Cl    c     11.0148 *    -1.1015 *     3.3044 *  0.0000     2          
   221  Cl    c     11.0148 *     3.3044 *    -1.1015 *  0.0000     2          
   222  Na    c      2.2030 *     5.5074 *     9.9133 *  0.0000     2          
   223  Na    c      2.2030 *     9.9133 *     5.5074 *  0.0000     2          
   224  Na    c      6.6089 *     5.5074 *    -7.7103 *  0.0000     2          
   225  Na    c      6.6089 *    -7.7103 *     5.5074 *  0.0000     2          
   226  Na    c     11.0148 *     1.1015 *    -3.3044 *  0.0000     2          
   227  Na    c     11.0148 *    -3.3044 *     1.1015 *  0.0000     2          
   228  O     c      4.4059 *    -7.7103 *    -7.7103 *  0.0000     2          
   229  O     c      8.8118 *     1.1015 *    -7.7103 *  0.0000     2          
   230  O     c      8.8118 *     5.5074 *     5.5074 *  0.0000     2          
   231  Na    c      4.4059 *    -7.7103 *     7.7103 *  0.0000     2          
   232  Na    c      8.8118 *     1.1015 *     7.7103 *  0.0000     2          
   233  Na    c      8.8118 *     5.5074 *    -5.5074 *  0.0000     2          
   234  Na    c      4.4059 *     7.7103 *    -7.7103 *  0.0000     2          
   235  Na    c      8.8118 *    -1.1015 *    -7.7103 *  0.0000     2          
   236  Na    c      8.8118 *    -5.5074 *     5.5074 *  0.0000     2          
   237  O     c      8.8118 *    -7.7103 *     1.1015 *  0.0000     2          
   238  Na    c      8.8118 *    -7.7103 *    -1.1015 *  0.0000     2          
   239  Na    c      8.8118 *     7.7103 *     1.1015 *  0.0000     2          
   240  Cl    c     11.0148 *     3.3044 *     3.3044 *  0.0000     2          
   241  Na    c     11.0148 *    -3.3044 *    -3.3044 *  0.0000     2          
   242  Cl    c      6.6089 *    -1.1015 *    -9.9133 *  0.0000     2          
   243  Cl    c      6.6089 *    -9.9133 *    -1.1015 *  0.0000     2          
   244  Na    c      6.6089 *     1.1015 *     9.9133 *  0.0000     2          
   245  Na    c      6.6089 *     9.9133 *     1.1015 *  0.0000     2          
   246  O     c      0.0000       1.1015 *   -12.1162 *  0.0000     1          
   247  O     c      0.0000     -12.1162 *     1.1015 *  0.0000     1          
   248  O     c      4.4059 *     5.5074 *     9.9133 *  0.0000     2          
   249  O     c      4.4059 *     9.9133 *     5.5074 *  0.0000     2          
   250  O     c      8.8118 *    -3.3044 *    -7.7103 *  0.0000     2          
   251  O     c      8.8118 *    -7.7103 *    -3.3044 *  0.0000     2          
   252  Na    c      0.0000       1.1015 *    12.1162 *  0.0000     1          
   253  Na    c      0.0000     -12.1162 *    -1.1015 *  0.0000     1          
   254  Na    c      4.4059 *     5.5074 *    -9.9133 *  0.0000     2          
   255  Na    c      4.4059 *     9.9133 *    -5.5074 *  0.0000     2          
   256  Na    c      8.8118 *    -3.3044 *     7.7103 *  0.0000     2          
   257  Na    c      8.8118 *    -7.7103 *     3.3044 *  0.0000     2          
   258  Na    c      0.0000      -1.1015 *   -12.1162 *  0.0000     1          
   259  Na    c      0.0000      12.1162 *     1.1015 *  0.0000     1          
   260  Na    c      4.4059 *    -5.5074 *     9.9133 *  0.0000     2          
   261  Na    c      4.4059 *    -9.9133 *     5.5074 *  0.0000     2          
   262  Na    c      8.8118 *     3.3044 *    -7.7103 *  0.0000     2          
   263  Na    c      8.8118 *     7.7103 *    -3.3044 *  0.0000     2          
   264  Cl    c      2.2030 *    -1.1015 *    12.1162 *  0.0000     2          
   265  Cl    c      2.2030 *    12.1162 *    -1.1015 *  0.0000     2          
   266  Cl    c      6.6089 *     3.3044 *    -9.9133 *  0.0000     2          
   267  Cl    c      6.6089 *    -9.9133 *     3.3044 *  0.0000     2          
   268  Cl    c     11.0148 *    -1.1015 *    -5.5074 *  0.0000     2          
   269  Cl    c     11.0148 *    -5.5074 *    -1.1015 *  0.0000     2          
   270  Na    c      2.2030 *     1.1015 *   -12.1162 *  0.0000     2          
   271  Na    c      2.2030 *   -12.1162 *     1.1015 *  0.0000     2          
   272  Na    c      6.6089 *     9.9133 *    -3.3044 *  0.0000     2          
   273  Na    c      6.6089 *    -3.3044 *     9.9133 *  0.0000     2          
   274  Na    c     11.0148 *     1.1015 *     5.5074 *  0.0000     2          
   275  Na    c     11.0148 *     5.5074 *     1.1015 *  0.0000     2          
   276  O     c      0.0000      -3.3044 *   -12.1162 *  0.0000     1          
   277  O     c      0.0000     -12.1162 *    -3.3044 *  0.0000     1          
   278  Na    c      0.0000      -3.3044 *    12.1162 *  0.0000     1          
   279  Na    c      0.0000     -12.1162 *     3.3044 *  0.0000     1          
   280  Na    c      0.0000       3.3044 *   -12.1162 *  0.0000     1          
   281  Na    c      0.0000      12.1162 *    -3.3044 *  0.0000     1          
   282  O     c      0.0000       9.9133 *    -7.7103 *  0.0000     1          
   283  O     c      0.0000      -7.7103 *     9.9133 *  0.0000     1          
   284  Na    c      0.0000       9.9133 *     7.7103 *  0.0000     1          
   285  Na    c      0.0000      -7.7103 *    -9.9133 *  0.0000     1          
   286  Na    c      0.0000       7.7103 *     9.9133 *  0.0000     1          
   287  Na    c      0.0000      -9.9133 *    -7.7103 *  0.0000     1          
   288  Cl    c      2.2030 *    12.1162 *     3.3044 *  0.0000     2          
   289  Cl    c      6.6089 *     7.7103 *     7.7103 *  0.0000     2          
   290  Cl    c     11.0148 *    -5.5074 *     3.3044 *  0.0000     2          
   291  Na    c      2.2030 *   -12.1162 *    -3.3044 *  0.0000     2          
   292  Na    c      6.6089 *    -7.7103 *    -7.7103 *  0.0000     2          
   293  Na    c     11.0148 *     5.5074 *    -3.3044 *  0.0000     2          
   294  Cl    c      2.2030 *     3.3044 *    12.1162 *  0.0000     2          
   295  Cl    c      2.2030 *     7.7103 *    -9.9133 *  0.0000     2          
   296  Cl    c      2.2030 *    -9.9133 *     7.7103 *  0.0000     2          
   297  Cl    c     11.0148 *     3.3044 *    -5.5074 *  0.0000     2          
   298  Na    c      2.2030 *     9.9133 *    -7.7103 *  0.0000     2          
   299  Na    c      2.2030 *    -3.3044 *   -12.1162 *  0.0000     2          
   300  Na    c      2.2030 *    -7.7103 *     9.9133 *  0.0000     2          
   301  Na    c     11.0148 *    -3.3044 *     5.5074 *  0.0000     2          
   302  O     c      4.4059 *     1.1015 *   -12.1162 *  0.0000     2          
   303  O     c      4.4059 *   -12.1162 *     1.1015 *  0.0000     2          
   304  O     c      8.8118 *     5.5074 *    -7.7103 *  0.0000     2          
   305  Na    c      4.4059 *     1.1015 *    12.1162 *  0.0000     2          
   306  Na    c      4.4059 *   -12.1162 *    -1.1015 *  0.0000     2          
   307  Na    c      8.8118 *     5.5074 *     7.7103 *  0.0000     2          
   308  Na    c      4.4059 *    -1.1015 *   -12.1162 *  0.0000     2          
   309  Na    c      4.4059 *    12.1162 *     1.1015 *  0.0000     2          
   310  Na    c      8.8118 *    -5.5074 *    -7.7103 *  0.0000     2          
   311  O     c      8.8118 *    -7.7103 *     5.5074 *  0.0000     2          
   312  Na    c      8.8118 *    -7.7103 *    -5.5074 *  0.0000     2          
   313  Na    c      8.8118 *     7.7103 *     5.5074 *  0.0000     2          
   314  Cl    c      6.6089 *    -5.5074 *    -9.9133 *  0.0000     2          
   315  Cl    c      6.6089 *    -9.9133 *    -5.5074 *  0.0000     2          
   316  Na    c      6.6089 *     5.5074 *     9.9133 *  0.0000     2          
   317  Na    c      6.6089 *     9.9133 *     5.5074 *  0.0000     2          
   318  O     c      4.4059 *     9.9133 *    -7.7103 *  0.0000     2          
   319  O     c      4.4059 *   -12.1162 *    -3.3044 *  0.0000     2          
   320  Na    c      4.4059 *     9.9133 *     7.7103 *  0.0000     2          
   321  Na    c      4.4059 *   -12.1162 *     3.3044 *  0.0000     2          
   322  Na    c      4.4059 *    12.1162 *    -3.3044 *  0.0000     2          
   323  Na    c      4.4059 *    -9.9133 *    -7.7103 *  0.0000     2          
   324  O     c      0.0000       5.5074 *   -12.1162 *  0.0000     1          
   325  O     c      0.0000     -12.1162 *     5.5074 *  0.0000     1          
   326  O     c      4.4059 *    -3.3044 *   -12.1162 *  0.0000     2          
   327  O     c      4.4059 *    -7.7103 *     9.9133 *  0.0000     2          
   328  O     c      8.8118 *     1.1015 *     9.9133 *  0.0000     2          
   329  O     c      8.8118 *     9.9133 *     1.1015 *  0.0000     2          
   330  O     c     13.2177 *     1.1015 *     1.1015 *  0.0000     2          
   331  Na    c      0.0000       5.5074 *    12.1162 *  0.0000     1          
   332  Na    c      0.0000     -12.1162 *    -5.5074 *  0.0000     1          
   333  Na    c      4.4059 *    -3.3044 *    12.1162 *  0.0000     2          
   334  Na    c      4.4059 *    -7.7103 *    -9.9133 *  0.0000     2          
   335  Na    c      8.8118 *     1.1015 *    -9.9133 *  0.0000     2          
   336  Na    c      8.8118 *     9.9133 *    -1.1015 *  0.0000     2          
   337  Na    c     13.2177 *     1.1015 *    -1.1015 *  0.0000     2          
   338  Na    c      0.0000      12.1162 *     5.5074 *  0.0000     1          
   339  Na    c      0.0000      -5.5074 *   -12.1162 *  0.0000     1          
   340  Na    c      4.4059 *     3.3044 *   -12.1162 *  0.0000     2          
   341  Na    c      4.4059 *     7.7103 *     9.9133 *  0.0000     2          
   342  Na    c      8.8118 *    -1.1015 *     9.9133 *  0.0000     2          
   343  Na    c      8.8118 *    -9.9133 *     1.1015 *  0.0000     2          
   344  Na    c     13.2177 *    -1.1015 *     1.1015 *  0.0000     2          
   345  Cl    c      2.2030 *    12.1162 *    -5.5074 *  0.0000     2          
   346  Cl    c      2.2030 *    -5.5074 *    12.1162 *  0.0000     2          
   347  Cl    c     11.0148 *    -1.1015 *     7.7103 *  0.0000     2          
   348  Cl    c     11.0148 *     7.7103 *    -1.1015 *  0.0000     2          
   349  Cl    c     11.0148 *    -5.5074 *    -5.5074 *  0.0000     2          
   350  Na    c      2.2030 *     5.5074 *   -12.1162 *  0.0000     2          
   351  Na    c      2.2030 *   -12.1162 *     5.5074 *  0.0000     2          
   352  Na    c     11.0148 *     1.1015 *    -7.7103 *  0.0000     2          
   353  Na    c     11.0148 *     5.5074 *     5.5074 *  0.0000     2          
   354  Na    c     11.0148 *    -7.7103 *     1.1015 *  0.0000     2          
   355  O     c      8.8118 *     9.9133 *    -3.3044 *  0.0000     2          
   356  O     c     13.2177 *     1.1015 *    -3.3044 *  0.0000     2          
   357  O     c     13.2177 *    -3.3044 *     1.1015 *  0.0000     2          
   358  Na    c      8.8118 *     9.9133 *     3.3044 *  0.0000     2          
   359  Na    c     13.2177 *     1.1015 *     3.3044 *  0.0000     2          
   360  Na    c     13.2177 *    -3.3044 *    -1.1015 *  0.0000     2          
   361  Na    c      8.8118 *    -9.9133 *    -3.3044 *  0.0000     2          
   362  Na    c     13.2177 *    -1.1015 *    -3.3044 *  0.0000     2          
   363  Na    c     13.2177 *     3.3044 *     1.1015 *  0.0000     2          
   364  O     c      8.8118 *    -3.3044 *     9.9133 *  0.0000     2          
   365  Na    c      8.8118 *    -3.3044 *    -9.9133 *  0.0000     2          
   366  Na    c      8.8118 *     3.3044 *     9.9133 *  0.0000     2          
   367  Cl    c      6.6089 *    -1.1015 *    12.1162 *  0.0000     2          
   368  Cl    c     11.0148 *     3.3044 *     7.7103 *  0.0000     2          
   369  Cl    c     11.0148 *     7.7103 *     3.3044 *  0.0000     2          
   370  Na    c      6.6089 *     1.1015 *   -12.1162 *  0.0000     2          
   371  Na    c     11.0148 *    -3.3044 *    -7.7103 *  0.0000     2          
   372  Na    c     11.0148 *    -7.7103 *    -3.3044 *  0.0000     2          
   373  Cl    c      6.6089 *    12.1162 *    -1.1015 *  0.0000     2          
   374  Na    c      6.6089 *   -12.1162 *     1.1015 *  0.0000     2          
   375  O     c     13.2177 *    -3.3044 *    -3.3044 *  0.0000     2          
   376  Na    c     13.2177 *    -3.3044 *     3.3044 *  0.0000     2          
   377  Na    c     13.2177 *     3.3044 *    -3.3044 *  0.0000     2          
   378  O     c      0.0000       9.9133 *     9.9133 *  0.0000     1          
   379  O     c      4.4059 *     5.5074 *   -12.1162 *  0.0000     2          
   380  O     c      4.4059 *   -12.1162 *     5.5074 *  0.0000     2          
   381  O     c      8.8118 *    -7.7103 *    -7.7103 *  0.0000     2          
   382  Na    c      0.0000       9.9133 *    -9.9133 *  0.0000     1          
   383  Na    c      4.4059 *     5.5074 *    12.1162 *  0.0000     2          
   384  Na    c      4.4059 *   -12.1162 *    -5.5074 *  0.0000     2          
   385  Na    c      8.8118 *    -7.7103 *     7.7103 *  0.0000     2          
   386  Na    c      0.0000      -9.9133 *     9.9133 *  0.0000     1          
   387  Na    c      4.4059 *    12.1162 *     5.5074 *  0.0000     2          
   388  Na    c      4.4059 *    -5.5074 *   -12.1162 *  0.0000     2          
   389  Na    c      8.8118 *     7.7103 *    -7.7103 *  0.0000     2          
   390  Cl    c      6.6089 *     3.3044 *    12.1162 *  0.0000     2          
   391  Cl    c      6.6089 *     7.7103 *    -9.9133 *  0.0000     2          
   392  Cl    c      6.6089 *    12.1162 *     3.3044 *  0.0000     2          
   393  Na    c      6.6089 *    -3.3044 *   -12.1162 *  0.0000     2          
   394  Na    c      6.6089 *    -7.7103 *     9.9133 *  0.0000     2          
   395  Na    c      6.6089 *   -12.1162 *    -3.3044 *  0.0000     2          
   396  Cl    c      2.2030 *    -9.9133 *    -9.9133 *  0.0000     2          
   397  Cl    c      6.6089 *    -9.9133 *     7.7103 *  0.0000     2          
   398  Na    c      2.2030 *     9.9133 *     9.9133 *  0.0000     2          
   399  Na    c      6.6089 *     9.9133 *    -7.7103 *  0.0000     2          
   400  O     c      0.0000       1.1015 *    14.3192 *  0.0000     1          
   401  O     c      0.0000      14.3192 *     1.1015 *  0.0000     1          
   402  O     c      0.0000      -7.7103 *   -12.1162 *  0.0000     1          
   403  O     c      0.0000     -12.1162 *    -7.7103 *  0.0000     1          
   404  O     c      8.8118 *     5.5074 *     9.9133 *  0.0000     2          
   405  Na    c      0.0000       1.1015 *   -14.3192 *  0.0000     1          
   406  Na    c      0.0000      14.3192 *    -1.1015 *  0.0000     1          
   407  Na    c      0.0000      -7.7103 *    12.1162 *  0.0000     1          
   408  Na    c      0.0000     -12.1162 *     7.7103 *  0.0000     1          
   409  Na    c      8.8118 *     5.5074 *    -9.9133 *  0.0000     2          
   410  Na    c      0.0000      -1.1015 *    14.3192 *  0.0000     1          
   411  Na    c      0.0000       7.7103 *   -12.1162 *  0.0000     1          
   412  Na    c      0.0000      12.1162 *    -7.7103 *  0.0000     1          
   413  Na    c      0.0000     -14.3192 *     1.1015 *  0.0000     1          
   414  Na    c      8.8118 *    -5.5074 *     9.9133 *  0.0000     2          
   415  O     c      8.8118 *     9.9133 *     5.5074 *  0.0000     2          
   416  O     c     13.2177 *     1.1015 *     5.5074 *  0.0000     2          
   417  O     c     13.2177 *     5.5074 *     1.1015 *  0.0000     2          
   418  Na    c      8.8118 *     9.9133 *    -5.5074 *  0.0000     2          
   419  Na    c     13.2177 *     1.1015 *    -5.5074 *  0.0000     2          
   420  Na    c     13.2177 *     5.5074 *    -1.1015 *  0.0000     2          
   421  Na    c      8.8118 *    -9.9133 *     5.5074 *  0.0000     2          
   422  Na    c     13.2177 *    -1.1015 *     5.5074 *  0.0000     2          
   423  Na    c     13.2177 *    -5.5074 *     1.1015 *  0.0000     2          
   424  Cl    c      2.2030 *    -1.1015 *   -14.3192 *  0.0000     2          
   425  Cl    c      2.2030 *   -14.3192 *    -1.1015 *  0.0000     2          
   426  Na    c      2.2030 *     1.1015 *    14.3192 *  0.0000     2          
   427  Na    c      2.2030 *    14.3192 *     1.1015 *  0.0000     2          
   428  Cl    c      2.2030 *     7.7103 *    12.1162 *  0.0000     2          
   429  Cl    c      2.2030 *    12.1162 *     7.7103 *  0.0000     2          
   430  Cl    c     11.0148 *     7.7103 *    -5.5074 *  0.0000     2          
   431  Cl    c     11.0148 *    -5.5074 *     7.7103 *  0.0000     2          
   432  Na    c      2.2030 *    -7.7103 *   -12.1162 *  0.0000     2          
   433  Na    c      2.2030 *   -12.1162 *    -7.7103 *  0.0000     2          
   434  Na    c     11.0148 *     5.5074 *    -7.7103 *  0.0000     2          
   435  Na    c     11.0148 *    -7.7103 *     5.5074 *  0.0000     2          
   436  O     c      0.0000      14.3192 *    -3.3044 *  0.0000     1          
   437  O     c      0.0000      -3.3044 *    14.3192 *  0.0000     1          
   438  Na    c      0.0000      14.3192 *     3.3044 *  0.0000     1          
   439  Na    c      0.0000      -3.3044 *   -14.3192 *  0.0000     1          
   440  Na    c      0.0000       3.3044 *    14.3192 *  0.0000     1          
   441  Na    c      0.0000     -14.3192 *    -3.3044 *  0.0000     1          
   442  O     c      4.4059 *     9.9133 *     9.9133 *  0.0000     2          
   443  O     c     13.2177 *     5.5074 *    -3.3044 *  0.0000     2          
   444  O     c     13.2177 *    -3.3044 *     5.5074 *  0.0000     2          
   445  Na    c      4.4059 *     9.9133 *    -9.9133 *  0.0000     2          
   446  Na    c     13.2177 *     5.5074 *     3.3044 *  0.0000     2          
   447  Na    c     13.2177 *    -3.3044 *    -5.5074 *  0.0000     2          
   448  Na    c      4.4059 *    -9.9133 *     9.9133 *  0.0000     2          
   449  Na    c     13.2177 *     3.3044 *     5.5074 *  0.0000     2          
   450  Na    c     13.2177 *    -5.5074 *    -3.3044 *  0.0000     2          
   451  Cl    c      2.2030 *   -14.3192 *     3.3044 *  0.0000     2          
   452  Na    c      2.2030 *    14.3192 *    -3.3044 *  0.0000     2          
   453  Cl    c      2.2030 *     3.3044 *   -14.3192 *  0.0000     2          
   454  Cl    c      6.6089 *    -5.5074 *    12.1162 *  0.0000     2          
   455  Cl    c     11.0148 *    -1.1015 *    -9.9133 *  0.0000     2          
   456  Na    c      2.2030 *    -3.3044 *    14.3192 *  0.0000     2          
   457  Na    c      6.6089 *     5.5074 *   -12.1162 *  0.0000     2          
   458  Na    c     11.0148 *     1.1015 *     9.9133 *  0.0000     2          
   459  Cl    c      6.6089 *    12.1162 *    -5.5074 *  0.0000     2          
   460  Cl    c     11.0148 *    -9.9133 *    -1.1015 *  0.0000     2          
   461  Na    c      6.6089 *   -12.1162 *     5.5074 *  0.0000     2          
   462  Na    c     11.0148 *     9.9133 *     1.1015 *  0.0000     2          
   463  O     c      4.4059 *     1.1015 *    14.3192 *  0.0000     2          
   464  O     c      4.4059 *    14.3192 *     1.1015 *  0.0000     2          
   465  Na    c      4.4059 *     1.1015 *   -14.3192 *  0.0000     2          
   466  Na    c      4.4059 *    14.3192 *    -1.1015 *  0.0000     2          
   467  Na    c      4.4059 *    -1.1015 *    14.3192 *  0.0000     2          
   468  Na    c      4.4059 *   -14.3192 *     1.1015 *  0.0000     2          
   469  O     c      4.4059 *    -7.7103 *   -12.1162 *  0.0000     2          
   470  O     c      4.4059 *   -12.1162 *    -7.7103 *  0.0000     2          
   471  O     c      8.8118 *     1.1015 *   -12.1162 *  0.0000     2          
   472  O     c      8.8118 *   -12.1162 *     1.1015 *  0.0000     2          
   473  Na    c      4.4059 *    -7.7103 *    12.1162 *  0.0000     2          
   474  Na    c      4.4059 *   -12.1162 *     7.7103 *  0.0000     2          
   475  Na    c      8.8118 *     1.1015 *    12.1162 *  0.0000     2          
   476  Na    c      8.8118 *   -12.1162 *    -1.1015 *  0.0000     2          
   477  Na    c      4.4059 *     7.7103 *   -12.1162 *  0.0000     2          
   478  Na    c      4.4059 *    12.1162 *    -7.7103 *  0.0000     2          
   479  Na    c      8.8118 *    -1.1015 *   -12.1162 *  0.0000     2          
   480  Na    c      8.8118 *    12.1162 *     1.1015 *  0.0000     2          
   481  Cl    c     11.0148 *     3.3044 *    -9.9133 *  0.0000     2          
   482  Cl    c     11.0148 *    -9.9133 *     3.3044 *  0.0000     2          
   483  Na    c     11.0148 *     9.9133 *    -3.3044 *  0.0000     2          
   484  Na    c     11.0148 *    -3.3044 *     9.9133 *  0.0000     2          
   485  O     c      4.4059 *    14.3192 *    -3.3044 *  0.0000     2          
   486  Na    c      4.4059 *    14.3192 *     3.3044 *  0.0000     2          
   487  Na    c      4.4059 *   -14.3192 *    -3.3044 *  0.0000     2          
   488  O     c      0.0000       5.5074 *    14.3192 *  0.0000     1          
   489  O     c      0.0000      14.3192 *     5.5074 *  0.0000     1          
   490  O     c      4.4059 *    -3.3044 *    14.3192 *  0.0000     2          
   491  O     c      8.8118 *     9.9133 *    -7.7103 *  0.0000     2          
   492  O     c      8.8118 *    -3.3044 *   -12.1162 *  0.0000     2          
   493  O     c      8.8118 *   -12.1162 *    -3.3044 *  0.0000     2          
   494  O     c     13.2177 *     1.1015 *    -7.7103 *  0.0000     2          
   495  Na    c      0.0000       5.5074 *   -14.3192 *  0.0000     1          
   496  Na    c      0.0000      14.3192 *    -5.5074 *  0.0000     1          
   497  Na    c      4.4059 *    -3.3044 *   -14.3192 *  0.0000     2          
   498  Na    c      8.8118 *     9.9133 *     7.7103 *  0.0000     2          
   499  Na    c      8.8118 *    -3.3044 *    12.1162 *  0.0000     2          
   500  Na    c      8.8118 *   -12.1162 *     3.3044 *  0.0000     2          
   501  Na    c     13.2177 *     1.1015 *     7.7103 *  0.0000     2          
   502  Na    c      0.0000      -5.5074 *    14.3192 *  0.0000     1          
   503  Na    c      0.0000     -14.3192 *     5.5074 *  0.0000     1          
   504  Na    c      4.4059 *     3.3044 *    14.3192 *  0.0000     2          
   505  Na    c      8.8118 *     3.3044 *   -12.1162 *  0.0000     2          
   506  Na    c      8.8118 *    12.1162 *    -3.3044 *  0.0000     2          
   507  Na    c      8.8118 *    -9.9133 *    -7.7103 *  0.0000     2          
   508  Na    c     13.2177 *    -1.1015 *    -7.7103 *  0.0000     2          
   509  O     c      8.8118 *    -7.7103 *     9.9133 *  0.0000     2          
   510  O     c     13.2177 *     5.5074 *     5.5074 *  0.0000     2          
   511  O     c     13.2177 *    -7.7103 *     1.1015 *  0.0000     2          
   512  Na    c      8.8118 *    -7.7103 *    -9.9133 *  0.0000     2          
   513  Na    c     13.2177 *     5.5074 *    -5.5074 *  0.0000     2          
   514  Na    c     13.2177 *    -7.7103 *    -1.1015 *  0.0000     2          
   515  Na    c      8.8118 *     7.7103 *     9.9133 *  0.0000     2          
   516  Na    c     13.2177 *     7.7103 *     1.1015 *  0.0000     2          
   517  Na    c     13.2177 *    -5.5074 *     5.5074 *  0.0000     2          
   518  Cl    c      2.2030 *    -5.5074 *   -14.3192 *  0.0000     2          
   519  Cl    c      2.2030 *   -14.3192 *    -5.5074 *  0.0000     2          
   520  Na    c      2.2030 *     5.5074 *    14.3192 *  0.0000     2          
   521  Na    c      2.2030 *    14.3192 *     5.5074 *  0.0000     2          
   522  Cl    c      6.6089 *    -9.9133 *    -9.9133 *  0.0000     2          
   523  Cl    c     11.0148 *     7.7103 *     7.7103 *  0.0000     2          
   524  Cl    c     15.4207 *    -1.1015 *    -1.1015 *  0.0000     2          
   525  Na    c      6.6089 *     9.9133 *     9.9133 *  0.0000     2          
   526  Na    c     11.0148 *    -7.7103 *    -7.7103 *  0.0000     2          
   527  Na    c     15.4207 *     1.1015 *     1.1015 *  0.0000     2          
   528  O     c     13.2177 *    -3.3044 *    -7.7103 *  0.0000     2          
   529  Na    c     13.2177 *    -3.3044 *     7.7103 *  0.0000     2          
   530  Na    c     13.2177 *     3.3044 *    -7.7103 *  0.0000     2          
   531  O     c      0.0000       9.9133 *   -12.1162 *  0.0000     1          
   532  O     c      0.0000     -12.1162 *     9.9133 *  0.0000     1          
   533  O     c     13.2177 *    -7.7103 *    -3.3044 *  0.0000     2          
   534  Na    c      0.0000       9.9133 *    12.1162 *  0.0000     1          
   535  Na    c      0.0000     -12.1162 *    -9.9133 *  0.0000     1          
   536  Na    c     13.2177 *    -7.7103 *     3.3044 *  0.0000     2          
   537  Na    c      0.0000      12.1162 *     9.9133 *  0.0000     1          
   538  Na    c      0.0000      -9.9133 *   -12.1162 *  0.0000     1          
   539  Na    c     13.2177 *     7.7103 *    -3.3044 *  0.0000     2          
   540  Cl    c      2.2030 *    12.1162 *    -9.9133 *  0.0000     2          
   541  Cl    c      2.2030 *    -9.9133 *    12.1162 *  0.0000     2          
   542  Cl    c      6.6089 *    -1.1015 *   -14.3192 *  0.0000     2          
   543  Cl    c      6.6089 *     7.7103 *    12.1162 *  0.0000     2          
   544  Cl    c      6.6089 *    12.1162 *     7.7103 *  0.0000     2          
   545  Cl    c      6.6089 *   -14.3192 *    -1.1015 *  0.0000     2          
   546  Cl    c     11.0148 *    -5.5074 *    -9.9133 *  0.0000     2          
   547  Cl    c     15.4207 *    -1.1015 *     3.3044 *  0.0000     2          
   548  Cl    c     15.4207 *     3.3044 *    -1.1015 *  0.0000     2          
   549  Na    c      2.2030 *     9.9133 *   -12.1162 *  0.0000     2          
   550  Na    c      2.2030 *   -12.1162 *     9.9133 *  0.0000     2          
   551  Na    c      6.6089 *     1.1015 *    14.3192 *  0.0000     2          
   552  Na    c      6.6089 *    14.3192 *     1.1015 *  0.0000     2          
   553  Na    c      6.6089 *    -7.7103 *   -12.1162 *  0.0000     2          
   554  Na    c      6.6089 *   -12.1162 *    -7.7103 *  0.0000     2          
   555  Na    c     11.0148 *     5.5074 *     9.9133 *  0.0000     2          
   556  Na    c     15.4207 *     1.1015 *    -3.3044 *  0.0000     2          
   557  Na    c     15.4207 *    -3.3044 *     1.1015 *  0.0000     2          
   558  Cl    c     11.0148 *    -9.9133 *    -5.5074 *  0.0000     2          
   559  Na    c     11.0148 *     9.9133 *     5.5074 *  0.0000     2          
   560  O     c      4.4059 *     5.5074 *    14.3192 *  0.0000     2          
   561  O     c      4.4059 *    14.3192 *     5.5074 *  0.0000     2          
   562  Na    c      4.4059 *     5.5074 *   -14.3192 *  0.0000     2          
   563  Na    c      4.4059 *    14.3192 *    -5.5074 *  0.0000     2          
   564  Na    c      4.4059 *    -5.5074 *    14.3192 *  0.0000     2          
   565  Na    c      4.4059 *   -14.3192 *     5.5074 *  0.0000     2          
   566  O     c      8.8118 *     5.5074 *   -12.1162 *  0.0000     2          
   567  O     c      8.8118 *   -12.1162 *     5.5074 *  0.0000     2          
   568  Na    c      8.8118 *     5.5074 *    12.1162 *  0.0000     2          
   569  Na    c      8.8118 *   -12.1162 *    -5.5074 *  0.0000     2          
   570  Na    c      8.8118 *    12.1162 *     5.5074 *  0.0000     2          
   571  Na    c      8.8118 *    -5.5074 *   -12.1162 *  0.0000     2          
   572  Cl    c      6.6089 *     3.3044 *   -14.3192 *  0.0000     2          
   573  Cl    c      6.6089 *   -14.3192 *     3.3044 *  0.0000     2          
   574  Cl    c     15.4207 *     3.3044 *     3.3044 *  0.0000     2          
   575  Na    c      6.6089 *    14.3192 *    -3.3044 *  0.0000     2          
   576  Na    c      6.6089 *    -3.3044 *    14.3192 *  0.0000     2          
   577  Na    c     15.4207 *    -3.3044 *    -3.3044 *  0.0000     2          
   578  O     c      0.0000      14.3192 *    -7.7103 *  0.0000     1          
   579  O     c      0.0000      -7.7103 *    14.3192 *  0.0000     1          
   580  O     c      4.4059 *     9.9133 *   -12.1162 *  0.0000     2          
   581  O     c      4.4059 *   -12.1162 *     9.9133 *  0.0000     2          
   582  O     c     13.2177 *     5.5074 *    -7.7103 *  0.0000     2          
   583  O     c     13.2177 *    -7.7103 *     5.5074 *  0.0000     2          
   584  Na    c      0.0000      14.3192 *     7.7103 *  0.0000     1          
   585  Na    c      0.0000      -7.7103 *   -14.3192 *  0.0000     1          
   586  Na    c      4.4059 *     9.9133 *    12.1162 *  0.0000     2          
   587  Na    c      4.4059 *   -12.1162 *    -9.9133 *  0.0000     2          
   588  Na    c     13.2177 *     5.5074 *     7.7103 *  0.0000     2          
   589  Na    c     13.2177 *    -7.7103 *    -5.5074 *  0.0000     2          
   590  Na    c      0.0000       7.7103 *    14.3192 *  0.0000     1          
   591  Na    c      0.0000     -14.3192 *    -7.7103 *  0.0000     1          
   592  Na    c      4.4059 *    12.1162 *     9.9133 *  0.0000     2          
   593  Na    c      4.4059 *    -9.9133 *   -12.1162 *  0.0000     2          
   594  Na    c     13.2177 *     7.7103 *     5.5074 *  0.0000     2          
   595  Na    c     13.2177 *    -5.5074 *    -7.7103 *  0.0000     2          
   596  Cl    c      2.2030 *   -14.3192 *     7.7103 *  0.0000     2          
   597  Cl    c     11.0148 *    12.1162 *    -1.1015 *  0.0000     2          
   598  Cl    c     15.4207 *    -5.5074 *    -1.1015 *  0.0000     2          
   599  Na    c      2.2030 *    14.3192 *    -7.7103 *  0.0000     2          
   600  Na    c     11.0148 *   -12.1162 *     1.1015 *  0.0000     2          
   601  Na    c     15.4207 *     5.5074 *     1.1015 *  0.0000     2          
   602  Cl    c      2.2030 *     7.7103 *   -14.3192 *  0.0000     2          
   603  Cl    c     11.0148 *    -1.1015 *    12.1162 *  0.0000     2          
   604  Cl    c     15.4207 *    -1.1015 *    -5.5074 *  0.0000     2          
   605  Na    c      2.2030 *    -7.7103 *    14.3192 *  0.0000     2          
   606  Na    c     11.0148 *     1.1015 *   -12.1162 *  0.0000     2          
   607  Na    c     15.4207 *     1.1015 *     5.5074 *  0.0000     2          
   608  O     c      0.0000       1.1015 *   -16.5221 *  0.0000     1          
   609  O     c      0.0000     -16.5221 *     1.1015 *  0.0000     1          
   610  Na    c      0.0000       1.1015 *    16.5221 *  0.0000     1          
   611  Na    c      0.0000     -16.5221 *    -1.1015 *  0.0000     1          
   612  Na    c      0.0000      -1.1015 *   -16.5221 *  0.0000     1          
   613  Na    c      0.0000      16.5221 *     1.1015 *  0.0000     1          
   614  O     c     13.2177 *     9.9133 *     1.1015 *  0.0000     2          
   615  Na    c     13.2177 *     9.9133 *    -1.1015 *  0.0000     2          
   616  Na    c     13.2177 *    -9.9133 *     1.1015 *  0.0000     2          
   617  O     c      8.8118 *     9.9133 *     9.9133 *  0.0000     2          
   618  O     c     13.2177 *     1.1015 *     9.9133 *  0.0000     2          
   619  Na    c      8.8118 *     9.9133 *    -9.9133 *  0.0000     2          
   620  Na    c     13.2177 *     1.1015 *    -9.9133 *  0.0000     2          
   621  Na    c      8.8118 *    -9.9133 *     9.9133 *  0.0000     2          
   622  Na    c     13.2177 *    -1.1015 *     9.9133 *  0.0000     2          
   623  Cl    c      2.2030 *    -1.1015 *    16.5221 *  0.0000     2          
   624  Cl    c      2.2030 *    16.5221 *    -1.1015 *  0.0000     2          
   625  Na    c      2.2030 *     1.1015 *   -16.5221 *  0.0000     2          
   626  Na    c      2.2030 *   -16.5221 *     1.1015 *  0.0000     2          
   627  Cl    c      6.6089 *    -5.5074 *   -14.3192 *  0.0000     2          
   628  Cl    c      6.6089 *   -14.3192 *    -5.5074 *  0.0000     2          
   629  Cl    c     11.0148 *     3.3044 *    12.1162 *  0.0000     2          
   630  Cl    c     11.0148 *     7.7103 *    -9.9133 *  0.0000     2          
   631  Cl    c     11.0148 *    12.1162 *     3.3044 *  0.0000     2          
   632  Cl    c     11.0148 *    -9.9133 *     7.7103 *  0.0000     2          
   633  Cl    c     15.4207 *     3.3044 *    -5.5074 *  0.0000     2          
   634  Cl    c     15.4207 *    -5.5074 *     3.3044 *  0.0000     2          
   635  Na    c      6.6089 *     5.5074 *    14.3192 *  0.0000     2          
   636  Na    c      6.6089 *    14.3192 *     5.5074 *  0.0000     2          
   637  Na    c     11.0148 *     9.9133 *    -7.7103 *  0.0000     2          
   638  Na    c     11.0148 *    -3.3044 *   -12.1162 *  0.0000     2          
   639  Na    c     11.0148 *    -7.7103 *     9.9133 *  0.0000     2          
   640  Na    c     11.0148 *   -12.1162 *    -3.3044 *  0.0000     2          
   641  Na    c     15.4207 *     5.5074 *    -3.3044 *  0.0000     2          
   642  Na    c     15.4207 *    -3.3044 *     5.5074 *  0.0000     2          
   643  O     c      0.0000      -3.3044 *   -16.5221 *  0.0000     1          
   644  O     c      0.0000     -16.5221 *    -3.3044 *  0.0000     1          
   645  O     c      4.4059 *    14.3192 *    -7.7103 *  0.0000     2          
   646  O     c      4.4059 *    -7.7103 *    14.3192 *  0.0000     2          
   647  O     c      8.8118 *     1.1015 *    14.3192 *  0.0000     2          
   648  O     c      8.8118 *    14.3192 *     1.1015 *  0.0000     2          
   649  O     c     13.2177 *    -3.3044 *     9.9133 *  0.0000     2          
   650  Na    c      0.0000      -3.3044 *    16.5221 *  0.0000     1          
   651  Na    c      0.0000     -16.5221 *     3.3044 *  0.0000     1          
   652  Na    c      4.4059 *    14.3192 *     7.7103 *  0.0000     2          
   653  Na    c      4.4059 *    -7.7103 *   -14.3192 *  0.0000     2          
   654  Na    c      8.8118 *     1.1015 *   -14.3192 *  0.0000     2          
[...]
   1421 y          4.405902      4.404588    -0.001315    Cartesian   -0.03
   1421 z         -8.811805     -8.809749     0.002056    Cartesian   -0.02
   1422 x         17.623609     17.618667    -0.004943    Cartesian   -0.03
   1422 y         -8.811805     -8.808120     0.003685    Cartesian   -0.04
   1422 z          4.405902      4.404582    -0.001320    Cartesian   -0.03
   1423 x         11.014756     11.015299     0.000543    Cartesian    0.00
   1423 y        -15.420658    -15.420192     0.000466    Cartesian   -0.00
   1423 z          2.202951      2.202677    -0.000274    Cartesian   -0.01
   1424 x          6.608853      6.609497     0.000644    Cartesian    0.01
   1424 y         -6.608853     -6.610477    -0.001624    Cartesian    0.02
   1424 z        -15.420658    -15.421227    -0.000569    Cartesian    0.00
   1425 x          6.608853      6.609326     0.000472    Cartesian    0.01
   1425 y        -15.420658    -15.420837    -0.000179    Cartesian    0.00
   1425 z         -6.608853     -6.608762     0.000092    Cartesian   -0.00
   1426 x         11.014756     11.013620    -0.001136    Cartesian   -0.01
   1426 y          2.202951      2.203017     0.000066    Cartesian    0.00
   1426 z        -15.420658    -15.422393    -0.001735    Cartesian    0.01
   1427 x          2.202951      2.202951     0.000000    Cartesian    0.00
   1427 y          2.202951      2.202796    -0.000155    Cartesian   -0.01
   1427 z         19.826560     19.829587     0.003026    Cartesian    0.02
   1428 x          2.202951      2.202951     0.000000    Cartesian    0.00
   1428 y         15.420658     15.418834    -0.001824    Cartesian   -0.01
   1428 z        -11.014756    -11.015507    -0.000751    Cartesian    0.01
   1429 x          2.202951      2.202951     0.000000    Cartesian    0.00
   1429 y         19.826560     19.825537    -0.001023    Cartesian   -0.01
   1429 z          2.202951      2.198951    -0.004001    Cartesian   -0.18
   1430 x          2.202951      2.202951     0.000000    Cartesian    0.00
   1430 y        -11.014756    -11.016657    -0.001901    Cartesian    0.02
   1430 z         15.420658     15.418615    -0.002043    Cartesian   -0.01
   1431 x         15.420658     15.420667     0.000009    Cartesian    0.00
   1431 y          6.608853      6.609930     0.001076    Cartesian    0.02
   1431 z        -11.014756    -11.013546     0.001209    Cartesian   -0.01
   1432 x         15.420658     15.419852    -0.000806    Cartesian   -0.01
   1432 y        -11.014756    -11.013971     0.000785    Cartesian   -0.01
   1432 z          6.608853      6.608373    -0.000480    Cartesian   -0.01
   1433 x         19.826560     19.826160    -0.000401    Cartesian   -0.00
   1433 y          6.608853      6.609167     0.000313    Cartesian    0.00
   1433 z         -2.202951     -2.203720    -0.000769    Cartesian    0.03
   1434 x         19.826560     19.826606     0.000046    Cartesian    0.00
   1434 y         -2.202951     -2.203327    -0.000376    Cartesian    0.02
   1434 z          6.608853      6.608404    -0.000449    Cartesian   -0.01
   1435 x          4.405902      4.402378    -0.003524    Cartesian   -0.08
   1435 y         13.217707     13.215329    -0.002378    Cartesian   -0.02
   1435 z        -13.217707    -13.213474     0.004233    Cartesian   -0.03
   1436 x          4.405902      4.404704    -0.001198    Cartesian   -0.03
   1436 y        -13.217707    -13.212937     0.004770    Cartesian   -0.04
   1436 z         13.217707     13.214515    -0.003192    Cartesian   -0.02
   1437 x         13.217707     13.213665    -0.004042    Cartesian   -0.03
   1437 y         -4.405902     -4.403297     0.002605    Cartesian   -0.06
   1437 z        -13.217707    -13.213271     0.004436    Cartesian   -0.03
   1438 x         13.217707     13.214011    -0.003696    Cartesian   -0.03
   1438 y        -13.217707    -13.211513     0.006194    Cartesian   -0.05
   1438 z         -4.405902     -4.404684     0.001218    Cartesian   -0.03
   1439 x         17.623609     17.617377    -0.006232    Cartesian   -0.04
   1439 y          8.811805      8.809661    -0.002144    Cartesian   -0.02
   1439 z          8.811805      8.808453    -0.003352    Cartesian   -0.04
   1440 x          4.405902      4.405654    -0.000248    Cartesian   -0.01
   1440 y          0.000000     -0.000029    -0.000029    Cartesian    0.00
   1440 z        -17.623609    -17.619090     0.004519    Cartesian   -0.03
   1441 x          4.405902      4.406031     0.000129    Cartesian    0.00
   1441 y        -17.623609    -17.614610     0.008999    Cartesian   -0.05
   1441 z          0.000000     -0.000255    -0.000255    Cartesian    0.00
   1442 x         11.014756     11.014849     0.000093    Cartesian    0.00
   1442 y         -2.202951     -2.203621    -0.000670    Cartesian    0.03
   1442 z        -15.420658    -15.420225     0.000433    Cartesian   -0.00
   1443 x         11.014756     11.014385    -0.000370    Cartesian   -0.00
   1443 y        -15.420658    -15.419612     0.001046    Cartesian   -0.01
   1443 z         -2.202951     -2.202567     0.000384    Cartesian   -0.02
   1444 x          2.202951      2.202951     0.000000    Cartesian    0.00
   1444 y         19.826560     19.826018    -0.000542    Cartesian   -0.00
   1444 z         -2.202951     -2.198651     0.004300    Cartesian   -0.20
   1445 x          2.202951      2.202951     0.000000    Cartesian    0.00
   1445 y         -2.202951     -2.202532     0.000419    Cartesian   -0.02
   1445 z         19.826560     19.828315     0.001755    Cartesian    0.01
   1446 x         13.217707     13.213168    -0.004539    Cartesian   -0.03
   1446 y         13.217707     13.213730    -0.003977    Cartesian   -0.03
   1446 z         -8.811805     -8.808289     0.003515    Cartesian   -0.04
   1447 x         17.623609     17.616932    -0.006677    Cartesian   -0.04
   1447 y         -4.405902     -4.403281     0.002622    Cartesian   -0.06
   1447 z         -8.811805     -8.808627     0.003177    Cartesian   -0.04
   1448 x         17.623609     17.617166    -0.006444    Cartesian   -0.04
   1448 y         -8.811805     -8.807212     0.004592    Cartesian   -0.05
   1448 z         -4.405902     -4.404636     0.001266    Cartesian   -0.03
   1449 x          4.405902      4.406365     0.000463    Cartesian    0.01
   1449 y          4.405902      4.406170     0.000268    Cartesian    0.01
   1449 z        -17.623609    -17.616861     0.006749    Cartesian   -0.04
   1450 x         13.217707     13.214757    -0.002950    Cartesian   -0.02
   1450 y         -8.811805     -8.808602     0.003202    Cartesian   -0.04
   1450 z         13.217707     13.213199    -0.004508    Cartesian   -0.03
   1451 x          4.405902      4.403728    -0.002175    Cartesian   -0.05
   1451 y        -17.623609    -17.617439     0.006171    Cartesian   -0.04
   1451 z          4.405902      4.403860    -0.002042    Cartesian   -0.05
   1452 x          2.202951      2.202951     0.000000    Cartesian    0.00
   1452 y         11.014756     11.013290    -0.001466    Cartesian   -0.01
   1452 z        -15.420658    -15.421452    -0.000794    Cartesian    0.01
   1453 x          2.202951      2.202951     0.000000    Cartesian    0.00
   1453 y        -15.420658    -15.421431    -0.000772    Cartesian    0.01
   1453 z         11.014756     11.011636    -0.003120    Cartesian   -0.03
   1454 x          6.608853      6.609115     0.000261    Cartesian    0.00
   1454 y         15.420658     15.420437    -0.000221    Cartesian   -0.00
   1454 z        -11.014756    -11.013404     0.001352    Cartesian   -0.01
   1455 x          6.608853      6.608872     0.000019    Cartesian    0.00
   1455 y        -11.014756    -11.014178     0.000578    Cartesian   -0.01
   1455 z         15.420658     15.419751    -0.000908    Cartesian   -0.01
   1456 x         11.014756     11.013104    -0.001652    Cartesian   -0.01
   1456 y        -11.014756    -11.012907     0.001849    Cartesian   -0.02
   1456 z        -11.014756    -11.013308     0.001448    Cartesian   -0.01
   1457 x         15.420658     15.418569    -0.002089    Cartesian   -0.01
   1457 y         11.014756     11.012819    -0.001937    Cartesian   -0.02
   1457 z         11.014756     11.013856    -0.000899    Cartesian   -0.01
   1458 x         19.826560     19.823815    -0.002745    Cartesian   -0.01
   1458 y          2.202951      2.203264     0.000313    Cartesian    0.01
   1458 z         -6.608853     -6.609858    -0.001004    Cartesian    0.02
   1459 x         19.826560     19.825232    -0.001329    Cartesian   -0.01
   1459 y          6.608853      6.608132    -0.000722    Cartesian   -0.01
   1459 z          6.608853      6.607297    -0.001557    Cartesian   -0.02
   1460 x         19.826560     19.825472    -0.001088    Cartesian   -0.01
   1460 y         -6.608853     -6.607913     0.000940    Cartesian   -0.01
   1460 z          2.202951      2.202514    -0.000437    Cartesian   -0.02
   1461 x          6.608853      6.608543    -0.000311    Cartesian   -0.00
   1461 y          2.202951      2.202674    -0.000278    Cartesian   -0.01
   1461 z         19.826560     19.828419     0.001859    Cartesian    0.01
   1462 x          6.608853      6.609050     0.000197    Cartesian    0.00
   1462 y         19.826560     19.826146    -0.000414    Cartesian   -0.00
   1462 z          2.202951      2.204115     0.001164    Cartesian    0.05
   1463 x          4.405902      4.405537    -0.000366    Cartesian   -0.01
   1463 y         -8.811805     -8.808092     0.003713    Cartesian   -0.04
   1463 z         17.623609     17.617640    -0.005970    Cartesian   -0.03
   1464 x          8.811805      8.809989    -0.001815    Cartesian   -0.02
   1464 y          8.811805      8.810333    -0.001471    Cartesian   -0.02
   1464 z         17.623609     17.616877    -0.006733    Cartesian   -0.04
   1465 x          8.811805      8.809585    -0.002219    Cartesian   -0.03
   1465 y         17.623609     17.615910    -0.007699    Cartesian   -0.04
   1465 z          8.811805      8.808515    -0.003289    Cartesian   -0.04
   1466 x          4.405902      4.404747    -0.001155    Cartesian   -0.03
   1466 y         17.623609     17.616511    -0.007098    Cartesian   -0.04
   1466 z         -8.811805     -8.806851     0.004953    Cartesian   -0.06
   1467 x         11.014756     11.013519    -0.001236    Cartesian   -0.01
   1467 y        -15.420658    -15.418572     0.002086    Cartesian   -0.01
   1467 z          6.608853      6.608074    -0.000780    Cartesian   -0.01
   1468 x         11.014756     11.014257    -0.000499    Cartesian   -0.00
   1468 y          6.608853      6.607955    -0.000898    Cartesian   -0.01
   1468 z        -15.420658    -15.419044     0.001614    Cartesian   -0.01
   1469 x         15.420658     15.419703    -0.000955    Cartesian   -0.01
   1469 y         15.420658     15.419668    -0.000990    Cartesian   -0.01
   1469 z          2.202951      2.201651    -0.001300    Cartesian   -0.06
   1470 x          2.202951      2.202951     0.000000    Cartesian    0.00
   1470 y          6.608853      6.607663    -0.001190    Cartesian   -0.02
   1470 z         19.826560     19.827803     0.001242    Cartesian    0.01
   1471 x          2.202951      2.202951     0.000000    Cartesian    0.00
   1471 y         19.826560     19.824123    -0.002438    Cartesian   -0.01
   1471 z          6.608853      6.610231     0.001377    Cartesian    0.02
   1472 x          6.608853      6.608220    -0.000634    Cartesian   -0.01
   1472 y         -2.202951     -2.202025     0.000926    Cartesian   -0.04
   1472 z         19.826560     19.825882    -0.000679    Cartesian   -0.00
   1473 x         11.014756     11.013277    -0.001478    Cartesian   -0.01
   1473 y         11.014756     11.013466    -0.001289    Cartesian   -0.01
   1473 z         15.420658     15.419017    -0.001641    Cartesian   -0.01
   1474 x         11.014756     11.013136    -0.001619    Cartesian   -0.01
   1474 y         15.420658     15.418770    -0.001888    Cartesian   -0.01
   1474 z         11.014756     11.013292    -0.001464    Cartesian   -0.01
   1475 x         15.420658     15.422167     0.001509    Cartesian    0.01
   1475 y          2.202951      2.203952     0.001001    Cartesian    0.05
   1475 z         15.420658     15.419172    -0.001486    Cartesian   -0.01
   1476 x         15.420658     15.418602    -0.002056    Cartesian   -0.01
   1476 y         -6.608853     -6.607597     0.001256    Cartesian   -0.02
   1476 z        -11.014756    -11.012915     0.001841    Cartesian   -0.02
   1477 x         15.420658     15.418489    -0.002169    Cartesian   -0.01
   1477 y        -11.014756    -11.013179     0.001577    Cartesian   -0.01
   1477 z         -6.608853     -6.607328     0.001526    Cartesian   -0.02
   1478 x         19.826560     19.825030    -0.001531    Cartesian   -0.01
   1478 y         -2.202951     -2.201909     0.001042    Cartesian   -0.05
   1478 z         -6.608853     -6.607010     0.001843    Cartesian   -0.03
   1479 x         19.826560     19.824607    -0.001953    Cartesian   -0.01
   1479 y         -6.608853     -6.607665     0.001188    Cartesian   -0.02
   1479 z         -2.202951     -2.201725     0.001226    Cartesian   -0.06
   1480 x          6.608853      6.607754    -0.001099    Cartesian   -0.02
   1480 y         19.826560     19.823906    -0.002654    Cartesian   -0.01
   1480 z         -2.202951     -2.202753     0.000198    Cartesian   -0.01
   1481 x         13.217707     13.213694    -0.004013    Cartesian   -0.03
   1481 y          8.811805      8.809320    -0.002485    Cartesian   -0.03
   1481 z        -13.217707    -13.210917     0.006789    Cartesian   -0.05
   1482 x         13.217707     13.213271    -0.004436    Cartesian   -0.03
   1482 y        -13.217707    -13.210849     0.006858    Cartesian   -0.05
   1482 z          8.811805      8.808396    -0.003409    Cartesian   -0.04
   1483 x         17.623609     17.615845    -0.007765    Cartesian   -0.04
   1483 y         13.217707     13.212981    -0.004726    Cartesian   -0.04
   1483 z          0.000000      0.000367     0.000367    Cartesian    0.00
   1484 x          4.405902      4.404147    -0.001755    Cartesian   -0.04
   1484 y         -4.405902     -4.403928     0.001974    Cartesian   -0.04
   1484 z        -17.623609    -17.616215     0.007395    Cartesian   -0.04
   1485 x          4.405902      4.405316    -0.000586    Cartesian   -0.01
   1485 y        -17.623609    -17.615857     0.007752    Cartesian   -0.04
   1485 z         -4.405902     -4.403967     0.001935    Cartesian   -0.04
   1486 x         17.623609     17.615884    -0.007725    Cartesian   -0.04
   1486 y          0.000000      0.001182     0.001182    Cartesian    0.00
   1486 z         13.217707     13.213501    -0.004206    Cartesian   -0.03
   1487 x          6.608853      6.607973    -0.000880    Cartesian   -0.01
   1487 y         11.014756     11.014151    -0.000605    Cartesian   -0.01
   1487 z        -15.420658    -15.418754     0.001904    Cartesian   -0.01
   1488 x          6.608853      6.607809    -0.001045    Cartesian   -0.02
   1488 y        -15.420658    -15.418428     0.002230    Cartesian   -0.01
   1488 z         11.014756     11.013726    -0.001030    Cartesian   -0.01
   1489 x         15.420658     15.419095    -0.001563    Cartesian   -0.01
   1489 y         -2.202951     -2.202341     0.000610    Cartesian   -0.03
   1489 z         15.420658     15.419044    -0.001614    Cartesian   -0.01
   1490 x         15.420658     15.419026    -0.001632    Cartesian   -0.01
   1490 y         15.420658     15.419090    -0.001568    Cartesian   -0.01
   1490 z         -2.202951     -2.201080     0.001871    Cartesian   -0.08
   1491 x         13.217707     13.212749    -0.004958    Cartesian   -0.04
   1491 y         17.623609     17.615092    -0.008517    Cartesian   -0.05
   1491 z          0.000000     -0.000107    -0.000107    Cartesian    0.00
   1492 x          8.811805      8.808383    -0.003422    Cartesian   -0.04
   1492 y         13.217707     13.212994    -0.004713    Cartesian   -0.04
   1492 z        -13.217707    -13.210793     0.006914    Cartesian   -0.05
   1493 x          8.811805      8.809050    -0.002754    Cartesian   -0.03
   1493 y        -13.217707    -13.211357     0.006350    Cartesian   -0.05
   1493 z         13.217707     13.212653    -0.005054    Cartesian   -0.04
   1494 x         13.217707     13.212920    -0.004787    Cartesian   -0.04
   1494 y          0.000000      0.000367     0.000367    Cartesian    0.00
   1494 z         17.623609     17.616573    -0.007036    Cartesian   -0.04
   1495 x         17.623609     17.615503    -0.008106    Cartesian   -0.05
   1495 y          4.405902      4.405265    -0.000637    Cartesian   -0.01
   1495 z         13.217707     13.213267    -0.004440    Cartesian   -0.03
   1496 x         17.623609     17.614516    -0.009094    Cartesian   -0.05
   1496 y          8.811805      8.809168    -0.002636    Cartesian   -0.03
   1496 z         -8.811805     -8.808105     0.003700    Cartesian   -0.04
   1497 x         17.623609     17.616088    -0.007521    Cartesian   -0.04
   1497 y         -8.811805     -8.807853     0.003951    Cartesian   -0.04
   1497 z          8.811805      8.808197    -0.003608    Cartesian   -0.04
   1498 x         22.029512     22.016887    -0.012625    Cartesian   -0.06
   1498 y          0.000000      0.002299     0.002299    Cartesian    0.00
   1498 z          0.000000     -0.000109    -0.000109    Cartesian    0.00
   1499 x          8.811805      8.809297    -0.002508    Cartesian   -0.03
   1499 y          0.000000      0.001514     0.001514    Cartesian    0.00
   1499 z        -17.623609    -17.615230     0.008379    Cartesian   -0.05
   1500 x          8.811805      8.809331    -0.002473    Cartesian   -0.03
   1500 y        -17.623609    -17.613855     0.009754    Cartesian   -0.06
   1500 z          0.000000      0.000071     0.000071    Cartesian    0.00
   1501 x         17.623609     17.615406    -0.008203    Cartesian   -0.05
   1501 y         13.217707     13.212347    -0.005360    Cartesian   -0.04
   1501 z          4.405902      4.403821    -0.002081    Cartesian   -0.05
--------------------------------------------------------------------------------


  Time to end of optimisation  =      422.8916 seconds


  Peak dynamic memory used =    1700.44 MB 


  Timing analysis for GULP :

--------------------------------------------------------------------------------
  Task / Subroutine                                          Time (Seconds)
--------------------------------------------------------------------------------
  Calculation of reciprocal space energy and derivatives          0.0006
  Calculation of reciprocal space energy using symmetry           0.0010
  Calculation of real space energy and derivatives                0.0034
  Calculation of real space energy using symmetry                 0.0108
  Calculation for region 1 energy and derivatives (2-b)         216.8711
  Calculation for region 2a energy                               83.6857
  Calculation for region 2b energy                                0.0058
  Calculation and manipulation of Hessian matrix                  2.5474
  Calculation of matrix inversion                               116.6028
  Symmetry generation of equivalent positions                     0.0044
--------------------------------------------------------------------------------
  Total CPU time                                                422.8916
--------------------------------------------------------------------------------


  Dump file written as Na3OCl.grs


  Job Finished at 14:08.32  3rd February   2021                               

