********************************************************************************
*                       GENERAL UTILITY LATTICE PROGRAM                        *
*                                 Julian Gale                                  *
*                       Curtin Institute for Computation                       *
*                    School of Molecular and Life Sciences                     *
*                    Curtin University, Western Australia                      *
********************************************************************************
* Version = 5.2.0 * Last modified =  10th September 2020                       *
********************************************************************************
*  optimise     - perform optimisation run                                     *
*  conp         - constant pressure calculation                                *
*  property     - calculate properties for final geometry                      *
*  defect       - perform defect calculation after bulk run                    *
*  compare      - compare initial and final structures                         *
********************************************************************************

  Job Started  at 14:10.28  3rd December   2020                               

  Number of CPUs =     1


  Total number of configurations input =      1

********************************************************************************
*  Input for Configuration =   1                                               *
********************************************************************************

  Formula = MgCl2                                                       

  Number of irreducible atoms/shells =       4


  Total number atoms/shells =       6

  Dimensionality = 3               :  Bulk   


  Symmetry :

  Crystal family                   :  Hexagonal   
  Crystal class  (Groth - 1921)    :  Ditrigonal Scalenohedral             

  Space group (centrosymmetric)    :  R -3 M          

  Patterson group                  :  R -3 m   

  Cartesian lattice vectors (Angstroms) :

        1.837965    1.061150    6.573995
       -1.837965    1.061150    6.573995
        0.000000   -2.122299    6.573995

  Primitive cell parameters :            Full cell parameters :

  a =   6.9081    alpha =  30.8599       a =   3.6759    alpha =  90.0000
  b =   6.9081    beta  =  30.8599       b =   3.6759    beta  =  90.0000
  c =   6.9081    gamma =  30.8599       c =  19.7220    gamma = 120.0000

  Initial volumes (Angstroms**3):

  Primitive cell =          76.929792    Full cell =         230.789375

  Temperature of configuration =   0.00     K 

  Pressure of configuration =         0.000 GPa 

  Fractional coordinates of asymmetric unit :

--------------------------------------------------------------------------------
   No.  Atomic       x           y          z         Charge      Occupancy
        Label      (Frac)      (Frac)     (Frac)        (e)         (Frac)  
--------------------------------------------------------------------------------
      1 Mg    c    0.000000    0.000000    0.000000     0.41500    1.000000    
      2 Cl    c    0.666667    0.333333    0.069629 *   1.48500    1.000000    
      3 Mg    s    0.000000    0.000000    0.000000     1.58500    1.000000    
      4 Cl    s    0.666667    0.333333    0.069629 *  -2.48500    1.000000    
--------------------------------------------------------------------------------


  Constraints : 

--------------------------------------------------------------------------------
  Constraint no.      Unconstrained     Constrained    Coefficient    Offset
                         Variable         Variable
--------------------------------------------------------------------------------
           1              Strain 1        Strain 2       1.00000      0.0000
--------------------------------------------------------------------------------


********************************************************************************
*  General input information                                                   *
********************************************************************************

  Species output for all configurations : 

--------------------------------------------------------------------------------
  Species    Type    Atomic    Atomic    Charge       Radii (Angs)     Library
                     Number     Mass       (e)     Cova   Ionic  VDW   Symbol
--------------------------------------------------------------------------------
    Na       Core       11      22.99   1.000000   0.970  0.000  0.000          
    O        Core        8      16.00   0.183000   0.730  0.000  0.000          
    O        Shell       8       0.00  -2.183000   0.730  0.000  0.000          
    Cl       Core       17      35.45   1.485000   0.990  0.000  1.650          
    Cl       Shell      17       0.00  -2.485000   0.990  0.000  0.000          
    Mg       Core       12      24.31   0.415000   1.100  0.000  1.640          
    Mg       Shell      12       0.00   1.585000   1.100  0.000  0.000          
    Ca       Core       20      40.08  -1.135000   0.990  0.000  0.000          
    Ca       Shell      20       0.00   3.135000   0.990  0.000  0.000          
    Sr       Core       38      87.62  -1.251000   1.120  0.000  0.000          
    Sr       Shell      38       0.00   3.251000   1.120  0.000  0.000          
    Ba       Core       56     137.33  -7.203000   1.340  0.000  0.000          
    Ba       Shell      56       0.00   9.203000   1.340  0.000  0.000          
--------------------------------------------------------------------------------


  Lattice summation method               =    Ewald          (3-D)
                                         =    Parry          (2-D)
                                         =    Saunders et al (1-D)
  Accuracy factor for lattice sums       =   12.000


  Analytic derivatives to be used

  Time limit = Infinity

  Maximum range for interatomic potentials =    100000.000000 Angstroms

  General interatomic potentials :

--------------------------------------------------------------------------------
Atom  Types   Potential      Parameter       Value         Units   Cutoffs(Ang)
  1     2                                                            Min /  Max 
--------------------------------------------------------------------------------
O    c O    s Spring (c-s)  Spring k 2       593.71600    eV*Ang^-2 0.000  0.800
                            Spring k 4       0.0000000    eV*Ang^-4 
--------------------------------------------------------------------------------
Cl   c Cl   s Spring (c-s)  Spring k 2       29.380000    eV*Ang^-2 0.000  0.800
                            Spring k 4       0.0000000    eV*Ang^-4 
--------------------------------------------------------------------------------
Mg   c Mg   s Spring (c-s)  Spring k 2       361.60000    eV*Ang^-2 0.000  0.800
                            Spring k 4       0.0000000    eV*Ang^-4 
--------------------------------------------------------------------------------
Ca   c Ca   s Spring (c-s)  Spring k 2       110.20000    eV*Ang^-2 0.000  0.800
                            Spring k 4       0.0000000    eV*Ang^-4 
--------------------------------------------------------------------------------
Sr   c Sr   s Spring (c-s)  Spring k 2       71.700000    eV*Ang^-2 0.000  0.800
                            Spring k 4       0.0000000    eV*Ang^-4 
--------------------------------------------------------------------------------
Ba   c Ba   s Spring (c-s)  Spring k 2       495.20000    eV*Ang^-2 0.000  0.800
                            Spring k 4       0.0000000    eV*Ang^-4 
--------------------------------------------------------------------------------
Na   c Na   c Buckingham    Buckingham A     1788.1900    eV        0.000 12.000
                            Buckingham rho  0.15900000    Ang       
                            Buckingham C     0.0000000    eV*Ang^6  
--------------------------------------------------------------------------------
Na   c O    s Buckingham    Buckingham A     1226.8400    eV        0.000 12.000
                            Buckingham rho  0.30700000    Ang       
                            Buckingham C     0.0000000    eV*Ang^6  
--------------------------------------------------------------------------------
Na   c Cl   s Buckingham    Buckingham A     2314.7000    eV        0.000 12.000
                            Buckingham rho  0.29000000    Ang       
                            Buckingham C     0.0000000    eV*Ang^6  
--------------------------------------------------------------------------------
O    s O    s Buckingham    Buckingham A     22764.300    eV        0.000 12.000
                            Buckingham rho  0.14900000    Ang       
                            Buckingham C     13.190000    eV*Ang^6  
--------------------------------------------------------------------------------
O    s Cl   s Buckingham    Buckingham A     8286.9100    eV        0.000 12.000
                            Buckingham rho  0.25900000    Ang       
                            Buckingham C     62.200000    eV*Ang^6  
--------------------------------------------------------------------------------
Cl   s Cl   s Buckingham    Buckingham A     1227.2000    eV        0.000 12.000
                            Buckingham rho  0.32100000    Ang       
                            Buckingham C     14.530000    eV*Ang^6  
--------------------------------------------------------------------------------
O    s Mg   s Buckingham    Buckingham A     1428.5000    eV        0.000 12.000
                            Buckingham rho  0.29450000    Ang       
                            Buckingham C     0.0000000    eV*Ang^6  
--------------------------------------------------------------------------------
Mg   s Cl   s Buckingham    Buckingham A     4914.5400    eV        0.000 12.000
                            Buckingham rho  0.25700000    Ang       
                            Buckingham C     0.0000000    eV*Ang^6  
--------------------------------------------------------------------------------
O    s Ca   s Buckingham    Buckingham A     1090.4000    eV        0.000 12.000
                            Buckingham rho  0.34370000    Ang       
                            Buckingham C     0.0000000    eV*Ang^6  
--------------------------------------------------------------------------------
Cl   s Ca   s Buckingham    Buckingham A     2302.0000    eV        0.000 12.000
                            Buckingham rho  0.34020000    Ang       
                            Buckingham C     0.0000000    eV*Ang^6  
--------------------------------------------------------------------------------
O    s Sr   s Buckingham    Buckingham A     959.10000    eV        0.000 12.000
                            Buckingham rho  0.37210000    Ang       
                            Buckingham C     0.0000000    eV*Ang^6  
--------------------------------------------------------------------------------
Cl   s Sr   s Buckingham    Buckingham A     2191.0900    eV        0.000 12.000
                            Buckingham rho  0.34570000    Ang       
                            Buckingham C     0.0000000    eV*Ang^6  
--------------------------------------------------------------------------------
O    s Ba   s Buckingham    Buckingham A     905.70000    eV        0.000 12.000
                            Buckingham rho  0.39760000    Ang       
                            Buckingham C     0.0000000    eV*Ang^6  
--------------------------------------------------------------------------------
Cl   s Ba   s Buckingham    Buckingham A     2704.5500    eV        0.000 12.000
                            Buckingham rho  0.35280000    Ang       
                            Buckingham C     0.0000000    eV*Ang^6  
--------------------------------------------------------------------------------

********************************************************************************
*  Output for configuration   1                                                *
********************************************************************************


  Components of energy : 

--------------------------------------------------------------------------------
  Interatomic potentials     =           1.65791742 eV    
  Monopole - monopole (real) =          -4.72687612 eV    
  Monopole - monopole (recip)=         -20.86322101 eV    
  Monopole - monopole (total)=         -25.59009712 eV    
--------------------------------------------------------------------------------
  Total lattice energy : 
    Primitive unit cell      =         -23.93217970 eV    
    Non-primitive unit cell  =         -71.79653910 eV    
--------------------------------------------------------------------------------
  Total lattice energy (in kJmol-1): 
    Primitive unit cell      =           -2309.0895 kJ/(mole unit cells)
    Non-primitive unit cell  =           -6927.2685 kJ/(mole unit cells)
--------------------------------------------------------------------------------


  Number of variables =        4

  Maximum number of calculations  =          1000
  Maximum Hessian update interval =            10
  Maximum step size               =   1.000000000
  Maximum parameter tolerance     =   0.000010000
  Maximum function  tolerance     =   0.000010000
  Maximum gradient  tolerance     =   0.001000000
  Maximum gradient  component     =   0.010000000

  Symmetry constrained optimisation

  Symmetry used for second derivatives

  Cell parameters to be optimised using strains

  Newton-Raphson optimiser to be used

  BFGS hessian update to be used

  Lower half triangular hessian to be used

  Start of bulk optimisation :

  Cycle:      0 Energy:       -23.932180  Gnorm:    137.171669  CPU:    0.009
  ** Hessian calculated **
  Cycle:      1 Energy:       -26.373828  Gnorm:      4.545232  CPU:    0.016
  Cycle:      2 Energy:       -26.460491  Gnorm:      3.568180  CPU:    0.024
  Cycle:      3 Energy:       -26.520357  Gnorm:      1.461395  CPU:    0.031
  Cycle:      4 Energy:       -26.521136  Gnorm:      0.134906  CPU:    0.036
  Cycle:      5 Energy:       -26.521149  Gnorm:      0.057653  CPU:    0.040
  Cycle:      6 Energy:       -26.521155  Gnorm:      0.062478  CPU:    0.044
  Cycle:      7 Energy:       -26.521167  Gnorm:      0.065037  CPU:    0.050
  Cycle:      8 Energy:       -26.521184  Gnorm:      0.066627  CPU:    0.055
  Cycle:      9 Energy:       -26.521205  Gnorm:      0.066902  CPU:    0.059
  Cycle:     10 Energy:       -26.521238  Gnorm:      0.065354  CPU:    0.064
  ** Hessian calculated **
  Cycle:     11 Energy:       -26.521283  Gnorm:      0.056803  CPU:    0.070
  Cycle:     12 Energy:       -26.521333  Gnorm:      0.044886  CPU:    0.074
  Cycle:     13 Energy:       -26.521388  Gnorm:      0.028191  CPU:    0.079
  Cycle:     14 Energy:       -26.521437  Gnorm:      0.006385  CPU:    0.083
  Cycle:     15 Energy:       -26.521452  Gnorm:      0.009972  CPU:    0.086


  **** Optimisation achieved ****


  Final energy =     -26.52145173 eV
  Final Gnorm  =       0.00024965

  Components of energy : 

--------------------------------------------------------------------------------
  Interatomic potentials     =           5.16213725 eV    
  Monopole - monopole (real) =          53.50762303 eV    
  Monopole - monopole (recip)=         -85.19121201 eV    
  Monopole - monopole (total)=         -31.68358898 eV    
--------------------------------------------------------------------------------
  Total lattice energy : 
    Primitive unit cell      =         -26.52145173 eV    
    Non-primitive unit cell  =         -79.56435519 eV    
--------------------------------------------------------------------------------
  Total lattice energy (in kJmol-1): 
    Primitive unit cell      =           -2558.9147 kJ/(mole unit cells)
    Non-primitive unit cell  =           -7676.7440 kJ/(mole unit cells)
--------------------------------------------------------------------------------

  Final asymmetric unit coordinates :

--------------------------------------------------------------------------------
   No.  Atomic        x           y           z         Radius
        Label       (Frac)      (Frac)      (Frac)       (Angs) 
--------------------------------------------------------------------------------
     1  Mg    c     0.000000    0.000000    0.000000    0.000000
     2  Cl    c     0.666667    0.333333    0.074386    0.000000
     3  Mg    s     0.000000    0.000000    0.000000    0.000000
     4  Cl    s     0.666667    0.333333    0.062561    0.000000
--------------------------------------------------------------------------------

  Final Cartesian lattice vectors (Angstroms) :

        1.741989    1.005738    6.230672
       -1.741989    1.005738    6.230672
        0.000000   -2.011475    6.230672


  Final cell parameters and derivatives :

--------------------------------------------------------------------------------
       a            6.547313 Angstrom     dE/de1(xx)    -0.000330 eV/strain
       b            6.547313 Angstrom     dE/de2(yy)     0.000000 eV/strain
       c            6.547313 Angstrom     dE/de3(zz)    -0.000053 eV/strain
       alpha       30.860089 Degrees      dE/de4(yz)     0.000000 eV/strain
       beta        30.860089 Degrees      dE/de5(xz)     0.000000 eV/strain
       gamma       30.860089 Degrees      dE/de6(xy)     0.000000 eV/strain
--------------------------------------------------------------------------------

  Primitive cell volume =            65.496216 Angs**3

  Density of cell =      2.413917 g/cm**3

  Non-primitive lattice parameters :

  a    =     3.483978  b   =     3.483978  c    =    18.692016
  alpha=    90.000000  beta=    90.000000  gamma=   120.000000

  Non-primitive cell volume =           196.488647 Angs**3


  Final internal derivatives :

--------------------------------------------------------------------------------
   No.  Atomic          a             b             c           Radius
        Label          (eV)          (eV)          (eV)        (eV/Angs)
--------------------------------------------------------------------------------
      1 Mg    c       0.000000      0.000000      0.000000      0.000000
      2 Cl    c       0.000000      0.000000     -0.000739      0.000000
      3 Mg    s       0.000000      0.000000      0.000000      0.000000
      4 Cl    s       0.000000      0.000000     -0.000583      0.000000
--------------------------------------------------------------------------------
  Maximum abs         0.000000      0.000000      0.000739      0.000000
--------------------------------------------------------------------------------

  Comparison of initial and final structures : 

--------------------------------------------------------------------------------
  Parameter   Initial value   Final value   Difference    Units      Percent
--------------------------------------------------------------------------------
    Volume       230.789375    196.488647   -34.300728    Angs**3    -14.86
    a              3.675930      3.483978    -0.191953    Angstroms   -5.22
    b              3.675930      3.483978    -0.191953    Angstroms   -5.22
    c             19.721985     18.692016    -1.029969    Angstroms   -5.22
    alpha         90.000000     90.000000     0.000000    Degrees      0.00
    beta          90.000000     90.000000     0.000000    Degrees      0.00
    gamma        120.000000    120.000000     0.000000    Degrees      0.00
      1 x          0.000000      0.000000     0.000000    Fractional   0.00
      1 y          0.000000      0.000000     0.000000    Fractional   0.00
      1 z          0.000000      0.000000     0.000000    Fractional   0.00
      2 x          0.666667      0.666667     0.000000    Fractional   0.00
      2 y          0.333333      0.333333     0.000000    Fractional   0.00
      2 z          0.069629      0.074386     0.004757    Fractional   6.83
      3 x          0.000000      0.000000     0.000000    Fractional   0.00
      3 y          0.000000      0.000000     0.000000    Fractional   0.00
      3 z          0.000000      0.000000     0.000000    Fractional   0.00
      4 x          0.666667      0.666667     0.000000    Fractional   0.00
      4 y          0.333333      0.333333     0.000000    Fractional   0.00
      4 z          0.069629      0.062561     0.007069    Fractional  10.15
--------------------------------------------------------------------------------


  Born effective charge tensors : 

-------------------------------------------------------------------------------
  Atom             x           y             z
-------------------------------------------------------------------------------
    1 Mg    x       1.8684     -0.0000     -0.0000
            y      -0.0000      1.8684     -0.0000
            z      -0.0000     -0.0000      1.0166
-------------------------------------------------------------------------------
    2 Cl    x      -0.9342     -0.0000     -0.0000
            y      -0.0000     -0.9342      0.0000
            z      -0.0000      0.0000     -0.5083
-------------------------------------------------------------------------------




  Elastic Constant Matrix: (Units=GPa)

-------------------------------------------------------------------------------
  Indices      1         2         3         4         5         6    
-------------------------------------------------------------------------------
       1     90.3979   21.8217    0.8238   -0.1227    0.0000    0.0000
       2     21.8217   90.3979    0.8238    0.1227    0.0000    0.0000
       3      0.8238    0.8238    1.7475   -0.0000   -0.0000    0.0000
       4     -0.1227    0.1227   -0.0000    0.2547   -0.0000    0.0000
       5      0.0000    0.0000   -0.0000   -0.0000    0.2547   -0.1227
       6      0.0000    0.0000    0.0000    0.0000   -0.1227   34.2881
-------------------------------------------------------------------------------


  Elastic Compliance Matrix: (Units=1/GPa)

-------------------------------------------------------------------------------
  Indices      1         2         3         4         5         6    
-------------------------------------------------------------------------------
       1    0.011790 -0.002817 -0.004230  0.007041 -0.000000 -0.000000
       2   -0.002817  0.011790 -0.004230 -0.007041 -0.000000 -0.000000
       3   -0.004230 -0.004230  0.576246  0.000000  0.000000  0.000000
       4    0.007041 -0.007041  0.000000  3.933693  0.000000  0.000000
       5   -0.000000 -0.000000  0.000000  0.000000  3.933694  0.014081
       6   -0.000000 -0.000000  0.000000  0.000000  0.014081  0.029215
-------------------------------------------------------------------------------

  Mechanical properties :

-------------------------------------------------------------------------------
  Convention :                    Reuss         Voigt         Hill
-------------------------------------------------------------------------------
  Bulk  Modulus (GPa)     =       1.73229      25.49798      13.61513
  Shear Modulus (GPa)     =       0.57396      17.56441       9.06919
-------------------------------------------------------------------------------
  Velocity S-wave (km/s)  =       0.48762       2.69746       1.93831
  Velocity P-wave (km/s)  =       1.01718       4.50163       3.26338
-------------------------------------------------------------------------------
  Compressibility (1/GPa) =    0.57727183
-------------------------------------------------------------------------------
  Stress axis :                     x             y             z
-------------------------------------------------------------------------------
  Youngs Moduli (GPa)     =      84.81503      84.81503       1.73537
-------------------------------------------------------------------------------
  Poissons Ratio (x)      =                     0.23894       0.00734
  Poissons Ratio (y)      =       0.23894                     0.00734
  Poissons Ratio (z)      =       0.35878       0.35878
-------------------------------------------------------------------------------


  Piezoelectric Strain Matrix: (Units=C/m**2)

-------------------------------------------------------------------------------
  Indices      1         2         3         4         5         6    
-------------------------------------------------------------------------------
       x    -0.00000  -0.00000  -0.00000  -0.00000   0.00000  -0.00000
       y    -0.00000   0.00000   0.00000  -0.00000  -0.00000  -0.00000
       z    -0.00000  -0.00000  -0.00000   0.00000   0.00000  -0.00000
-------------------------------------------------------------------------------


  Piezoelectric Stress Matrix: (Units=10**-11 C/N)

-------------------------------------------------------------------------------
  Indices      1         2         3         4         5         6    
-------------------------------------------------------------------------------
       x    -0.00000   0.00000  -0.00000  -0.00000   0.00000   0.00000
       y    -0.00000   0.00000   0.00000  -0.00000  -0.00000  -0.00000
       z     0.00000   0.00000  -0.00000   0.00000   0.00001  -0.00000
-------------------------------------------------------------------------------


  Static dielectric constant tensor : 

-------------------------------------------------------------------------------
              x         y         z
-------------------------------------------------------------------------------
       x     3.89445  -0.00000  -0.00000
       y    -0.00000   3.89445  -0.00000
       z    -0.00000  -0.00000   2.39203
--------------------------------------------------------------------------------

  High frequency dielectric constant tensor : 

-------------------------------------------------------------------------------
              x         y         z
-------------------------------------------------------------------------------
       x     2.52642  -0.00000  -0.00000
       y    -0.00000   2.52642  -0.00000
       z    -0.00000  -0.00000   2.16422
-------------------------------------------------------------------------------

  Static refractive indices : 

-------------------------------------------------------------------------------
    1 =    1.54662      2 =    1.97344      3 =    1.97344
-------------------------------------------------------------------------------

  High frequency refractive indices : 

-------------------------------------------------------------------------------
    1 =    1.47113      2 =    1.58947      3 =    1.58947
-------------------------------------------------------------------------------


  Time to end of optimisation =       0.0917 seconds

********************************************************************************
*  Defect calculation for configuration   1 :                                  *
********************************************************************************


  **** No defects for configuration number    1 ****


  Peak dynamic memory used =       1.84 MB 


  Timing analysis for GULP :

--------------------------------------------------------------------------------
  Task / Subroutine                                          Time (Seconds)
--------------------------------------------------------------------------------
  Calculation of reciprocal space energy and derivatives          0.0005
  Calculation of reciprocal space energy using symmetry           0.0020
  Calculation of real space energy and derivatives                0.0019
  Calculation of real space energy using symmetry                 0.0806
  Symmetry generation of equivalent positions                     0.0004
--------------------------------------------------------------------------------
  Total CPU time                                                  0.0918
--------------------------------------------------------------------------------


  Dump file written as Na3OCl.grs


  Job Finished at 14:10.28  3rd December   2020                               

