********************************************************************************
*                       GENERAL UTILITY LATTICE PROGRAM                        *
*                                 Julian Gale                                  *
*                       Curtin Institute for Computation                       *
*                    School of Molecular and Life Sciences                     *
*                    Curtin University, Western Australia                      *
********************************************************************************
* Version = 5.2.0 * Last modified =  10th September 2020                       *
********************************************************************************
*  optimise     - perform optimisation run                                     *
*  conp         - constant pressure calculation                                *
*  property     - calculate properties for final geometry                      *
*  defect       - perform defect calculation after bulk run                    *
*  compare      - compare initial and final structures                         *
********************************************************************************

  Job Started  at 13:17.36  3rd December   2020                               

  Number of CPUs =     1


  Total number of configurations input =      1

********************************************************************************
*  Input for Configuration =   1                                               *
********************************************************************************

  Formula = ClONa3                                                      

  Number of irreducible atoms/shells =       5


  Total number atoms/shells =       7

  Dimensionality = 3               :  Bulk   


  Symmetry :

  Crystal family                   :  Cubic       
  Crystal class  (Groth - 1921)    :  Cubic Hexakisoctahedral              

  Space group (centrosymmetric)    :  P M 3 M         

  Patterson group                  :  P m -3 m 

  Cartesian lattice vectors (Angstroms) :

        4.504000    0.000000    0.000000
        0.000000    4.504000    0.000000
        0.000000    0.000000    4.504000

  Cell parameters (Angstroms/Degrees):

  a =       4.5040    alpha =  90.0000
  b =       4.5040    beta  =  90.0000
  c =       4.5040    gamma =  90.0000

  Initial cell volume =          91.368216 Angs**3

  Temperature of configuration =   0.00     K 

  Pressure of configuration =         0.000 GPa 

  Fractional coordinates of asymmetric unit :

--------------------------------------------------------------------------------
   No.  Atomic       x           y          z         Charge      Occupancy
        Label      (Frac)      (Frac)     (Frac)        (e)         (Frac)  
--------------------------------------------------------------------------------
      1 Cl    c    0.000000    0.000000    0.000000     1.48500    1.000000    
      2 O     c    0.500000    0.500000    0.500000     0.18300    1.000000    
      3 Na    c    0.500000    0.500000    0.000000     1.00000    1.000000    
      4 Cl    s    0.000000    0.000000    0.000000    -2.48500    1.000000    
      5 O     s    0.500000    0.500000    0.500000    -2.18300    1.000000    
--------------------------------------------------------------------------------


  Constraints : 

--------------------------------------------------------------------------------
  Constraint no.      Unconstrained     Constrained    Coefficient    Offset
                         Variable         Variable
--------------------------------------------------------------------------------
           1              Strain 1        Strain 2       1.00000      0.0000
           2              Strain 1        Strain 3       1.00000      0.0000
--------------------------------------------------------------------------------


********************************************************************************
*  General input information                                                   *
********************************************************************************

  Species output for all configurations : 

--------------------------------------------------------------------------------
  Species    Type    Atomic    Atomic    Charge       Radii (Angs)     Library
                     Number     Mass       (e)     Cova   Ionic  VDW   Symbol
--------------------------------------------------------------------------------
    Na       Core       11      22.99   1.000000   0.970  0.000  2.300          
    O        Core        8      16.00   0.183000   0.730  0.000  1.360          
    O        Shell       8       0.00  -2.183000   0.730  0.000  0.000          
    Cl       Core       17      35.45   1.485000   0.990  0.000  1.650          
    Cl       Shell      17       0.00  -2.485000   0.990  0.000  0.000          
    Mg       Core       12      24.31   0.415000   1.100  0.000  0.000          
    Mg       Shell      12       0.00   1.585000   1.100  0.000  0.000          
    Ca       Core       20      40.08  -1.135000   0.990  0.000  0.000          
    Ca       Shell      20       0.00   3.135000   0.990  0.000  0.000          
    Sr       Core       38      87.62  -1.251000   1.120  0.000  0.000          
    Sr       Shell      38       0.00   3.251000   1.120  0.000  0.000          
    Ba       Core       56     137.33  -7.203000   1.340  0.000  0.000          
    Ba       Shell      56       0.00   9.203000   1.340  0.000  0.000          
--------------------------------------------------------------------------------


  Lattice summation method               =    Ewald          (3-D)
                                         =    Parry          (2-D)
                                         =    Saunders et al (1-D)
  Accuracy factor for lattice sums       =   12.000


  Analytic derivatives to be used

  Time limit = Infinity

  Maximum range for interatomic potentials =    100000.000000 Angstroms

  General interatomic potentials :

--------------------------------------------------------------------------------
Atom  Types   Potential      Parameter       Value         Units   Cutoffs(Ang)
  1     2                                                            Min /  Max 
--------------------------------------------------------------------------------
O    c O    s Spring (c-s)  Spring k 2       593.71600    eV*Ang^-2 0.000  0.800
                            Spring k 4       0.0000000    eV*Ang^-4 
--------------------------------------------------------------------------------
Cl   c Cl   s Spring (c-s)  Spring k 2       29.380000    eV*Ang^-2 0.000  0.800
                            Spring k 4       0.0000000    eV*Ang^-4 
--------------------------------------------------------------------------------
Mg   c Mg   s Spring (c-s)  Spring k 2       361.60000    eV*Ang^-2 0.000  0.800
                            Spring k 4       0.0000000    eV*Ang^-4 
--------------------------------------------------------------------------------
Ca   c Ca   s Spring (c-s)  Spring k 2       110.20000    eV*Ang^-2 0.000  0.800
                            Spring k 4       0.0000000    eV*Ang^-4 
--------------------------------------------------------------------------------
Sr   c Sr   s Spring (c-s)  Spring k 2       71.700000    eV*Ang^-2 0.000  0.800
                            Spring k 4       0.0000000    eV*Ang^-4 
--------------------------------------------------------------------------------
Ba   c Ba   s Spring (c-s)  Spring k 2       495.20000    eV*Ang^-2 0.000  0.800
                            Spring k 4       0.0000000    eV*Ang^-4 
--------------------------------------------------------------------------------
Na   c Na   c Buckingham    Buckingham A     1788.1900    eV        0.000 12.000
                            Buckingham rho  0.15900000    Ang       
                            Buckingham C     0.0000000    eV*Ang^6  
--------------------------------------------------------------------------------
Na   c O    s Buckingham    Buckingham A     1226.8400    eV        0.000 12.000
                            Buckingham rho  0.30700000    Ang       
                            Buckingham C     0.0000000    eV*Ang^6  
--------------------------------------------------------------------------------
Na   c Cl   s Buckingham    Buckingham A     2314.7000    eV        0.000 12.000
                            Buckingham rho  0.29000000    Ang       
                            Buckingham C     0.0000000    eV*Ang^6  
--------------------------------------------------------------------------------
O    s O    s Buckingham    Buckingham A     22764.300    eV        0.000 12.000
                            Buckingham rho  0.14900000    Ang       
                            Buckingham C     13.190000    eV*Ang^6  
--------------------------------------------------------------------------------
O    s Cl   s Buckingham    Buckingham A     8286.9100    eV        0.000 12.000
                            Buckingham rho  0.25900000    Ang       
                            Buckingham C     62.200000    eV*Ang^6  
--------------------------------------------------------------------------------
Cl   s Cl   s Buckingham    Buckingham A     1227.2000    eV        0.000 12.000
                            Buckingham rho  0.32100000    Ang       
                            Buckingham C     14.530000    eV*Ang^6  
--------------------------------------------------------------------------------
O    s Mg   s Buckingham    Buckingham A     1428.5000    eV        0.000 12.000
                            Buckingham rho  0.29450000    Ang       
                            Buckingham C     0.0000000    eV*Ang^6  
--------------------------------------------------------------------------------
Mg   s Cl   s Buckingham    Buckingham A     4914.5400    eV        0.000 12.000
                            Buckingham rho  0.25700000    Ang       
                            Buckingham C     0.0000000    eV*Ang^6  
--------------------------------------------------------------------------------
O    s Ca   s Buckingham    Buckingham A     1090.4000    eV        0.000 12.000
                            Buckingham rho  0.34370000    Ang       
                            Buckingham C     0.0000000    eV*Ang^6  
--------------------------------------------------------------------------------
Cl   s Ca   s Buckingham    Buckingham A     2302.0000    eV        0.000 12.000
                            Buckingham rho  0.34020000    Ang       
                            Buckingham C     0.0000000    eV*Ang^6  
--------------------------------------------------------------------------------
O    s Sr   s Buckingham    Buckingham A     959.10000    eV        0.000 12.000
                            Buckingham rho  0.37210000    Ang       
                            Buckingham C     0.0000000    eV*Ang^6  
--------------------------------------------------------------------------------
Cl   s Sr   s Buckingham    Buckingham A     2191.0900    eV        0.000 12.000
                            Buckingham rho  0.34570000    Ang       
                            Buckingham C     0.0000000    eV*Ang^6  
--------------------------------------------------------------------------------
O    s Ba   s Buckingham    Buckingham A     905.70000    eV        0.000 12.000
                            Buckingham rho  0.39760000    Ang       
                            Buckingham C     0.0000000    eV*Ang^6  
--------------------------------------------------------------------------------
Cl   s Ba   s Buckingham    Buckingham A     2704.5500    eV        0.000 12.000
                            Buckingham rho  0.35280000    Ang       
                            Buckingham C     0.0000000    eV*Ang^6  
--------------------------------------------------------------------------------

********************************************************************************
*  Output for configuration   1                                                *
********************************************************************************


  Components of energy : 

--------------------------------------------------------------------------------
  Interatomic potentials     =           5.13022605 eV    
  Monopole - monopole (real) =         -10.03624526 eV    
  Monopole - monopole (recip)=         -29.53581274 eV    
  Monopole - monopole (total)=         -39.57205800 eV    
--------------------------------------------------------------------------------
  Total lattice energy       =         -34.44183194 eV    
--------------------------------------------------------------------------------
  Total lattice energy       =           -3323.1103 kJ/(mole unit cells)
--------------------------------------------------------------------------------


  Number of variables =        1

  Maximum number of calculations  =          1000
  Maximum Hessian update interval =            10
  Maximum step size               =   1.000000000
  Maximum parameter tolerance     =   0.000010000
  Maximum function  tolerance     =   0.000010000
  Maximum gradient  tolerance     =   0.001000000
  Maximum gradient  component     =   0.010000000

  Symmetry constrained optimisation

  Symmetry used for second derivatives

  Cell parameters to be optimised using strains

  Newton-Raphson optimiser to be used

  BFGS hessian update to be used

  Lower half triangular hessian to be used

  Start of bulk optimisation :

  Cycle:      0 Energy:       -34.441832  Gnorm:      0.196570  CPU:    0.015
  ** Hessian calculated **
  Cycle:      1 Energy:       -34.441914  Gnorm:      0.000103  CPU:    0.019


  **** Optimisation achieved ****


  Final energy =     -34.44191447 eV
  Final Gnorm  =       0.00000000

  Components of energy : 

--------------------------------------------------------------------------------
  Interatomic potentials     =           5.09689708 eV    
  Monopole - monopole (real) =         -10.02781331 eV    
  Monopole - monopole (recip)=         -29.51099824 eV    
  Monopole - monopole (total)=         -39.53881155 eV    
--------------------------------------------------------------------------------
  Total lattice energy       =         -34.44191447 eV    
--------------------------------------------------------------------------------
  Total lattice energy       =           -3323.1183 kJ/(mole unit cells)
--------------------------------------------------------------------------------

  Final asymmetric unit coordinates :

--------------------------------------------------------------------------------
   No.  Atomic        x           y           z         Radius
        Label       (Frac)      (Frac)      (Frac)       (Angs) 
--------------------------------------------------------------------------------
     1  Cl    c     0.000000    0.000000    0.000000    0.000000
     2  O     c     0.500000    0.500000    0.500000    0.000000
     3  Na    c     0.500000    0.500000    0.000000    0.000000
     4  Cl    s     0.000000    0.000000    0.000000    0.000000
     5  O     s     0.500000    0.500000    0.500000    0.000000
--------------------------------------------------------------------------------

  Final Cartesian lattice vectors (Angstroms) :

        4.507787    0.000000    0.000000
        0.000000    4.507787    0.000000
        0.000000    0.000000    4.507787


  Final cell parameters and derivatives :

--------------------------------------------------------------------------------
       a            4.507787 Angstrom     dE/de1(xx)     0.000000 eV/strain
       b            4.507787 Angstrom     dE/de2(yy)     0.000000 eV/strain
       c            4.507787 Angstrom     dE/de3(zz)     0.000000 eV/strain
       alpha       90.000000 Degrees      dE/de4(yz)     0.000000 eV/strain
       beta        90.000000 Degrees      dE/de5(xz)     0.000000 eV/strain
       gamma       90.000000 Degrees      dE/de6(xy)     0.000000 eV/strain
--------------------------------------------------------------------------------

  Primitive cell volume =            91.598892 Angs**3

  Density of cell =      2.183054 g/cm**3

  Non-primitive cell volume =            91.598892 Angs**3


  Final internal derivatives :

--------------------------------------------------------------------------------
   No.  Atomic          a             b             c           Radius
        Label          (eV)          (eV)          (eV)        (eV/Angs)
--------------------------------------------------------------------------------
      1 Cl    c       0.000000      0.000000      0.000000      0.000000
      2 O     c       0.000000      0.000000      0.000000      0.000000
      3 Na    c       0.000000      0.000000      0.000000      0.000000
      4 Cl    s       0.000000      0.000000      0.000000      0.000000
      5 O     s       0.000000      0.000000      0.000000      0.000000
--------------------------------------------------------------------------------
  Maximum abs         0.000000      0.000000      0.000000      0.000000
--------------------------------------------------------------------------------

  Comparison of initial and final structures : 

--------------------------------------------------------------------------------
  Parameter   Initial value   Final value   Difference    Units      Percent
--------------------------------------------------------------------------------
    Volume        91.368216     91.598892     0.230676    Angs**3      0.25
    a              4.504000      4.507787     0.003787    Angstroms    0.08
    b              4.504000      4.507787     0.003787    Angstroms    0.08
    c              4.504000      4.507787     0.003787    Angstroms    0.08
    alpha         90.000000     90.000000     0.000000    Degrees      0.00
    beta          90.000000     90.000000     0.000000    Degrees      0.00
    gamma         90.000000     90.000000     0.000000    Degrees      0.00
      1 x          0.000000      0.000000     0.000000    Fractional   0.00
      1 y          0.000000      0.000000     0.000000    Fractional   0.00
      1 z          0.000000      0.000000     0.000000    Fractional   0.00
      2 x          0.500000      0.500000     0.000000    Fractional   0.00
      2 y          0.500000      0.500000     0.000000    Fractional   0.00
      2 z          0.500000      0.500000     0.000000    Fractional   0.00
      3 x          0.500000      0.500000     0.000000    Fractional   0.00
      3 y          0.500000      0.500000     0.000000    Fractional   0.00
      3 z          0.000000      0.000000     0.000000    Fractional   0.00
      4 x          0.000000      0.000000     0.000000    Fractional   0.00
      4 y          0.000000      0.000000     0.000000    Fractional   0.00
      4 z          0.000000      0.000000     0.000000    Fractional   0.00
      5 x          0.500000      0.500000     0.000000    Fractional   0.00
      5 y          0.500000      0.500000     0.000000    Fractional   0.00
      5 z          0.500000      0.500000     0.000000    Fractional   0.00
--------------------------------------------------------------------------------


  Born effective charge tensors : 

-------------------------------------------------------------------------------
  Atom             x           y             z
-------------------------------------------------------------------------------
    1 Cl    x      -1.0181     -0.0000      0.0000
            y      -0.0000     -1.0181      0.0000
            z       0.0000      0.0000     -1.0181
-------------------------------------------------------------------------------
    2 O     x      -2.2647      0.0000     -0.0000
            y       0.0000     -2.2647     -0.0000
            z      -0.0000     -0.0000     -2.2647
-------------------------------------------------------------------------------
    3 Na    x       1.2258     -0.0000      0.0000
            y      -0.0000      1.2258     -0.0000
            z       0.0000     -0.0000      0.8313
-------------------------------------------------------------------------------




  Elastic Constant Matrix: (Units=GPa)

-------------------------------------------------------------------------------
  Indices      1         2         3         4         5         6    
-------------------------------------------------------------------------------
       1     95.8177   20.0737   20.0737   -0.0000   -0.0000    0.0000
       2     20.0737   95.8177   20.0737   -0.0000   -0.0000    0.0000
       3     20.0737   20.0737   95.8177   -0.0000   -0.0000    0.0000
       4     -0.0000   -0.0000   -0.0000   20.0737   -0.0000    0.0000
       5     -0.0000   -0.0000   -0.0000   -0.0000   20.0737    0.0000
       6      0.0000    0.0000    0.0000    0.0000    0.0000   20.0737
-------------------------------------------------------------------------------


  Elastic Compliance Matrix: (Units=1/GPa)

-------------------------------------------------------------------------------
  Indices      1         2         3         4         5         6    
-------------------------------------------------------------------------------
       1    0.011253 -0.001949 -0.001949  0.000000  0.000000 -0.000000
       2   -0.001949  0.011253 -0.001949  0.000000  0.000000  0.000000
       3   -0.001949 -0.001949  0.011253  0.000000  0.000000 -0.000000
       4    0.000000  0.000000  0.000000  0.049816  0.000000 -0.000000
       5    0.000000  0.000000  0.000000  0.000000  0.049816 -0.000000
       6   -0.000000  0.000000 -0.000000 -0.000000 -0.000000  0.049816
-------------------------------------------------------------------------------

  Mechanical properties :

-------------------------------------------------------------------------------
  Convention :                    Reuss         Voigt         Hill
-------------------------------------------------------------------------------
  Bulk  Modulus (GPa)     =      45.32174      45.32174      45.32174
  Shear Modulus (GPa)     =      24.72085      27.19304      25.95695
-------------------------------------------------------------------------------
  Velocity S-wave (km/s)  =       3.36511       3.52937       3.44822
  Velocity P-wave (km/s)  =       5.98827       6.11304       6.05098
-------------------------------------------------------------------------------
  Compressibility (1/GPa) =    0.02206447
-------------------------------------------------------------------------------
  Stress axis :                     x             y             z
-------------------------------------------------------------------------------
  Youngs Moduli (GPa)     =      88.86373      88.86373      88.86373
-------------------------------------------------------------------------------
  Poissons Ratio (x)      =                     0.17321       0.17321
  Poissons Ratio (y)      =       0.17321                     0.17321
  Poissons Ratio (z)      =       0.17321       0.17321
-------------------------------------------------------------------------------


  Piezoelectric Strain Matrix: (Units=C/m**2)

-------------------------------------------------------------------------------
  Indices      1         2         3         4         5         6    
-------------------------------------------------------------------------------
       x    -0.00000  -0.00000  -0.00000   0.00000  -0.00000  -0.00000
       y    -0.00000  -0.00000   0.00000  -0.00000   0.00000   0.00000
       z    -0.00000  -0.00000  -0.00000  -0.00000   0.00000   0.00000
-------------------------------------------------------------------------------


  Piezoelectric Stress Matrix: (Units=10**-11 C/N)

-------------------------------------------------------------------------------
  Indices      1         2         3         4         5         6    
-------------------------------------------------------------------------------
       x    -0.00000   0.00000   0.00000   0.00000  -0.00000  -0.00000
       y    -0.00000  -0.00000   0.00000  -0.00000   0.00000   0.00000
       z     0.00000   0.00000  -0.00000  -0.00000   0.00000   0.00000
-------------------------------------------------------------------------------


  Static dielectric constant tensor : 

-------------------------------------------------------------------------------
              x         y         z
-------------------------------------------------------------------------------
       x    22.84729   0.00000   0.00000
       y     0.00000  22.84729  -0.00000
       z     0.00000  -0.00000  22.84729
--------------------------------------------------------------------------------

  High frequency dielectric constant tensor : 

-------------------------------------------------------------------------------
              x         y         z
-------------------------------------------------------------------------------
       x     1.47557   0.00000  -0.00000
       y     0.00000   1.47557  -0.00000
       z    -0.00000  -0.00000   1.47557
-------------------------------------------------------------------------------

  Static refractive indices : 

-------------------------------------------------------------------------------
    1 =    4.77988      2 =    4.77988      3 =    4.77988
-------------------------------------------------------------------------------

  High frequency refractive indices : 

-------------------------------------------------------------------------------
    1 =    1.21473      2 =    1.21473      3 =    1.21473
-------------------------------------------------------------------------------


  Time to end of optimisation =       0.0284 seconds

********************************************************************************
*  Defect calculation for configuration   1 :                                  *
********************************************************************************

  Total number of defects =      1

  Total charge on defect  =   2.00

  Defect centre is at   0.5000   0.5000   0.5000  Frac

  Region 1 radius =  13.0000      Number of ions =    690

  Number of symmetry inequivalent region 1 ions  =     38

  Region 2 radius =  21.0000      Number of ions =   2300

  Number of symmetry inequivalent region 2a ions =     81

  Region 2a mode = 4 : screened electrostatics due to region 1 
                       neglect correction to region 1 forces from 2a
                       region 2a displacements based on defects only

  Region 2a ions will only interact with defects in region 1

  Vacancies:

--------------------------------------------------------------------------------
    Specification type     Symbol/Number         x          y          z
--------------------------------------------------------------------------------
    Fractional                               0.500000   0.500000   0.500000
--------------------------------------------------------------------------------


  Symmetry reduced region 1 (Relative to defect centre) :

--------------------------------------------------------------------------------
   No.   Atomic       x            y             z       Radius  Multiplicity   
         Label      (Angs)       (Angs)        (Angs)    (Angs)     
--------------------------------------------------------------------------------
     1  Na    c      0.0000       0.0000       2.2539 *  0.0000     6          
     2  Cl    c      2.2539 *     2.2539       2.2539    0.0000     8          
     3  O     c      0.0000       0.0000      -4.5078 *  0.0000     6          
     4  Na    c      0.0000      -4.5078 *     2.2539 *  0.0000    24          
     5  O     c      0.0000      -4.5078 *    -4.5078    0.0000    12          
     6  Na    c     -4.5078 *    -4.5078       2.2539 *  0.0000    24          
     7  Na    c      0.0000       0.0000       6.7617 *  0.0000     6          
     8  Cl    c      2.2539 *     2.2539       6.7617 *  0.0000    24          
     9  O     c      4.5078 *    -4.5078      -4.5078    0.0000     8          
    10  Na    c      0.0000      -4.5078 *     6.7617 *  0.0000    24          
    11  O     c      0.0000       0.0000       9.0156 *  0.0000     6          
    12  Na    c      0.0000       9.0156 *     2.2539 *  0.0000    24          
    13  Na    c      6.7617 *    -4.5078 *    -4.5078    0.0000    24          
    14  Cl    c      2.2539 *     6.7617 *     6.7617    0.0000    24          
    15  O     c      0.0000       9.0156 *    -4.5078 *  0.0000    24          
    16  Na    c      9.0156 *    -4.5078 *     2.2539 *  0.0000    48          
    17  O     c      9.0156 *    -4.5078 *    -4.5078    0.0000    24          
    18  Na    c      0.0000       0.0000      11.2695 *  0.0000     6          
    19  Na    c      0.0000       9.0156 *     6.7617 *  0.0000    24          
    20  Cl    c      2.2539 *     2.2539      11.2695 *  0.0000    24          
    21  Cl    c      6.7617 *     6.7617       6.7617    0.0000     8          
    22  Na    c      0.0000       4.5078 *    11.2695 *  0.0000    24          
    23  Na    c      4.5078 *     9.0156 *     6.7617 *  0.0000    48          
    24  O     c      0.0000       9.0156 *     9.0156    0.0000    12          
    25  Na    c     -4.5078 *    -4.5078      11.2695 *  0.0000    24          
    26  Na    c      9.0156 *     9.0156       2.2539 *  0.0000    24          
    27  Cl    s      2.2539 *     2.2539       2.2539    0.0000     8          
    28  O     s      0.0000       0.0000      -4.5078 *  0.0000     6          
    29  O     s      0.0000      -4.5078 *    -4.5078    0.0000    12          
    30  Cl    s      2.2539 *     2.2539       6.7617 *  0.0000    24          
    31  O     s      4.5078 *    -4.5078      -4.5078    0.0000     8          
    32  O     s      0.0000       0.0000       9.0156 *  0.0000     6          
    33  Cl    s      2.2539 *     6.7617 *     6.7617    0.0000    24          
    34  O     s      0.0000       9.0156 *    -4.5078 *  0.0000    24          
    35  O     s      9.0156 *    -4.5078 *    -4.5078    0.0000    24          
    36  Cl    s      2.2539 *     2.2539      11.2695 *  0.0000    24          
    37  Cl    s      6.7617 *     6.7617       6.7617    0.0000     8          
    38  O     s      0.0000       9.0156 *     9.0156    0.0000    12          
--------------------------------------------------------------------------------


  Constraints on symmetry reduced coordinates :

--------------------------------------------------------------------------------
  Constraint no.      Unconstrained     Constrained    Coefficient    
                         Variable         Variable
--------------------------------------------------------------------------------
           1                 2 x             2 y         1.00000
           2                 2 x             2 z         1.00000
           3                 5 y             5 z         1.00000
           4                 6 x             6 y         1.00000
           5                 8 x             8 y         1.00000
           6                 9 x             9 y        -1.00000
           7                 9 x             9 z        -1.00000
           8                13 y            13 z         1.00000
           9                14 y            14 z         1.00000
          10                17 y            17 z         1.00000
          11                20 x            20 y         1.00000
          12                21 x            21 y         1.00000
          13                21 x            21 z         1.00000
          14                24 y            24 z         1.00000
          15                25 x            25 y         1.00000
          16                26 x            26 y         1.00000
          17                27 x            27 y         1.00000
          18                27 x            27 z         1.00000
          19                29 y            29 z         1.00000
          20                30 x            30 y         1.00000
          21                31 x            31 y        -1.00000
          22                31 x            31 z        -1.00000
          23                33 y            33 z         1.00000
          24                35 y            35 z         1.00000
          25                36 x            36 y         1.00000
          26                37 x            37 y         1.00000
          27                37 x            37 z         1.00000
          28                38 y            38 z         1.00000
--------------------------------------------------------------------------------


  Components of defect energy : 

--------------------------------------------------------------------------------
  Region 1 - region 1                   =    159.36522837 eV
  Region 1 - region 2a (unrelaxed)      =   -124.45272394 eV
  Region 1 - 2a (relaxed - correction)  =     -1.68673738 eV
  Region 1 (Total)                      =     33.22576705 eV
  Region 2a                             =      0.84408109 eV
  Region 2b                             =     -1.30765111 eV
--------------------------------------------------------------------------------
  Total defect energy                   =     32.76219703 eV
--------------------------------------------------------------------------------

  Largest displacement in region 2 =   0.0341 Angstroms


  Number of variables =       61

  Maximum number of calculations  =        1000
  Maximum Hessian update interval =          10
  Maximum step size               =   1.0000000
  Maximum parameter tolerance     =   0.0000100
  Maximum function  tolerance     =   0.0000100
  Maximum gradient  tolerance     =   0.0010000

  Symmetry adapted optimisation

  Symmetry to be used for second derivatives

  Newton-Raphson optimiser to be used

  BFGS hessian update to be used

  Lower half triangular hessian to be used

  Start of defect optimisation :

  Cycle:      0 Defect Energy:  32.762197  Gnorm:     1.815392  CPU:    1.692
  ** Hessian calculated **
  Cycle:      1 Defect Energy:  27.003809  Gnorm:     1.246692  CPU:    2.944
  Cycle:      2 Defect Energy:  21.767862  Gnorm:     0.195997  CPU:    3.668
  Cycle:      3 Defect Energy:  21.433062  Gnorm:     0.072396  CPU:    4.249
  Cycle:      4 Defect Energy:  21.414221  Gnorm:     0.010933  CPU:    4.832
  Cycle:      5 Defect Energy:  21.413642  Gnorm:     0.006658  CPU:    4.990
  Cycle:      6 Defect Energy:  21.413378  Gnorm:     0.004644  CPU:    5.149
  Cycle:      7 Defect Energy:  21.413221  Gnorm:     0.003253  CPU:    5.307
  Cycle:      8 Defect Energy:  21.413125  Gnorm:     0.002276  CPU:    5.555
  Cycle:      9 Defect Energy:  21.413063  Gnorm:     0.001594  CPU:    5.714
  Cycle:     10 Defect Energy:  21.413024  Gnorm:     0.001116  CPU:    5.873
  ** Hessian calculated **
  Cycle:     11 Defect Energy:  21.412997  Gnorm:     0.000781  CPU:    6.143
  Cycle:     12 Defect Energy:  21.412980  Gnorm:     0.000547  CPU:    6.242
  Cycle:     13 Defect Energy:  21.412968  Gnorm:     0.000383  CPU:    6.340


  **** Optimisation achieved ****


  Final defect energy  =       21.41295962
  Final defect Gnorm   =        0.00026786

  Components of defect energy : 

--------------------------------------------------------------------------------
  Region 1 - region 1                   =    138.18923679 eV
  Region 1 - region 2a (unrelaxed)      =   -114.77377646 eV
  Region 1 - 2a (relaxed - correction)  =     -1.38794990 eV
  Region 1 (Total)                      =     22.02751043 eV
  Region 2a                             =      0.69310030 eV
  Region 2b                             =     -1.30765111 eV
--------------------------------------------------------------------------------
  Total defect energy                   =     21.41295962 eV
--------------------------------------------------------------------------------

  Largest displacement in region 2 =   0.0341 Angstroms

  Final coordinates of region 1 :

--------------------------------------------------------------------------------
   No.  Atomic        x           y           z          Radius      Charge
        Label       (Angs)      (Angs)      (Angs)       (Angs)       (e) 
--------------------------------------------------------------------------------
     1  Na    c     2.253894    2.253894    4.748737    0.000000    1.000000
     2  Na    c     2.253894    2.253894   -0.240949    0.000000    1.000000
     3  Na    c     4.748737    2.253894    2.253894    0.000000    1.000000
     4  Na    c    -0.240949    2.253894    2.253894    0.000000    1.000000
     5  Na    c     2.253894    4.748737    2.253894    0.000000    1.000000
     6  Na    c     2.253894   -0.240949    2.253894    0.000000    1.000000
     7  Cl    c     4.170137    4.170137    4.170137    0.000000    1.485000
     8  Cl    c     4.170137    4.170137    0.337650    0.000000    1.485000
     9  Cl    c     4.170137    0.337650    4.170137    0.000000    1.485000
    10  Cl    c     4.170137    0.337650    0.337650    0.000000    1.485000
    11  Cl    c     0.337650    4.170137    4.170137    0.000000    1.485000
    12  Cl    c     0.337650    4.170137    0.337650    0.000000    1.485000
    13  Cl    c     0.337650    0.337650    4.170137    0.000000    1.485000
    14  Cl    c     0.337650    0.337650    0.337650    0.000000    1.485000
    15  O     c     2.253894    2.253894   -2.408345    0.000000    0.183000
    16  O     c     2.253894   -2.408345    2.253894    0.000000    0.183000
    17  O     c    -2.408345    2.253894    2.253894    0.000000    0.183000
    18  O     c     2.253894    2.253894    6.916132    0.000000    0.183000
    19  O     c     2.253894    6.916132    2.253894    0.000000    0.183000
    20  O     c     6.916132    2.253894    2.253894    0.000000    0.183000
    21  Na    c     2.253894   -2.375844    4.519911    0.000000    1.000000
    22  Na    c     2.253894   -2.375844   -0.012124    0.000000    1.000000
    23  Na    c    -2.375844    2.253894    4.519911    0.000000    1.000000
    24  Na    c    -2.375844    2.253894   -0.012124    0.000000    1.000000
    25  Na    c     4.519911    2.253894   -2.375844    0.000000    1.000000
    26  Na    c     4.519911   -2.375844    2.253894    0.000000    1.000000
    27  Na    c    -0.012124    2.253894   -2.375844    0.000000    1.000000
    28  Na    c    -0.012124   -2.375844    2.253894    0.000000    1.000000
    29  Na    c     2.253894    4.519911   -2.375844    0.000000    1.000000
    30  Na    c     2.253894   -0.012124   -2.375844    0.000000    1.000000
    31  Na    c    -2.375844    4.519911    2.253894    0.000000    1.000000
    32  Na    c    -2.375844   -0.012124    2.253894    0.000000    1.000000
    33  Na    c     2.253894    6.883631    4.519911    0.000000    1.000000
    34  Na    c     2.253894    6.883631   -0.012124    0.000000    1.000000
    35  Na    c     6.883631    2.253894    4.519911    0.000000    1.000000
    36  Na    c     6.883631    2.253894   -0.012124    0.000000    1.000000
    37  Na    c     4.519911    2.253894    6.883631    0.000000    1.000000
    38  Na    c     4.519911    6.883631    2.253894    0.000000    1.000000
    39  Na    c    -0.012124    2.253894    6.883631    0.000000    1.000000
    40  Na    c    -0.012124    6.883631    2.253894    0.000000    1.000000
    41  Na    c     2.253894    4.519911    6.883631    0.000000    1.000000
    42  Na    c     2.253894   -0.012124    6.883631    0.000000    1.000000
    43  Na    c     6.883631    4.519911    2.253894    0.000000    1.000000
    44  Na    c     6.883631   -0.012124    2.253894    0.000000    1.000000
    45  O     c     2.253894   -2.258203   -2.258203    0.000000    0.183000
    46  O     c    -2.258203    2.253894   -2.258203    0.000000    0.183000
    47  O     c    -2.258203   -2.258203    2.253894    0.000000    0.183000
    48  O     c     2.253894    6.765990   -2.258203    0.000000    0.183000
    49  O     c     2.253894   -2.258203    6.765990    0.000000    0.183000
    50  O     c     6.765990    2.253894   -2.258203    0.000000    0.183000
    51  O     c     6.765990   -2.258203    2.253894    0.000000    0.183000
    52  O     c    -2.258203    2.253894    6.765990    0.000000    0.183000
    53  O     c    -2.258203    6.765990    2.253894    0.000000    0.183000
    54  O     c     2.253894    6.765990    6.765990    0.000000    0.183000
    55  O     c     6.765990    2.253894    6.765990    0.000000    0.183000
    56  O     c     6.765990    6.765990    2.253894    0.000000    0.183000
    57  Na    c    -2.352953   -2.352953    4.513224    0.000000    1.000000
    58  Na    c    -2.352953   -2.352953   -0.005437    0.000000    1.000000
    59  Na    c     4.513224   -2.352953   -2.352953    0.000000    1.000000
    60  Na    c    -0.005437   -2.352953   -2.352953    0.000000    1.000000
    61  Na    c    -2.352953    4.513224   -2.352953    0.000000    1.000000
    62  Na    c    -2.352953   -0.005437   -2.352953    0.000000    1.000000
    63  Na    c     6.860740   -2.352953    4.513224    0.000000    1.000000
    64  Na    c     6.860740   -2.352953   -0.005437    0.000000    1.000000
    65  Na    c    -2.352953    6.860740    4.513224    0.000000    1.000000
    66  Na    c    -2.352953    6.860740   -0.005437    0.000000    1.000000
    67  Na    c     4.513224    6.860740   -2.352953    0.000000    1.000000
    68  Na    c     4.513224   -2.352953    6.860740    0.000000    1.000000
    69  Na    c    -0.005437    6.860740   -2.352953    0.000000    1.000000
    70  Na    c    -0.005437   -2.352953    6.860740    0.000000    1.000000
    71  Na    c     6.860740    4.513224   -2.352953    0.000000    1.000000
    72  Na    c     6.860740   -0.005437   -2.352953    0.000000    1.000000
    73  Na    c    -2.352953    4.513224    6.860740    0.000000    1.000000
    74  Na    c    -2.352953   -0.005437    6.860740    0.000000    1.000000
    75  Na    c     6.860740    6.860740    4.513224    0.000000    1.000000
    76  Na    c     6.860740    6.860740   -0.005437    0.000000    1.000000
    77  Na    c     4.513224    6.860740    6.860740    0.000000    1.000000
    78  Na    c    -0.005437    6.860740    6.860740    0.000000    1.000000
    79  Na    c     6.860740    4.513224    6.860740    0.000000    1.000000
    80  Na    c     6.860740   -0.005437    6.860740    0.000000    1.000000
    81  Na    c     2.253894    2.253894    9.116646    0.000000    1.000000
    82  Na    c     2.253894    2.253894   -4.608859    0.000000    1.000000
    83  Na    c     9.116646    2.253894    2.253894    0.000000    1.000000
    84  Na    c    -4.608859    2.253894    2.253894    0.000000    1.000000
    85  Na    c     2.253894    9.116646    2.253894    0.000000    1.000000
    86  Na    c     2.253894   -4.608859    2.253894    0.000000    1.000000
    87  Cl    c     4.529057    4.529057    8.979155    0.000000    1.485000
    88  Cl    c     4.529057    4.529057   -4.471368    0.000000    1.485000
    89  Cl    c     4.529057    8.979155    4.529057    0.000000    1.485000
    90  Cl    c     4.529057    8.979155   -0.021270    0.000000    1.485000
    91  Cl    c     4.529057   -0.021270    8.979155    0.000000    1.485000
    92  Cl    c     4.529057   -0.021270   -4.471368    0.000000    1.485000
    93  Cl    c     4.529057   -4.471368    4.529057    0.000000    1.485000
    94  Cl    c     4.529057   -4.471368   -0.021270    0.000000    1.485000
    95  Cl    c     8.979155    4.529057    4.529057    0.000000    1.485000
    96  Cl    c     8.979155    4.529057   -0.021270    0.000000    1.485000
    97  Cl    c     8.979155   -0.021270    4.529057    0.000000    1.485000
    98  Cl    c     8.979155   -0.021270   -0.021270    0.000000    1.485000
    99  Cl    c    -0.021270    4.529057    8.979155    0.000000    1.485000
   100  Cl    c    -0.021270    4.529057   -4.471368    0.000000    1.485000
   101  Cl    c    -0.021270    8.979155    4.529057    0.000000    1.485000
   102  Cl    c    -0.021270    8.979155   -0.021270    0.000000    1.485000
   103  Cl    c    -0.021270   -0.021270    8.979155    0.000000    1.485000
   104  Cl    c    -0.021270   -0.021270   -4.471368    0.000000    1.485000
   105  Cl    c    -0.021270   -4.471368    4.529057    0.000000    1.485000
   106  Cl    c    -0.021270   -4.471368   -0.021270    0.000000    1.485000
   107  Cl    c    -4.471368    4.529057    4.529057    0.000000    1.485000
   108  Cl    c    -4.471368    4.529057   -0.021270    0.000000    1.485000
   109  Cl    c    -4.471368   -0.021270    4.529057    0.000000    1.485000
   110  Cl    c    -4.471368   -0.021270   -0.021270    0.000000    1.485000
   111  O     c     6.758765   -2.250978   -2.250978    0.000000    0.183000
   112  O     c    -2.250978    6.758765   -2.250978    0.000000    0.183000
   113  O     c    -2.250978   -2.250978    6.758765    0.000000    0.183000
   114  O     c    -2.250978   -2.250978   -2.250978    0.000000    0.183000
   115  O     c     6.758765    6.758765    6.758765    0.000000    0.183000
   116  O     c     6.758765    6.758765   -2.250978    0.000000    0.183000
   117  O     c     6.758765   -2.250978    6.758765    0.000000    0.183000
   118  O     c    -2.250978    6.758765    6.758765    0.000000    0.183000
   119  Na    c     2.253894   -2.275564    9.035262    0.000000    1.000000
   120  Na    c     2.253894   -2.275564   -4.527474    0.000000    1.000000
   121  Na    c    -2.275564    2.253894    9.035262    0.000000    1.000000
   122  Na    c    -2.275564    2.253894   -4.527474    0.000000    1.000000
   123  Na    c     9.035262    2.253894   -2.275564    0.000000    1.000000
   124  Na    c     9.035262   -2.275564    2.253894    0.000000    1.000000
   125  Na    c    -4.527474    2.253894   -2.275564    0.000000    1.000000
   126  Na    c    -4.527474   -2.275564    2.253894    0.000000    1.000000
   127  Na    c     2.253894    9.035262   -2.275564    0.000000    1.000000
   128  Na    c     2.253894   -4.527474   -2.275564    0.000000    1.000000
   129  Na    c    -2.275564    9.035262    2.253894    0.000000    1.000000
   130  Na    c    -2.275564   -4.527474    2.253894    0.000000    1.000000
   131  Na    c     2.253894    6.783351    9.035262    0.000000    1.000000
   132  Na    c     2.253894    6.783351   -4.527474    0.000000    1.000000
   133  Na    c     6.783351    2.253894    9.035262    0.000000    1.000000
   134  Na    c     6.783351    2.253894   -4.527474    0.000000    1.000000
   135  Na    c     9.035262    2.253894    6.783351    0.000000    1.000000
   136  Na    c     9.035262    6.783351    2.253894    0.000000    1.000000
   137  Na    c    -4.527474    2.253894    6.783351    0.000000    1.000000
   138  Na    c    -4.527474    6.783351    2.253894    0.000000    1.000000
   139  Na    c     2.253894    9.035262    6.783351    0.000000    1.000000
   140  Na    c     2.253894   -4.527474    6.783351    0.000000    1.000000
   141  Na    c     6.783351    9.035262    2.253894    0.000000    1.000000
   142  Na    c     6.783351   -4.527474    2.253894    0.000000    1.000000
   143  O     c     2.253894    2.253894   11.324495    0.000000    0.183000
   144  O     c     2.253894    2.253894   -6.816707    0.000000    0.183000
   145  O     c     2.253894   11.324495    2.253894    0.000000    0.183000
   146  O     c     2.253894   -6.816707    2.253894    0.000000    0.183000
   147  O     c    11.324495    2.253894    2.253894    0.000000    0.183000
   148  O     c    -6.816707    2.253894    2.253894    0.000000    0.183000
   149  Na    c     2.253894   11.361353    4.514269    0.000000    1.000000
   150  Na    c     2.253894   11.361353   -0.006482    0.000000    1.000000
   151  Na    c     2.253894   -6.853565    4.514269    0.000000    1.000000
   152  Na    c     2.253894   -6.853565   -0.006482    0.000000    1.000000
   153  Na    c    11.361353    2.253894    4.514269    0.000000    1.000000
   154  Na    c    11.361353    2.253894   -0.006482    0.000000    1.000000
   155  Na    c    -6.853565    2.253894    4.514269    0.000000    1.000000
   156  Na    c    -6.853565    2.253894   -0.006482    0.000000    1.000000
   157  Na    c     4.514269    2.253894   11.361353    0.000000    1.000000
   158  Na    c     4.514269    2.253894   -6.853565    0.000000    1.000000
   159  Na    c     4.514269   11.361353    2.253894    0.000000    1.000000
   160  Na    c     4.514269   -6.853565    2.253894    0.000000    1.000000
   161  Na    c    -0.006482    2.253894   11.361353    0.000000    1.000000
   162  Na    c    -0.006482    2.253894   -6.853565    0.000000    1.000000
   163  Na    c    -0.006482   11.361353    2.253894    0.000000    1.000000
   164  Na    c    -0.006482   -6.853565    2.253894    0.000000    1.000000
   165  Na    c     2.253894    4.514269   11.361353    0.000000    1.000000
   166  Na    c     2.253894    4.514269   -6.853565    0.000000    1.000000
   167  Na    c     2.253894   -0.006482   11.361353    0.000000    1.000000
   168  Na    c     2.253894   -0.006482   -6.853565    0.000000    1.000000
   169  Na    c    11.361353    4.514269    2.253894    0.000000    1.000000
   170  Na    c    11.361353   -0.006482    2.253894    0.000000    1.000000
   171  Na    c    -6.853565    4.514269    2.253894    0.000000    1.000000
   172  Na    c    -6.853565   -0.006482    2.253894    0.000000    1.000000
   173  Na    c     9.026435   -2.275313   -2.275313    0.000000    1.000000
   174  Na    c    -4.518648   -2.275313   -2.275313    0.000000    1.000000
   175  Na    c    -2.275313    9.026435   -2.275313    0.000000    1.000000
   176  Na    c    -2.275313   -4.518648   -2.275313    0.000000    1.000000
   177  Na    c     6.783100    6.783100    9.026435    0.000000    1.000000
   178  Na    c     6.783100    6.783100   -4.518648    0.000000    1.000000
   179  Na    c     6.783100   -2.275313    9.026435    0.000000    1.000000
   180  Na    c     6.783100   -2.275313   -4.518648    0.000000    1.000000
   181  Na    c    -2.275313    6.783100    9.026435    0.000000    1.000000
   182  Na    c    -2.275313    6.783100   -4.518648    0.000000    1.000000
   183  Na    c    -2.275313   -2.275313    9.026435    0.000000    1.000000
   184  Na    c    -2.275313   -2.275313   -4.518648    0.000000    1.000000
   185  Na    c     9.026435    6.783100   -2.275313    0.000000    1.000000
   186  Na    c     9.026435   -2.275313    6.783100    0.000000    1.000000
   187  Na    c    -4.518648    6.783100   -2.275313    0.000000    1.000000
   188  Na    c    -4.518648   -2.275313    6.783100    0.000000    1.000000
   189  Na    c     6.783100    9.026435   -2.275313    0.000000    1.000000
   190  Na    c     6.783100   -4.518648   -2.275313    0.000000    1.000000
   191  Na    c    -2.275313    9.026435    6.783100    0.000000    1.000000
   192  Na    c    -2.275313   -4.518648    6.783100    0.000000    1.000000
   193  Na    c     9.026435    6.783100    6.783100    0.000000    1.000000
   194  Na    c    -4.518648    6.783100    6.783100    0.000000    1.000000
   195  Na    c     6.783100    9.026435    6.783100    0.000000    1.000000
   196  Na    c     6.783100   -4.518648    6.783100    0.000000    1.000000
   197  Cl    c     4.492147    8.977202    8.977202    0.000000    1.485000
   198  Cl    c     4.492147    8.977202   -4.469415    0.000000    1.485000
   199  Cl    c     4.492147   -4.469415    8.977202    0.000000    1.485000
   200  Cl    c     4.492147   -4.469415   -4.469415    0.000000    1.485000
   201  Cl    c     8.977202    4.492147    8.977202    0.000000    1.485000
   202  Cl    c     8.977202    4.492147   -4.469415    0.000000    1.485000
   203  Cl    c     8.977202    8.977202    4.492147    0.000000    1.485000
   204  Cl    c     8.977202    8.977202    0.015640    0.000000    1.485000
   205  Cl    c     8.977202    0.015640    8.977202    0.000000    1.485000
   206  Cl    c     8.977202    0.015640   -4.469415    0.000000    1.485000
   207  Cl    c     8.977202   -4.469415    4.492147    0.000000    1.485000
   208  Cl    c     8.977202   -4.469415    0.015640    0.000000    1.485000
   209  Cl    c     0.015640    8.977202    8.977202    0.000000    1.485000
   210  Cl    c     0.015640    8.977202   -4.469415    0.000000    1.485000
   211  Cl    c     0.015640   -4.469415    8.977202    0.000000    1.485000
   212  Cl    c     0.015640   -4.469415   -4.469415    0.000000    1.485000
   213  Cl    c    -4.469415    4.492147    8.977202    0.000000    1.485000
   214  Cl    c    -4.469415    4.492147   -4.469415    0.000000    1.485000
   215  Cl    c    -4.469415    8.977202    4.492147    0.000000    1.485000
   216  Cl    c    -4.469415    8.977202    0.015640    0.000000    1.485000
   217  Cl    c    -4.469415    0.015640    8.977202    0.000000    1.485000
   218  Cl    c    -4.469415    0.015640   -4.469415    0.000000    1.485000
   219  Cl    c    -4.469415   -4.469415    4.492147    0.000000    1.485000
   220  Cl    c    -4.469415   -4.469415    0.015640    0.000000    1.485000
   221  O     c     2.253894   11.280886   -2.258646    0.000000    0.183000
   222  O     c     2.253894   -2.258646   11.280886    0.000000    0.183000
   223  O     c     2.253894   -2.258646   -6.773099    0.000000    0.183000
   224  O     c     2.253894   -6.773099   -2.258646    0.000000    0.183000
   225  O     c    11.280886    2.253894   -2.258646    0.000000    0.183000
   226  O     c    11.280886   -2.258646    2.253894    0.000000    0.183000
   227  O     c    -2.258646    2.253894   11.280886    0.000000    0.183000
   228  O     c    -2.258646    2.253894   -6.773099    0.000000    0.183000
   229  O     c    -2.258646   11.280886    2.253894    0.000000    0.183000
   230  O     c    -2.258646   -6.773099    2.253894    0.000000    0.183000
   231  O     c    -6.773099    2.253894   -2.258646    0.000000    0.183000
   232  O     c    -6.773099   -2.258646    2.253894    0.000000    0.183000
   233  O     c     2.253894    6.766434   11.280886    0.000000    0.183000
   234  O     c     2.253894    6.766434   -6.773099    0.000000    0.183000
   235  O     c     2.253894   11.280886    6.766434    0.000000    0.183000
   236  O     c     2.253894   -6.773099    6.766434    0.000000    0.183000
   237  O     c     6.766434    2.253894   11.280886    0.000000    0.183000
   238  O     c     6.766434    2.253894   -6.773099    0.000000    0.183000
   239  O     c     6.766434   11.280886    2.253894    0.000000    0.183000
   240  O     c     6.766434   -6.773099    2.253894    0.000000    0.183000
   241  O     c    11.280886    2.253894    6.766434    0.000000    0.183000
   242  O     c    11.280886    6.766434    2.253894    0.000000    0.183000
   243  O     c    -6.773099    2.253894    6.766434    0.000000    0.183000
   244  O     c    -6.773099    6.766434    2.253894    0.000000    0.183000
   245  Na    c    11.289966   -2.251215    4.511658    0.000000    1.000000
   246  Na    c    11.289966   -2.251215   -0.003871    0.000000    1.000000
   247  Na    c    -2.251215   11.289966    4.511658    0.000000    1.000000
   248  Na    c    -2.251215   11.289966   -0.003871    0.000000    1.000000
   249  Na    c    -2.251215   -6.782179    4.511658    0.000000    1.000000
   250  Na    c    -2.251215   -6.782179   -0.003871    0.000000    1.000000
   251  Na    c    -6.782179   -2.251215    4.511658    0.000000    1.000000
   252  Na    c    -6.782179   -2.251215   -0.003871    0.000000    1.000000
   253  Na    c     4.511658   11.289966   -2.251215    0.000000    1.000000
   254  Na    c     4.511658   -2.251215   11.289966    0.000000    1.000000
   255  Na    c     4.511658   -2.251215   -6.782179    0.000000    1.000000
   256  Na    c     4.511658   -6.782179   -2.251215    0.000000    1.000000
   257  Na    c    -0.003871   11.289966   -2.251215    0.000000    1.000000
   258  Na    c    -0.003871   -2.251215   11.289966    0.000000    1.000000
   259  Na    c    -0.003871   -2.251215   -6.782179    0.000000    1.000000
   260  Na    c    -0.003871   -6.782179   -2.251215    0.000000    1.000000
   261  Na    c    11.289966    4.511658   -2.251215    0.000000    1.000000
   262  Na    c    11.289966   -0.003871   -2.251215    0.000000    1.000000
   263  Na    c    -2.251215    4.511658   11.289966    0.000000    1.000000
   264  Na    c    -2.251215    4.511658   -6.782179    0.000000    1.000000
   265  Na    c    -2.251215   -0.003871   11.289966    0.000000    1.000000
   266  Na    c    -2.251215   -0.003871   -6.782179    0.000000    1.000000
   267  Na    c    -6.782179    4.511658   -2.251215    0.000000    1.000000
   268  Na    c    -6.782179   -0.003871   -2.251215    0.000000    1.000000
   269  Na    c     6.759002   11.289966    4.511658    0.000000    1.000000
   270  Na    c     6.759002   11.289966   -0.003871    0.000000    1.000000
   271  Na    c     6.759002   -6.782179    4.511658    0.000000    1.000000
   272  Na    c     6.759002   -6.782179   -0.003871    0.000000    1.000000
   273  Na    c    11.289966    6.759002    4.511658    0.000000    1.000000
   274  Na    c    11.289966    6.759002   -0.003871    0.000000    1.000000
   275  Na    c    -6.782179    6.759002    4.511658    0.000000    1.000000
   276  Na    c    -6.782179    6.759002   -0.003871    0.000000    1.000000
   277  Na    c     4.511658    6.759002   11.289966    0.000000    1.000000
   278  Na    c     4.511658    6.759002   -6.782179    0.000000    1.000000
   279  Na    c     4.511658   11.289966    6.759002    0.000000    1.000000
   280  Na    c     4.511658   -6.782179    6.759002    0.000000    1.000000
   281  Na    c    -0.003871    6.759002   11.289966    0.000000    1.000000
   282  Na    c    -0.003871    6.759002   -6.782179    0.000000    1.000000
   283  Na    c    -0.003871   11.289966    6.759002    0.000000    1.000000
   284  Na    c    -0.003871   -6.782179    6.759002    0.000000    1.000000
   285  Na    c     6.759002    4.511658   11.289966    0.000000    1.000000
   286  Na    c     6.759002    4.511658   -6.782179    0.000000    1.000000
   287  Na    c     6.759002   -0.003871   11.289966    0.000000    1.000000
   288  Na    c     6.759002   -0.003871   -6.782179    0.000000    1.000000
   289  Na    c    11.289966    4.511658    6.759002    0.000000    1.000000
   290  Na    c    11.289966   -0.003871    6.759002    0.000000    1.000000
   291  Na    c    -6.782179    4.511658    6.759002    0.000000    1.000000
   292  Na    c    -6.782179   -0.003871    6.759002    0.000000    1.000000
   293  O     c    11.276912   -2.258084   -2.258084    0.000000    0.183000
   294  O     c    -2.258084   11.276912   -2.258084    0.000000    0.183000
   295  O     c    -2.258084   -6.769125   -2.258084    0.000000    0.183000
   296  O     c    -6.769125   -2.258084   -2.258084    0.000000    0.183000
   297  O     c     6.765871    6.765871   11.276912    0.000000    0.183000
   298  O     c     6.765871    6.765871   -6.769125    0.000000    0.183000
   299  O     c     6.765871   11.276912   -2.258084    0.000000    0.183000
   300  O     c     6.765871   -2.258084   11.276912    0.000000    0.183000
   301  O     c     6.765871   -2.258084   -6.769125    0.000000    0.183000
   302  O     c     6.765871   -6.769125   -2.258084    0.000000    0.183000
   303  O     c    11.276912    6.765871   -2.258084    0.000000    0.183000
   304  O     c    11.276912   -2.258084    6.765871    0.000000    0.183000
   305  O     c    -2.258084    6.765871   11.276912    0.000000    0.183000
   306  O     c    -2.258084    6.765871   -6.769125    0.000000    0.183000
   307  O     c    -2.258084   11.276912    6.765871    0.000000    0.183000
   308  O     c    -2.258084   -2.258084   11.276912    0.000000    0.183000
   309  O     c    -2.258084   -2.258084   -6.769125    0.000000    0.183000
   310  O     c    -2.258084   -6.769125    6.765871    0.000000    0.183000
   311  O     c    -6.769125    6.765871   -2.258084    0.000000    0.183000
   312  O     c    -6.769125   -2.258084    6.765871    0.000000    0.183000
   313  O     c     6.765871   11.276912    6.765871    0.000000    0.183000
   314  O     c     6.765871   -6.769125    6.765871    0.000000    0.183000
   315  O     c    11.276912    6.765871    6.765871    0.000000    0.183000
   316  O     c    -6.769125    6.765871    6.765871    0.000000    0.183000
   317  Na    c     2.253894    2.253894   13.553584    0.000000    1.000000
   318  Na    c     2.253894    2.253894   -9.045796    0.000000    1.000000
   319  Na    c    13.553584    2.253894    2.253894    0.000000    1.000000
   320  Na    c    -9.045796    2.253894    2.253894    0.000000    1.000000
   321  Na    c     2.253894   13.553584    2.253894    0.000000    1.000000
   322  Na    c     2.253894   -9.045796    2.253894    0.000000    1.000000
   323  Na    c     2.253894   11.279446    9.020448    0.000000    1.000000
   324  Na    c     2.253894   11.279446   -4.512661    0.000000    1.000000
   325  Na    c     2.253894   -6.771659    9.020448    0.000000    1.000000
   326  Na    c     2.253894   -6.771659   -4.512661    0.000000    1.000000
   327  Na    c    11.279446    2.253894    9.020448    0.000000    1.000000
   328  Na    c    11.279446    2.253894   -4.512661    0.000000    1.000000
   329  Na    c    -6.771659    2.253894    9.020448    0.000000    1.000000
   330  Na    c    -6.771659    2.253894   -4.512661    0.000000    1.000000
   331  Na    c     9.020448    2.253894   11.279446    0.000000    1.000000
   332  Na    c     9.020448    2.253894   -6.771659    0.000000    1.000000
   333  Na    c     9.020448   11.279446    2.253894    0.000000    1.000000
   334  Na    c     9.020448   -6.771659    2.253894    0.000000    1.000000
   335  Na    c    -4.512661    2.253894   11.279446    0.000000    1.000000
   336  Na    c    -4.512661    2.253894   -6.771659    0.000000    1.000000
   337  Na    c    -4.512661   11.279446    2.253894    0.000000    1.000000
   338  Na    c    -4.512661   -6.771659    2.253894    0.000000    1.000000
   339  Na    c     2.253894    9.020448   11.279446    0.000000    1.000000
   340  Na    c     2.253894    9.020448   -6.771659    0.000000    1.000000
   341  Na    c     2.253894   -4.512661   11.279446    0.000000    1.000000
   342  Na    c     2.253894   -4.512661   -6.771659    0.000000    1.000000
   343  Na    c    11.279446    9.020448    2.253894    0.000000    1.000000
   344  Na    c    11.279446   -4.512661    2.253894    0.000000    1.000000
   345  Na    c    -6.771659    9.020448    2.253894    0.000000    1.000000
   346  Na    c    -6.771659   -4.512661    2.253894    0.000000    1.000000
   347  Cl    c     4.500848    4.500848   13.484865    0.000000    1.485000
   348  Cl    c     4.500848    4.500848   -8.977078    0.000000    1.485000
   349  Cl    c     4.500848   13.484865    4.500848    0.000000    1.485000
   350  Cl    c     4.500848   13.484865    0.006939    0.000000    1.485000
   351  Cl    c     4.500848    0.006939   13.484865    0.000000    1.485000
   352  Cl    c     4.500848    0.006939   -8.977078    0.000000    1.485000
   353  Cl    c     4.500848   -8.977078    4.500848    0.000000    1.485000
   354  Cl    c     4.500848   -8.977078    0.006939    0.000000    1.485000
   355  Cl    c    13.484865    4.500848    4.500848    0.000000    1.485000
   356  Cl    c    13.484865    4.500848    0.006939    0.000000    1.485000
   357  Cl    c    13.484865    0.006939    4.500848    0.000000    1.485000
   358  Cl    c    13.484865    0.006939    0.006939    0.000000    1.485000
   359  Cl    c     0.006939    4.500848   13.484865    0.000000    1.485000
   360  Cl    c     0.006939    4.500848   -8.977078    0.000000    1.485000
   361  Cl    c     0.006939   13.484865    4.500848    0.000000    1.485000
   362  Cl    c     0.006939   13.484865    0.006939    0.000000    1.485000
   363  Cl    c     0.006939    0.006939   13.484865    0.000000    1.485000
   364  Cl    c     0.006939    0.006939   -8.977078    0.000000    1.485000
   365  Cl    c     0.006939   -8.977078    4.500848    0.000000    1.485000
   366  Cl    c     0.006939   -8.977078    0.006939    0.000000    1.485000
   367  Cl    c    -8.977078    4.500848    4.500848    0.000000    1.485000
   368  Cl    c    -8.977078    4.500848    0.006939    0.000000    1.485000
   369  Cl    c    -8.977078    0.006939    4.500848    0.000000    1.485000
   370  Cl    c    -8.977078    0.006939    0.006939    0.000000    1.485000
   371  Cl    c     8.989986    8.989986    8.989986    0.000000    1.485000
   372  Cl    c     8.989986    8.989986   -4.482198    0.000000    1.485000
   373  Cl    c     8.989986   -4.482198    8.989986    0.000000    1.485000
   374  Cl    c     8.989986   -4.482198   -4.482198    0.000000    1.485000
   375  Cl    c    -4.482198    8.989986    8.989986    0.000000    1.485000
   376  Cl    c    -4.482198    8.989986   -4.482198    0.000000    1.485000
   377  Cl    c    -4.482198   -4.482198    8.989986    0.000000    1.485000
   378  Cl    c    -4.482198   -4.482198   -4.482198    0.000000    1.485000
   379  Na    c     2.253894    6.802606   13.534276    0.000000    1.000000
   380  Na    c     2.253894    6.802606   -9.026489    0.000000    1.000000
   381  Na    c     2.253894   -2.294818   13.534276    0.000000    1.000000
   382  Na    c     2.253894   -2.294818   -9.026489    0.000000    1.000000
   383  Na    c     6.802606    2.253894   13.534276    0.000000    1.000000
   384  Na    c     6.802606    2.253894   -9.026489    0.000000    1.000000
   385  Na    c    -2.294818    2.253894   13.534276    0.000000    1.000000
   386  Na    c    -2.294818    2.253894   -9.026489    0.000000    1.000000
   387  Na    c    13.534276    2.253894    6.802606    0.000000    1.000000
   388  Na    c    13.534276    2.253894   -2.294818    0.000000    1.000000
   389  Na    c    13.534276    6.802606    2.253894    0.000000    1.000000
   390  Na    c    13.534276   -2.294818    2.253894    0.000000    1.000000
   391  Na    c    -9.026489    2.253894    6.802606    0.000000    1.000000
   392  Na    c    -9.026489    2.253894   -2.294818    0.000000    1.000000
   393  Na    c    -9.026489    6.802606    2.253894    0.000000    1.000000
   394  Na    c    -9.026489   -2.294818    2.253894    0.000000    1.000000
   395  Na    c     2.253894   13.534276    6.802606    0.000000    1.000000
   396  Na    c     2.253894   13.534276   -2.294818    0.000000    1.000000
   397  Na    c     2.253894   -9.026489    6.802606    0.000000    1.000000
   398  Na    c     2.253894   -9.026489   -2.294818    0.000000    1.000000
   399  Na    c     6.802606   13.534276    2.253894    0.000000    1.000000
   400  Na    c     6.802606   -9.026489    2.253894    0.000000    1.000000
   401  Na    c    -2.294818   13.534276    2.253894    0.000000    1.000000
   402  Na    c    -2.294818   -9.026489    2.253894    0.000000    1.000000
   403  Na    c     6.766268   11.292941    9.020688    0.000000    1.000000
   404  Na    c     6.766268   11.292941   -4.512900    0.000000    1.000000
   405  Na    c     6.766268   -6.785153    9.020688    0.000000    1.000000
   406  Na    c     6.766268   -6.785153   -4.512900    0.000000    1.000000
   407  Na    c    11.292941    6.766268    9.020688    0.000000    1.000000
   408  Na    c    11.292941    6.766268   -4.512900    0.000000    1.000000
   409  Na    c    11.292941   -2.258481    9.020688    0.000000    1.000000
   410  Na    c    11.292941   -2.258481   -4.512900    0.000000    1.000000
   411  Na    c    -2.258481   11.292941    9.020688    0.000000    1.000000
   412  Na    c    -2.258481   11.292941   -4.512900    0.000000    1.000000
   413  Na    c    -2.258481   -6.785153    9.020688    0.000000    1.000000
   414  Na    c    -2.258481   -6.785153   -4.512900    0.000000    1.000000
   415  Na    c    -6.785153    6.766268    9.020688    0.000000    1.000000
   416  Na    c    -6.785153    6.766268   -4.512900    0.000000    1.000000
   417  Na    c    -6.785153   -2.258481    9.020688    0.000000    1.000000
   418  Na    c    -6.785153   -2.258481   -4.512900    0.000000    1.000000
   419  Na    c     9.020688    6.766268   11.292941    0.000000    1.000000
   420  Na    c     9.020688    6.766268   -6.785153    0.000000    1.000000
   421  Na    c     9.020688   11.292941    6.766268    0.000000    1.000000
   422  Na    c     9.020688   11.292941   -2.258481    0.000000    1.000000
   423  Na    c     9.020688   -2.258481   11.292941    0.000000    1.000000
   424  Na    c     9.020688   -2.258481   -6.785153    0.000000    1.000000
   425  Na    c     9.020688   -6.785153    6.766268    0.000000    1.000000
   426  Na    c     9.020688   -6.785153   -2.258481    0.000000    1.000000
   427  Na    c    -4.512900    6.766268   11.292941    0.000000    1.000000
   428  Na    c    -4.512900    6.766268   -6.785153    0.000000    1.000000
   429  Na    c    -4.512900   11.292941    6.766268    0.000000    1.000000
   430  Na    c    -4.512900   11.292941   -2.258481    0.000000    1.000000
   431  Na    c    -4.512900   -2.258481   11.292941    0.000000    1.000000
   432  Na    c    -4.512900   -2.258481   -6.785153    0.000000    1.000000
   433  Na    c    -4.512900   -6.785153    6.766268    0.000000    1.000000
   434  Na    c    -4.512900   -6.785153   -2.258481    0.000000    1.000000
   435  Na    c     6.766268    9.020688   11.292941    0.000000    1.000000
   436  Na    c     6.766268    9.020688   -6.785153    0.000000    1.000000
   437  Na    c     6.766268   -4.512900   11.292941    0.000000    1.000000
   438  Na    c     6.766268   -4.512900   -6.785153    0.000000    1.000000
   439  Na    c    11.292941    9.020688    6.766268    0.000000    1.000000
   440  Na    c    11.292941    9.020688   -2.258481    0.000000    1.000000
   441  Na    c    11.292941   -4.512900    6.766268    0.000000    1.000000
   442  Na    c    11.292941   -4.512900   -2.258481    0.000000    1.000000
   443  Na    c    -2.258481    9.020688   11.292941    0.000000    1.000000
   444  Na    c    -2.258481    9.020688   -6.785153    0.000000    1.000000
   445  Na    c    -2.258481   -4.512900   11.292941    0.000000    1.000000
   446  Na    c    -2.258481   -4.512900   -6.785153    0.000000    1.000000
   447  Na    c    -6.785153    9.020688    6.766268    0.000000    1.000000
   448  Na    c    -6.785153    9.020688   -2.258481    0.000000    1.000000
   449  Na    c    -6.785153   -4.512900    6.766268    0.000000    1.000000
   450  Na    c    -6.785153   -4.512900   -2.258481    0.000000    1.000000
   451  O     c     2.253894   11.266902   11.266902    0.000000    0.183000
   452  O     c     2.253894   11.266902   -6.759115    0.000000    0.183000
   453  O     c     2.253894   -6.759115   11.266902    0.000000    0.183000
   454  O     c     2.253894   -6.759115   -6.759115    0.000000    0.183000
   455  O     c    11.266902    2.253894   11.266902    0.000000    0.183000
   456  O     c    11.266902    2.253894   -6.759115    0.000000    0.183000
   457  O     c    11.266902   11.266902    2.253894    0.000000    0.183000
   458  O     c    11.266902   -6.759115    2.253894    0.000000    0.183000
   459  O     c    -6.759115    2.253894   11.266902    0.000000    0.183000
   460  O     c    -6.759115    2.253894   -6.759115    0.000000    0.183000
   461  O     c    -6.759115   11.266902    2.253894    0.000000    0.183000
   462  O     c    -6.759115   -6.759115    2.253894    0.000000    0.183000
   463  Na    c    -2.272596   -2.272596   13.533304    0.000000    1.000000
   464  Na    c    -2.272596   -2.272596   -9.025517    0.000000    1.000000
   465  Na    c    13.533304    6.780383    6.780383    0.000000    1.000000
   466  Na    c    13.533304    6.780383   -2.272596    0.000000    1.000000
   467  Na    c    13.533304   -2.272596    6.780383    0.000000    1.000000
   468  Na    c    13.533304   -2.272596   -2.272596    0.000000    1.000000
   469  Na    c    -9.025517    6.780383    6.780383    0.000000    1.000000
   470  Na    c    -9.025517    6.780383   -2.272596    0.000000    1.000000
   471  Na    c    -9.025517   -2.272596    6.780383    0.000000    1.000000
   472  Na    c    -9.025517   -2.272596   -2.272596    0.000000    1.000000
   473  Na    c     6.780383   13.533304    6.780383    0.000000    1.000000
   474  Na    c     6.780383   13.533304   -2.272596    0.000000    1.000000
   475  Na    c     6.780383   -9.025517    6.780383    0.000000    1.000000
   476  Na    c     6.780383   -9.025517   -2.272596    0.000000    1.000000
   477  Na    c    -2.272596   13.533304    6.780383    0.000000    1.000000
   478  Na    c    -2.272596   13.533304   -2.272596    0.000000    1.000000
   479  Na    c    -2.272596   -9.025517    6.780383    0.000000    1.000000
   480  Na    c    -2.272596   -9.025517   -2.272596    0.000000    1.000000
   481  Na    c     6.780383    6.780383   13.533304    0.000000    1.000000
   482  Na    c     6.780383    6.780383   -9.025517    0.000000    1.000000
   483  Na    c     6.780383   -2.272596   13.533304    0.000000    1.000000
   484  Na    c     6.780383   -2.272596   -9.025517    0.000000    1.000000
   485  Na    c    -2.272596    6.780383   13.533304    0.000000    1.000000
   486  Na    c    -2.272596    6.780383   -9.025517    0.000000    1.000000
   487  Na    c    11.308014   11.308014    4.509153    0.000000    1.000000
   488  Na    c    11.308014   11.308014   -0.001366    0.000000    1.000000
   489  Na    c    11.308014   -6.800226    4.509153    0.000000    1.000000
   490  Na    c    11.308014   -6.800226   -0.001366    0.000000    1.000000
   491  Na    c    -6.800226   11.308014    4.509153    0.000000    1.000000
   492  Na    c    -6.800226   11.308014   -0.001366    0.000000    1.000000
   493  Na    c    -6.800226   -6.800226    4.509153    0.000000    1.000000
   494  Na    c    -6.800226   -6.800226   -0.001366    0.000000    1.000000
   495  Na    c     4.509153   11.308014   11.308014    0.000000    1.000000
   496  Na    c     4.509153   11.308014   -6.800226    0.000000    1.000000
   497  Na    c     4.509153   -6.800226   11.308014    0.000000    1.000000
   498  Na    c     4.509153   -6.800226   -6.800226    0.000000    1.000000
   499  Na    c    -0.001366   11.308014   11.308014    0.000000    1.000000
   500  Na    c    -0.001366   11.308014   -6.800226    0.000000    1.000000
   501  Na    c    -0.001366   -6.800226   11.308014    0.000000    1.000000
   502  Na    c    -0.001366   -6.800226   -6.800226    0.000000    1.000000
   503  Na    c    11.308014    4.509153   11.308014    0.000000    1.000000
   504  Na    c    11.308014    4.509153   -6.800226    0.000000    1.000000
   505  Na    c    11.308014   -0.001366   11.308014    0.000000    1.000000
   506  Na    c    11.308014   -0.001366   -6.800226    0.000000    1.000000
   507  Na    c    -6.800226    4.509153   11.308014    0.000000    1.000000
   508  Na    c    -6.800226    4.509153   -6.800226    0.000000    1.000000
   509  Na    c    -6.800226   -0.001366   11.308014    0.000000    1.000000
   510  Na    c    -6.800226   -0.001366   -6.800226    0.000000    1.000000
   511  Cl    s     4.136702    4.136702    4.136702    0.000000   -2.485000
   512  Cl    s     4.136702    4.136702    0.371085    0.000000   -2.485000
   513  Cl    s     4.136702    0.371085    4.136702    0.000000   -2.485000
   514  Cl    s     4.136702    0.371085    0.371085    0.000000   -2.485000
   515  Cl    s     0.371085    4.136702    4.136702    0.000000   -2.485000
   516  Cl    s     0.371085    4.136702    0.371085    0.000000   -2.485000
   517  Cl    s     0.371085    0.371085    4.136702    0.000000   -2.485000
   518  Cl    s     0.371085    0.371085    0.371085    0.000000   -2.485000
   519  O     s     2.253894    2.253894   -2.408270    0.000000   -2.183000
   520  O     s     2.253894   -2.408270    2.253894    0.000000   -2.183000
   521  O     s    -2.408270    2.253894    2.253894    0.000000   -2.183000
   522  O     s     2.253894    2.253894    6.916057    0.000000   -2.183000
   523  O     s     2.253894    6.916057    2.253894    0.000000   -2.183000
   524  O     s     6.916057    2.253894    2.253894    0.000000   -2.183000
   525  O     s     2.253894   -2.258233   -2.258233    0.000000   -2.183000
   526  O     s    -2.258233    2.253894   -2.258233    0.000000   -2.183000
   527  O     s    -2.258233   -2.258233    2.253894    0.000000   -2.183000
   528  O     s     2.253894    6.766021   -2.258233    0.000000   -2.183000
   529  O     s     2.253894   -2.258233    6.766021    0.000000   -2.183000
   530  O     s     6.766021    2.253894   -2.258233    0.000000   -2.183000
   531  O     s     6.766021   -2.258233    2.253894    0.000000   -2.183000
   532  O     s    -2.258233    2.253894    6.766021    0.000000   -2.183000
   533  O     s    -2.258233    6.766021    2.253894    0.000000   -2.183000
   534  O     s     2.253894    6.766021    6.766021    0.000000   -2.183000
   535  O     s     6.766021    2.253894    6.766021    0.000000   -2.183000
   536  O     s     6.766021    6.766021    2.253894    0.000000   -2.183000
   537  Cl    s     4.529362    4.529362    8.971954    0.000000   -2.485000
   538  Cl    s     4.529362    4.529362   -4.464167    0.000000   -2.485000
   539  Cl    s     4.529362    8.971954    4.529362    0.000000   -2.485000
   540  Cl    s     4.529362    8.971954   -0.021575    0.000000   -2.485000
   541  Cl    s     4.529362   -0.021575    8.971954    0.000000   -2.485000
   542  Cl    s     4.529362   -0.021575   -4.464167    0.000000   -2.485000
   543  Cl    s     4.529362   -4.464167    4.529362    0.000000   -2.485000
   544  Cl    s     4.529362   -4.464167   -0.021575    0.000000   -2.485000
   545  Cl    s     8.971954    4.529362    4.529362    0.000000   -2.485000
   546  Cl    s     8.971954    4.529362   -0.021575    0.000000   -2.485000
   547  Cl    s     8.971954   -0.021575    4.529362    0.000000   -2.485000
   548  Cl    s     8.971954   -0.021575   -0.021575    0.000000   -2.485000
   549  Cl    s    -0.021575    4.529362    8.971954    0.000000   -2.485000
   550  Cl    s    -0.021575    4.529362   -4.464167    0.000000   -2.485000
   551  Cl    s    -0.021575    8.971954    4.529362    0.000000   -2.485000
   552  Cl    s    -0.021575    8.971954   -0.021575    0.000000   -2.485000
   553  Cl    s    -0.021575   -0.021575    8.971954    0.000000   -2.485000
   554  Cl    s    -0.021575   -0.021575   -4.464167    0.000000   -2.485000
   555  Cl    s    -0.021575   -4.464167    4.529362    0.000000   -2.485000
   556  Cl    s    -0.021575   -4.464167   -0.021575    0.000000   -2.485000
   557  Cl    s    -4.464167    4.529362    4.529362    0.000000   -2.485000
   558  Cl    s    -4.464167    4.529362   -0.021575    0.000000   -2.485000
   559  Cl    s    -4.464167   -0.021575    4.529362    0.000000   -2.485000
   560  Cl    s    -4.464167   -0.021575   -0.021575    0.000000   -2.485000
   561  O     s     6.758788   -2.251000   -2.251000    0.000000   -2.183000
   562  O     s    -2.251000    6.758788   -2.251000    0.000000   -2.183000
   563  O     s    -2.251000   -2.251000    6.758788    0.000000   -2.183000
[...]
   649  Cl    s     4.498716   13.478654    4.498716    0.000000   -2.485000
   650  Cl    s     4.498716   13.478654    0.009071    0.000000   -2.485000
   651  Cl    s     4.498716    0.009071   13.478654    0.000000   -2.485000
   652  Cl    s     4.498716    0.009071   -8.970866    0.000000   -2.485000
   653  Cl    s     4.498716   -8.970866    4.498716    0.000000   -2.485000
   654  Cl    s     4.498716   -8.970866    0.009071    0.000000   -2.485000
   655  Cl    s    13.478654    4.498716    4.498716    0.000000   -2.485000
   656  Cl    s    13.478654    4.498716    0.009071    0.000000   -2.485000
   657  Cl    s    13.478654    0.009071    4.498716    0.000000   -2.485000
   658  Cl    s    13.478654    0.009071    0.009071    0.000000   -2.485000
   659  Cl    s     0.009071    4.498716   13.478654    0.000000   -2.485000
   660  Cl    s     0.009071    4.498716   -8.970866    0.000000   -2.485000
   661  Cl    s     0.009071   13.478654    4.498716    0.000000   -2.485000
   662  Cl    s     0.009071   13.478654    0.009071    0.000000   -2.485000
   663  Cl    s     0.009071    0.009071   13.478654    0.000000   -2.485000
   664  Cl    s     0.009071    0.009071   -8.970866    0.000000   -2.485000
   665  Cl    s     0.009071   -8.970866    4.498716    0.000000   -2.485000
   666  Cl    s     0.009071   -8.970866    0.009071    0.000000   -2.485000
   667  Cl    s    -8.970866    4.498716    4.498716    0.000000   -2.485000
   668  Cl    s    -8.970866    4.498716    0.009071    0.000000   -2.485000
   669  Cl    s    -8.970866    0.009071    4.498716    0.000000   -2.485000
   670  Cl    s    -8.970866    0.009071    0.009071    0.000000   -2.485000
   671  Cl    s     8.986736    8.986736    8.986736    0.000000   -2.485000
   672  Cl    s     8.986736    8.986736   -4.478949    0.000000   -2.485000
   673  Cl    s     8.986736   -4.478949    8.986736    0.000000   -2.485000
   674  Cl    s     8.986736   -4.478949   -4.478949    0.000000   -2.485000
   675  Cl    s    -4.478949    8.986736    8.986736    0.000000   -2.485000
   676  Cl    s    -4.478949    8.986736   -4.478949    0.000000   -2.485000
   677  Cl    s    -4.478949   -4.478949    8.986736    0.000000   -2.485000
   678  Cl    s    -4.478949   -4.478949   -4.478949    0.000000   -2.485000
   679  O     s     2.253894   11.266906   11.266906    0.000000   -2.183000
   680  O     s     2.253894   11.266906   -6.759119    0.000000   -2.183000
   681  O     s     2.253894   -6.759119   11.266906    0.000000   -2.183000
   682  O     s     2.253894   -6.759119   -6.759119    0.000000   -2.183000
   683  O     s    11.266906    2.253894   11.266906    0.000000   -2.183000
   684  O     s    11.266906    2.253894   -6.759119    0.000000   -2.183000
   685  O     s    11.266906   11.266906    2.253894    0.000000   -2.183000
   686  O     s    11.266906   -6.759119    2.253894    0.000000   -2.183000
   687  O     s    -6.759119    2.253894   11.266906    0.000000   -2.183000
   688  O     s    -6.759119    2.253894   -6.759119    0.000000   -2.183000
   689  O     s    -6.759119   11.266906    2.253894    0.000000   -2.183000
   690  O     s    -6.759119   -6.759119    2.253894    0.000000   -2.183000
--------------------------------------------------------------------------------

  Final coordinates of symmetry reduced region 1 (relative to defect centre):

--------------------------------------------------------------------------------
   No.  Atomic        x           y           z          Charge
        Label       (Angs)      (Angs)      (Angs)         (e) 
--------------------------------------------------------------------------------
     1  Na    c     0.000000    0.000000    2.494843    1.000000
     2  Cl    c     1.916243    1.916243    1.916243    1.485000
     3  O     c     0.000000    0.000000   -4.662238    0.183000
     4  Na    c     0.000000   -4.629738    2.266018    1.000000
     5  O     c     0.000000   -4.512096   -4.512096    0.183000
     6  Na    c    -4.606846   -4.606846    2.259331    1.000000
     7  Na    c     0.000000    0.000000    6.862753    1.000000
     8  Cl    c     2.275163    2.275163    6.725262    1.485000
     9  O     c     4.504872   -4.504872   -4.504872    0.183000
    10  Na    c     0.000000   -4.529457    6.781368    1.000000
    11  O     c     0.000000    0.000000    9.070601    0.183000
    12  Na    c     0.000000    9.107459    2.260375    1.000000
    13  Na    c     6.772542   -4.529206   -4.529206    1.000000
    14  Cl    c     2.238254    6.723309    6.723309    1.485000
    15  O     c     0.000000    9.026992   -4.512540    0.183000
    16  Na    c     9.036072   -4.505108    2.257765    1.000000
    17  O     c     9.023019   -4.511977   -4.511977    0.183000
    18  Na    c     0.000000    0.000000   11.299690    1.000000
    19  Na    c     0.000000    9.025552    6.766555    1.000000
    20  Cl    c     2.246954    2.246954   11.230972    1.485000
    21  Cl    c     6.736092    6.736092    6.736092    1.485000
    22  Na    c     0.000000    4.548712   11.280383    1.000000
    23  Na    c     4.512375    9.039047    6.766794    1.000000
    24  O     c     0.000000    9.013009    9.013009    0.183000
    25  Na    c    -4.526489   -4.526489   11.279411    1.000000
    26  Na    c     9.054120    9.054120    2.255259    1.000000
    27  Cl    s     1.882808    1.882808    1.882808   -2.485000
    28  O     s     0.000000    0.000000   -4.662164   -2.183000
    29  O     s     0.000000   -4.512127   -4.512127   -2.183000
    30  Cl    s     2.275469    2.275469    6.718060   -2.485000
    31  O     s     4.504894   -4.504894   -4.504894   -2.183000
    32  O     s     0.000000    0.000000    9.070595   -2.183000
    33  Cl    s     2.236019    6.714940    6.714940   -2.485000
    34  O     s     0.000000    9.026999   -4.512547   -2.183000
    35  O     s     9.023021   -4.511981   -4.511981   -2.183000
    36  Cl    s     2.244823    2.244823   11.224760   -2.485000
    37  Cl    s     6.732843    6.732843    6.732843   -2.485000
    38  O     s     0.000000    9.013013    9.013013   -2.183000
--------------------------------------------------------------------------------


  Final derivatives for region 1 :

--------------------------------------------------------------------------------
   No.  Atomic          x             y             z            Radius
        Label       (eV/Angs)     (eV/Angs)     (eV/Angs)       (eV/Angs)
--------------------------------------------------------------------------------
     1  Na    c       0.000000      0.000000      0.000807      0.000000
     2  Cl    c       0.004749      0.000000      0.000000      0.000000
     3  O     c       0.000000      0.000000     -0.000382      0.000000
     4  Na    c       0.000000     -0.001448     -0.000552      0.000000
     5  O     c       0.000000     -0.000204      0.000000      0.000000
     6  Na    c       0.000728      0.000000      0.000085      0.000000
     7  Na    c       0.000000      0.000000      0.000803      0.000000
     8  Cl    c       0.002175      0.000000      0.003330      0.000000
     9  O     c       0.000130      0.000000      0.000000      0.000000
    10  Na    c       0.000000     -0.000216      0.002047      0.000000
    11  O     c       0.000000      0.000000      0.000078      0.000000
    12  Na    c       0.000000      0.000965      0.000676      0.000000
    13  Na    c       0.001305     -0.000938      0.000000      0.000000
    14  Cl    c       0.000423      0.003361      0.000000      0.000000
    15  O     c       0.000000      0.000227     -0.000081      0.000000
    16  Na    c       0.002506     -0.001044      0.000727      0.000000
    17  O     c       0.000178     -0.000157      0.000000      0.000000
    18  Na    c       0.000000      0.000000      0.000368      0.000000
    19  Na    c       0.000000      0.001252      0.000830      0.000000
    20  Cl    c       0.000623      0.000000      0.001396      0.000000
    21  Cl    c       0.001046      0.000000      0.000000      0.000000
    22  Na    c       0.000000      0.000415      0.001051      0.000000
    23  Na    c       0.000886      0.001969      0.001462      0.000000
    24  O     c       0.000000      0.000117      0.000000      0.000000
    25  Na    c      -0.000680      0.000000      0.000823      0.000000
    26  Na    c       0.001713      0.000000      0.000166      0.000000
    27  Cl    s      -0.006010      0.000000      0.000000      0.000000
    28  O     s       0.000000      0.000000      0.003977      0.000000
    29  O     s       0.000000      0.005365      0.000000      0.000000
    30  Cl    s      -0.004047      0.000000     -0.004970      0.000000
    31  O     s      -0.003855      0.000000      0.000000      0.000000
    32  O     s       0.000000      0.000000     -0.000818      0.000000
    33  Cl    s      -0.000972     -0.003672      0.000000      0.000000
    34  O     s       0.000000     -0.002821      0.001109      0.000000
    35  O     s      -0.002182      0.001806      0.000000      0.000000
    36  Cl    s      -0.000779      0.000000     -0.002086      0.000000
    37  Cl    s      -0.001655      0.000000      0.000000      0.000000
    38  O     s       0.000000     -0.001329      0.000000      0.000000
--------------------------------------------------------------------------------

  Comparison of initial and final region 1 : 

--------------------------------------------------------------------------------
  Parameter   Initial value   Final value   Difference    Units      Percent
--------------------------------------------------------------------------------
      1 x          2.253894      2.253894     0.000000    Cartesian    0.00
      1 y          2.253894      2.253894     0.000000    Cartesian    0.00
      1 z          4.507787      4.748737     0.240949    Cartesian    5.35
      2 x          4.507787      4.170137    -0.337650    Cartesian   -7.49
      2 y          4.507787      4.170137    -0.337650    Cartesian   -7.49
      2 z          4.507787      4.170137    -0.337650    Cartesian   -7.49
      3 x          2.253894      2.253894     0.000000    Cartesian    0.00
      3 y          2.253894      2.253894     0.000000    Cartesian    0.00
      3 z         -2.253894     -2.408345    -0.154451    Cartesian    6.85
      4 x          2.253894      2.253894     0.000000    Cartesian    0.00
      4 y         -2.253894     -2.375844    -0.121951    Cartesian    5.41
      4 z          4.507787      4.519911     0.012124    Cartesian    0.27
      5 x          2.253894      2.253894     0.000000    Cartesian    0.00
      5 y         -2.253894     -2.258203    -0.004309    Cartesian    0.19
      5 z         -2.253894     -2.258203    -0.004309    Cartesian    0.19
      6 x         -2.253894     -2.352953    -0.099059    Cartesian    4.40
      6 y         -2.253894     -2.352953    -0.099059    Cartesian    4.40
      6 z          4.507787      4.513224     0.005437    Cartesian    0.12
      7 x          2.253894      2.253894     0.000000    Cartesian    0.00
      7 y          2.253894      2.253894     0.000000    Cartesian    0.00
      7 z          9.015574      9.116646     0.101072    Cartesian    1.12
      8 x          4.507787      4.529057     0.021270    Cartesian    0.47
      8 y          4.507787      4.529057     0.021270    Cartesian    0.47
      8 z          9.015574      8.979155    -0.036419    Cartesian   -0.40
      9 x          6.761681      6.758765    -0.002915    Cartesian   -0.04
      9 y         -2.253894     -2.250978     0.002915    Cartesian   -0.13
      9 z         -2.253894     -2.250978     0.002915    Cartesian   -0.13
     10 x          2.253894      2.253894     0.000000    Cartesian    0.00
     10 y         -2.253894     -2.275564    -0.021670    Cartesian    0.96
     10 z          9.015574      9.035262     0.019687    Cartesian    0.22
     11 x          2.253894      2.253894     0.000000    Cartesian    0.00
     11 y          2.253894      2.253894     0.000000    Cartesian    0.00
     11 z         11.269468     11.324495     0.055027    Cartesian    0.49
     12 x          2.253894      2.253894     0.000000    Cartesian    0.00
     12 y         11.269468     11.361353     0.091884    Cartesian    0.82
     12 z          4.507787      4.514269     0.006482    Cartesian    0.14
     13 x          9.015574      9.026435     0.010861    Cartesian    0.12
     13 y         -2.253894     -2.275313    -0.021419    Cartesian    0.95
     13 z         -2.253894     -2.275313    -0.021419    Cartesian    0.95
     14 x          4.507787      4.492147    -0.015640    Cartesian   -0.35
     14 y          9.015574      8.977202    -0.038372    Cartesian   -0.43
     14 z          9.015574      8.977202    -0.038372    Cartesian   -0.43
     15 x          2.253894      2.253894     0.000000    Cartesian    0.00
     15 y         11.269468     11.280886     0.011418    Cartesian    0.10
     15 z         -2.253894     -2.258646    -0.004753    Cartesian    0.21
     16 x         11.269468     11.289966     0.020498    Cartesian    0.18
     16 y         -2.253894     -2.251215     0.002679    Cartesian   -0.12
     16 z          4.507787      4.511658     0.003871    Cartesian    0.09
     17 x         11.269468     11.276912     0.007444    Cartesian    0.07
     17 y         -2.253894     -2.258084    -0.004190    Cartesian    0.19
     17 z         -2.253894     -2.258084    -0.004190    Cartesian    0.19
     18 x          2.253894      2.253894     0.000000    Cartesian    0.00
     18 y          2.253894      2.253894     0.000000    Cartesian    0.00
     18 z         13.523362     13.553584     0.030222    Cartesian    0.22
     19 x          2.253894      2.253894     0.000000    Cartesian    0.00
     19 y         11.269468     11.279446     0.009978    Cartesian    0.09
     19 z          9.015574      9.020448     0.004874    Cartesian    0.05
     20 x          4.507787      4.500848    -0.006939    Cartesian   -0.15
     20 y          4.507787      4.500848    -0.006939    Cartesian   -0.15
     20 z         13.523362     13.484865    -0.038496    Cartesian   -0.28
     21 x          9.015574      8.989986    -0.025589    Cartesian   -0.28
     21 y          9.015574      8.989986    -0.025589    Cartesian   -0.28
     21 z          9.015574      8.989986    -0.025589    Cartesian   -0.28
     22 x          2.253894      2.253894     0.000000    Cartesian    0.00
     22 y          6.761681      6.802606     0.040925    Cartesian    0.61
     22 z         13.523362     13.534276     0.010915    Cartesian    0.08
     23 x          6.761681      6.766268     0.004587    Cartesian    0.07
     23 y         11.269468     11.292941     0.023473    Cartesian    0.21
     23 z          9.015574      9.020688     0.005113    Cartesian    0.06
     24 x          2.253894      2.253894     0.000000    Cartesian    0.00
     24 y         11.269468     11.266902    -0.002566    Cartesian   -0.02
     24 z         11.269468     11.266902    -0.002566    Cartesian   -0.02
     25 x         -2.253894     -2.272596    -0.018702    Cartesian    0.83
     25 y         -2.253894     -2.272596    -0.018702    Cartesian    0.83
     25 z         13.523362     13.533304     0.009943    Cartesian    0.07
     26 x         11.269468     11.308014     0.038546    Cartesian    0.34
     26 y         11.269468     11.308014     0.038546    Cartesian    0.34
     26 z          4.507787      4.509153     0.001366    Cartesian    0.03
     27 x          4.507787      4.136702    -0.371085    Cartesian   -8.23
     27 y          4.507787      4.136702    -0.371085    Cartesian   -8.23
     27 z          4.507787      4.136702    -0.371085    Cartesian   -8.23
     28 x          2.253894      2.253894     0.000000    Cartesian    0.00
     28 y          2.253894      2.253894     0.000000    Cartesian    0.00
     28 z         -2.253894     -2.408270    -0.154377    Cartesian    6.85
     29 x          2.253894      2.253894     0.000000    Cartesian    0.00
     29 y         -2.253894     -2.258233    -0.004340    Cartesian    0.19
     29 z         -2.253894     -2.258233    -0.004340    Cartesian    0.19
     30 x          4.507787      4.529362     0.021575    Cartesian    0.48
     30 y          4.507787      4.529362     0.021575    Cartesian    0.48
     30 z          9.015574      8.971954    -0.043621    Cartesian   -0.48
     31 x          6.761681      6.758788    -0.002893    Cartesian   -0.04
     31 y         -2.253894     -2.251000     0.002893    Cartesian   -0.13
     31 z         -2.253894     -2.251000     0.002893    Cartesian   -0.13
     32 x          2.253894      2.253894     0.000000    Cartesian    0.00
     32 y          2.253894      2.253894     0.000000    Cartesian    0.00
     32 z         11.269468     11.324489     0.055021    Cartesian    0.49
     33 x          4.507787      4.489913    -0.017875    Cartesian   -0.40
     33 y          9.015574      8.968833    -0.046741    Cartesian   -0.52
     33 z          9.015574      8.968833    -0.046741    Cartesian   -0.52
     34 x          2.253894      2.253894     0.000000    Cartesian    0.00
     34 y         11.269468     11.280893     0.011425    Cartesian    0.10
     34 z         -2.253894     -2.258653    -0.004759    Cartesian    0.21
     35 x         11.269468     11.276915     0.007447    Cartesian    0.07
     35 y         -2.253894     -2.258087    -0.004194    Cartesian    0.19
     35 z         -2.253894     -2.258087    -0.004194    Cartesian    0.19
     36 x          4.507787      4.498716    -0.009071    Cartesian   -0.20
     36 y          4.507787      4.498716    -0.009071    Cartesian   -0.20
     36 z         13.523362     13.478654    -0.044708    Cartesian   -0.33
     37 x          9.015574      8.986736    -0.028838    Cartesian   -0.32
     37 y          9.015574      8.986736    -0.028838    Cartesian   -0.32
     37 z          9.015574      8.986736    -0.028838    Cartesian   -0.32
     38 x          2.253894      2.253894     0.000000    Cartesian    0.00
     38 y         11.269468     11.266906    -0.002562    Cartesian   -0.02
     38 z         11.269468     11.266906    -0.002562    Cartesian   -0.02
--------------------------------------------------------------------------------


  Time to end of optimisation  =        6.4429 seconds


  Peak dynamic memory used =      77.15 MB 


  Timing analysis for GULP :

--------------------------------------------------------------------------------
  Task / Subroutine                                          Time (Seconds)
--------------------------------------------------------------------------------
  Calculation of reciprocal space energy and derivatives          0.0007
  Calculation of reciprocal space energy using symmetry           0.0010
  Calculation of real space energy and derivatives                0.0038
  Calculation of real space energy using symmetry                 0.0093
  Calculation for region 1 energy and derivatives (2-b)           3.3289
  Calculation for region 2a energy                                2.8270
  Calculation for region 2b energy                                0.0002
  Calculation and manipulation of Hessian matrix                  0.0526
  Calculation of matrix inversion                                 0.0003
  Symmetry generation of equivalent positions                     0.0048
--------------------------------------------------------------------------------
  Total CPU time                                                  6.4430
--------------------------------------------------------------------------------


  Dump file written as Na3OCl.grs


  Job Finished at 13:17.43  3rd December   2020                               

