********************************************************************************
*                       GENERAL UTILITY LATTICE PROGRAM                        *
*                                 Julian Gale                                  *
*                       Curtin Institute for Computation                       *
*                    School of Molecular and Life Sciences                     *
*                    Curtin University, Western Australia                      *
********************************************************************************
* Version = 5.2.0 * Last modified =  10th September 2020                       *
********************************************************************************
*  optimise     - perform optimisation run                                     *
*  conp         - constant pressure calculation                                *
*  property     - calculate properties for final geometry                      *
*  defect       - perform defect calculation after bulk run                    *
*  compare      - compare initial and final structures                         *
********************************************************************************

  Job Started  at 13:17.23  3rd December   2020                               

  Number of CPUs =     1


  Total number of configurations input =      1

********************************************************************************
*  Input for Configuration =   1                                               *
********************************************************************************

  Formula = ClONa3                                                      

  Number of irreducible atoms/shells =       5


  Total number atoms/shells =       7

  Dimensionality = 3               :  Bulk   


  Symmetry :

  Crystal family                   :  Cubic       
  Crystal class  (Groth - 1921)    :  Cubic Hexakisoctahedral              

  Space group (centrosymmetric)    :  P M 3 M         

  Patterson group                  :  P m -3 m 

  Cartesian lattice vectors (Angstroms) :

        4.504000    0.000000    0.000000
        0.000000    4.504000    0.000000
        0.000000    0.000000    4.504000

  Cell parameters (Angstroms/Degrees):

  a =       4.5040    alpha =  90.0000
  b =       4.5040    beta  =  90.0000
  c =       4.5040    gamma =  90.0000

  Initial cell volume =          91.368216 Angs**3

  Temperature of configuration =   0.00     K 

  Pressure of configuration =         0.000 GPa 

  Fractional coordinates of asymmetric unit :

--------------------------------------------------------------------------------
   No.  Atomic       x           y          z         Charge      Occupancy
        Label      (Frac)      (Frac)     (Frac)        (e)         (Frac)  
--------------------------------------------------------------------------------
      1 Cl    c    0.000000    0.000000    0.000000     1.48500    1.000000    
      2 O     c    0.500000    0.500000    0.500000     0.18300    1.000000    
      3 Na    c    0.500000    0.500000    0.000000     1.00000    1.000000    
      4 Cl    s    0.000000    0.000000    0.000000    -2.48500    1.000000    
      5 O     s    0.500000    0.500000    0.500000    -2.18300    1.000000    
--------------------------------------------------------------------------------


  Constraints : 

--------------------------------------------------------------------------------
  Constraint no.      Unconstrained     Constrained    Coefficient    Offset
                         Variable         Variable
--------------------------------------------------------------------------------
           1              Strain 1        Strain 2       1.00000      0.0000
           2              Strain 1        Strain 3       1.00000      0.0000
--------------------------------------------------------------------------------


********************************************************************************
*  General input information                                                   *
********************************************************************************

  Species output for all configurations : 

--------------------------------------------------------------------------------
  Species    Type    Atomic    Atomic    Charge       Radii (Angs)     Library
                     Number     Mass       (e)     Cova   Ionic  VDW   Symbol
--------------------------------------------------------------------------------
    Na       Core       11      22.99   1.000000   0.970  0.000  2.300          
    O        Core        8      16.00   0.183000   0.730  0.000  1.360          
    O        Shell       8       0.00  -2.183000   0.730  0.000  0.000          
    Cl       Core       17      35.45   1.485000   0.990  0.000  1.650          
    Cl       Shell      17       0.00  -2.485000   0.990  0.000  0.000          
    Mg       Core       12      24.31   0.415000   1.100  0.000  0.000          
    Mg       Shell      12       0.00   1.585000   1.100  0.000  0.000          
    Ca       Core       20      40.08  -1.135000   0.990  0.000  0.000          
    Ca       Shell      20       0.00   3.135000   0.990  0.000  0.000          
    Sr       Core       38      87.62  -1.251000   1.120  0.000  0.000          
    Sr       Shell      38       0.00   3.251000   1.120  0.000  0.000          
    Ba       Core       56     137.33  -7.203000   1.340  0.000  0.000          
    Ba       Shell      56       0.00   9.203000   1.340  0.000  0.000          
--------------------------------------------------------------------------------


  Lattice summation method               =    Ewald          (3-D)
                                         =    Parry          (2-D)
                                         =    Saunders et al (1-D)
  Accuracy factor for lattice sums       =   12.000


  Analytic derivatives to be used

  Time limit = Infinity

  Maximum range for interatomic potentials =    100000.000000 Angstroms

  General interatomic potentials :

--------------------------------------------------------------------------------
Atom  Types   Potential      Parameter       Value         Units   Cutoffs(Ang)
  1     2                                                            Min /  Max 
--------------------------------------------------------------------------------
O    c O    s Spring (c-s)  Spring k 2       593.71600    eV*Ang^-2 0.000  0.800
                            Spring k 4       0.0000000    eV*Ang^-4 
--------------------------------------------------------------------------------
Cl   c Cl   s Spring (c-s)  Spring k 2       29.380000    eV*Ang^-2 0.000  0.800
                            Spring k 4       0.0000000    eV*Ang^-4 
--------------------------------------------------------------------------------
Mg   c Mg   s Spring (c-s)  Spring k 2       361.60000    eV*Ang^-2 0.000  0.800
                            Spring k 4       0.0000000    eV*Ang^-4 
--------------------------------------------------------------------------------
Ca   c Ca   s Spring (c-s)  Spring k 2       110.20000    eV*Ang^-2 0.000  0.800
                            Spring k 4       0.0000000    eV*Ang^-4 
--------------------------------------------------------------------------------
Sr   c Sr   s Spring (c-s)  Spring k 2       71.700000    eV*Ang^-2 0.000  0.800
                            Spring k 4       0.0000000    eV*Ang^-4 
--------------------------------------------------------------------------------
Ba   c Ba   s Spring (c-s)  Spring k 2       495.20000    eV*Ang^-2 0.000  0.800
                            Spring k 4       0.0000000    eV*Ang^-4 
--------------------------------------------------------------------------------
Na   c Na   c Buckingham    Buckingham A     1788.1900    eV        0.000 12.000
                            Buckingham rho  0.15900000    Ang       
                            Buckingham C     0.0000000    eV*Ang^6  
--------------------------------------------------------------------------------
Na   c O    s Buckingham    Buckingham A     1226.8400    eV        0.000 12.000
                            Buckingham rho  0.30700000    Ang       
                            Buckingham C     0.0000000    eV*Ang^6  
--------------------------------------------------------------------------------
Na   c Cl   s Buckingham    Buckingham A     2314.7000    eV        0.000 12.000
                            Buckingham rho  0.29000000    Ang       
                            Buckingham C     0.0000000    eV*Ang^6  
--------------------------------------------------------------------------------
O    s O    s Buckingham    Buckingham A     22764.300    eV        0.000 12.000
                            Buckingham rho  0.14900000    Ang       
                            Buckingham C     13.190000    eV*Ang^6  
--------------------------------------------------------------------------------
O    s Cl   s Buckingham    Buckingham A     8286.9100    eV        0.000 12.000
                            Buckingham rho  0.25900000    Ang       
                            Buckingham C     62.200000    eV*Ang^6  
--------------------------------------------------------------------------------
Cl   s Cl   s Buckingham    Buckingham A     1227.2000    eV        0.000 12.000
                            Buckingham rho  0.32100000    Ang       
                            Buckingham C     14.530000    eV*Ang^6  
--------------------------------------------------------------------------------
O    s Mg   s Buckingham    Buckingham A     1428.5000    eV        0.000 12.000
                            Buckingham rho  0.29450000    Ang       
                            Buckingham C     0.0000000    eV*Ang^6  
--------------------------------------------------------------------------------
Mg   s Cl   s Buckingham    Buckingham A     4914.5400    eV        0.000 12.000
                            Buckingham rho  0.25700000    Ang       
                            Buckingham C     0.0000000    eV*Ang^6  
--------------------------------------------------------------------------------
O    s Ca   s Buckingham    Buckingham A     1090.4000    eV        0.000 12.000
                            Buckingham rho  0.34370000    Ang       
                            Buckingham C     0.0000000    eV*Ang^6  
--------------------------------------------------------------------------------
Cl   s Ca   s Buckingham    Buckingham A     2302.0000    eV        0.000 12.000
                            Buckingham rho  0.34020000    Ang       
                            Buckingham C     0.0000000    eV*Ang^6  
--------------------------------------------------------------------------------
O    s Sr   s Buckingham    Buckingham A     959.10000    eV        0.000 12.000
                            Buckingham rho  0.37210000    Ang       
                            Buckingham C     0.0000000    eV*Ang^6  
--------------------------------------------------------------------------------
Cl   s Sr   s Buckingham    Buckingham A     2191.0900    eV        0.000 12.000
                            Buckingham rho  0.34570000    Ang       
                            Buckingham C     0.0000000    eV*Ang^6  
--------------------------------------------------------------------------------
O    s Ba   s Buckingham    Buckingham A     905.70000    eV        0.000 12.000
                            Buckingham rho  0.39760000    Ang       
                            Buckingham C     0.0000000    eV*Ang^6  
--------------------------------------------------------------------------------
Cl   s Ba   s Buckingham    Buckingham A     2704.5500    eV        0.000 12.000
                            Buckingham rho  0.35280000    Ang       
                            Buckingham C     0.0000000    eV*Ang^6  
--------------------------------------------------------------------------------

********************************************************************************
*  Output for configuration   1                                                *
********************************************************************************


  Components of energy : 

--------------------------------------------------------------------------------
  Interatomic potentials     =           5.13022605 eV    
  Monopole - monopole (real) =         -10.03624526 eV    
  Monopole - monopole (recip)=         -29.53581274 eV    
  Monopole - monopole (total)=         -39.57205800 eV    
--------------------------------------------------------------------------------
  Total lattice energy       =         -34.44183194 eV    
--------------------------------------------------------------------------------
  Total lattice energy       =           -3323.1103 kJ/(mole unit cells)
--------------------------------------------------------------------------------


  Number of variables =        1

  Maximum number of calculations  =          1000
  Maximum Hessian update interval =            10
  Maximum step size               =   1.000000000
  Maximum parameter tolerance     =   0.000010000
  Maximum function  tolerance     =   0.000010000
  Maximum gradient  tolerance     =   0.001000000
  Maximum gradient  component     =   0.010000000

  Symmetry constrained optimisation

  Symmetry used for second derivatives

  Cell parameters to be optimised using strains

  Newton-Raphson optimiser to be used

  BFGS hessian update to be used

  Lower half triangular hessian to be used

  Start of bulk optimisation :

  Cycle:      0 Energy:       -34.441832  Gnorm:      0.196570  CPU:    0.016
  ** Hessian calculated **
  Cycle:      1 Energy:       -34.441914  Gnorm:      0.000103  CPU:    0.020


  **** Optimisation achieved ****


  Final energy =     -34.44191447 eV
  Final Gnorm  =       0.00000000

  Components of energy : 

--------------------------------------------------------------------------------
  Interatomic potentials     =           5.09689708 eV    
  Monopole - monopole (real) =         -10.02781331 eV    
  Monopole - monopole (recip)=         -29.51099824 eV    
  Monopole - monopole (total)=         -39.53881155 eV    
--------------------------------------------------------------------------------
  Total lattice energy       =         -34.44191447 eV    
--------------------------------------------------------------------------------
  Total lattice energy       =           -3323.1183 kJ/(mole unit cells)
--------------------------------------------------------------------------------

  Final asymmetric unit coordinates :

--------------------------------------------------------------------------------
   No.  Atomic        x           y           z         Radius
        Label       (Frac)      (Frac)      (Frac)       (Angs) 
--------------------------------------------------------------------------------
     1  Cl    c     0.000000    0.000000    0.000000    0.000000
     2  O     c     0.500000    0.500000    0.500000    0.000000
     3  Na    c     0.500000    0.500000    0.000000    0.000000
     4  Cl    s     0.000000    0.000000    0.000000    0.000000
     5  O     s     0.500000    0.500000    0.500000    0.000000
--------------------------------------------------------------------------------

  Final Cartesian lattice vectors (Angstroms) :

        4.507787    0.000000    0.000000
        0.000000    4.507787    0.000000
        0.000000    0.000000    4.507787


  Final cell parameters and derivatives :

--------------------------------------------------------------------------------
       a            4.507787 Angstrom     dE/de1(xx)     0.000000 eV/strain
       b            4.507787 Angstrom     dE/de2(yy)     0.000000 eV/strain
       c            4.507787 Angstrom     dE/de3(zz)     0.000000 eV/strain
       alpha       90.000000 Degrees      dE/de4(yz)     0.000000 eV/strain
       beta        90.000000 Degrees      dE/de5(xz)     0.000000 eV/strain
       gamma       90.000000 Degrees      dE/de6(xy)     0.000000 eV/strain
--------------------------------------------------------------------------------

  Primitive cell volume =            91.598892 Angs**3

  Density of cell =      2.183054 g/cm**3

  Non-primitive cell volume =            91.598892 Angs**3


  Final internal derivatives :

--------------------------------------------------------------------------------
   No.  Atomic          a             b             c           Radius
        Label          (eV)          (eV)          (eV)        (eV/Angs)
--------------------------------------------------------------------------------
      1 Cl    c       0.000000      0.000000      0.000000      0.000000
      2 O     c       0.000000      0.000000      0.000000      0.000000
      3 Na    c       0.000000      0.000000      0.000000      0.000000
      4 Cl    s       0.000000      0.000000      0.000000      0.000000
      5 O     s       0.000000      0.000000      0.000000      0.000000
--------------------------------------------------------------------------------
  Maximum abs         0.000000      0.000000      0.000000      0.000000
--------------------------------------------------------------------------------

  Comparison of initial and final structures : 

--------------------------------------------------------------------------------
  Parameter   Initial value   Final value   Difference    Units      Percent
--------------------------------------------------------------------------------
    Volume        91.368216     91.598892     0.230676    Angs**3      0.25
    a              4.504000      4.507787     0.003787    Angstroms    0.08
    b              4.504000      4.507787     0.003787    Angstroms    0.08
    c              4.504000      4.507787     0.003787    Angstroms    0.08
    alpha         90.000000     90.000000     0.000000    Degrees      0.00
    beta          90.000000     90.000000     0.000000    Degrees      0.00
    gamma         90.000000     90.000000     0.000000    Degrees      0.00
      1 x          0.000000      0.000000     0.000000    Fractional   0.00
      1 y          0.000000      0.000000     0.000000    Fractional   0.00
      1 z          0.000000      0.000000     0.000000    Fractional   0.00
      2 x          0.500000      0.500000     0.000000    Fractional   0.00
      2 y          0.500000      0.500000     0.000000    Fractional   0.00
      2 z          0.500000      0.500000     0.000000    Fractional   0.00
      3 x          0.500000      0.500000     0.000000    Fractional   0.00
      3 y          0.500000      0.500000     0.000000    Fractional   0.00
      3 z          0.000000      0.000000     0.000000    Fractional   0.00
      4 x          0.000000      0.000000     0.000000    Fractional   0.00
      4 y          0.000000      0.000000     0.000000    Fractional   0.00
      4 z          0.000000      0.000000     0.000000    Fractional   0.00
      5 x          0.500000      0.500000     0.000000    Fractional   0.00
      5 y          0.500000      0.500000     0.000000    Fractional   0.00
      5 z          0.500000      0.500000     0.000000    Fractional   0.00
--------------------------------------------------------------------------------


  Born effective charge tensors : 

-------------------------------------------------------------------------------
  Atom             x           y             z
-------------------------------------------------------------------------------
    1 Cl    x      -1.0181     -0.0000      0.0000
            y      -0.0000     -1.0181      0.0000
            z       0.0000      0.0000     -1.0181
-------------------------------------------------------------------------------
    2 O     x      -2.2647      0.0000     -0.0000
            y       0.0000     -2.2647     -0.0000
            z      -0.0000     -0.0000     -2.2647
-------------------------------------------------------------------------------
    3 Na    x       1.2258     -0.0000      0.0000
            y      -0.0000      1.2258     -0.0000
            z       0.0000     -0.0000      0.8313
-------------------------------------------------------------------------------




  Elastic Constant Matrix: (Units=GPa)

-------------------------------------------------------------------------------
  Indices      1         2         3         4         5         6    
-------------------------------------------------------------------------------
       1     95.8177   20.0737   20.0737   -0.0000   -0.0000    0.0000
       2     20.0737   95.8177   20.0737   -0.0000   -0.0000    0.0000
       3     20.0737   20.0737   95.8177   -0.0000   -0.0000    0.0000
       4     -0.0000   -0.0000   -0.0000   20.0737   -0.0000    0.0000
       5     -0.0000   -0.0000   -0.0000   -0.0000   20.0737    0.0000
       6      0.0000    0.0000    0.0000    0.0000    0.0000   20.0737
-------------------------------------------------------------------------------


  Elastic Compliance Matrix: (Units=1/GPa)

-------------------------------------------------------------------------------
  Indices      1         2         3         4         5         6    
-------------------------------------------------------------------------------
       1    0.011253 -0.001949 -0.001949  0.000000  0.000000 -0.000000
       2   -0.001949  0.011253 -0.001949  0.000000  0.000000  0.000000
       3   -0.001949 -0.001949  0.011253  0.000000  0.000000 -0.000000
       4    0.000000  0.000000  0.000000  0.049816  0.000000 -0.000000
       5    0.000000  0.000000  0.000000  0.000000  0.049816 -0.000000
       6   -0.000000  0.000000 -0.000000 -0.000000 -0.000000  0.049816
-------------------------------------------------------------------------------

  Mechanical properties :

-------------------------------------------------------------------------------
  Convention :                    Reuss         Voigt         Hill
-------------------------------------------------------------------------------
  Bulk  Modulus (GPa)     =      45.32174      45.32174      45.32174
  Shear Modulus (GPa)     =      24.72085      27.19304      25.95695
-------------------------------------------------------------------------------
  Velocity S-wave (km/s)  =       3.36511       3.52937       3.44822
  Velocity P-wave (km/s)  =       5.98827       6.11304       6.05098
-------------------------------------------------------------------------------
  Compressibility (1/GPa) =    0.02206447
-------------------------------------------------------------------------------
  Stress axis :                     x             y             z
-------------------------------------------------------------------------------
  Youngs Moduli (GPa)     =      88.86373      88.86373      88.86373
-------------------------------------------------------------------------------
  Poissons Ratio (x)      =                     0.17321       0.17321
  Poissons Ratio (y)      =       0.17321                     0.17321
  Poissons Ratio (z)      =       0.17321       0.17321
-------------------------------------------------------------------------------


  Piezoelectric Strain Matrix: (Units=C/m**2)

-------------------------------------------------------------------------------
  Indices      1         2         3         4         5         6    
-------------------------------------------------------------------------------
       x    -0.00000  -0.00000  -0.00000   0.00000  -0.00000  -0.00000
       y    -0.00000  -0.00000   0.00000  -0.00000   0.00000   0.00000
       z    -0.00000  -0.00000  -0.00000  -0.00000   0.00000   0.00000
-------------------------------------------------------------------------------


  Piezoelectric Stress Matrix: (Units=10**-11 C/N)

-------------------------------------------------------------------------------
  Indices      1         2         3         4         5         6    
-------------------------------------------------------------------------------
       x    -0.00000   0.00000   0.00000   0.00000  -0.00000  -0.00000
       y    -0.00000  -0.00000   0.00000  -0.00000   0.00000   0.00000
       z     0.00000   0.00000  -0.00000  -0.00000   0.00000   0.00000
-------------------------------------------------------------------------------


  Static dielectric constant tensor : 

-------------------------------------------------------------------------------
              x         y         z
-------------------------------------------------------------------------------
       x    22.84729   0.00000   0.00000
       y     0.00000  22.84729  -0.00000
       z     0.00000  -0.00000  22.84729
--------------------------------------------------------------------------------

  High frequency dielectric constant tensor : 

-------------------------------------------------------------------------------
              x         y         z
-------------------------------------------------------------------------------
       x     1.47557   0.00000  -0.00000
       y     0.00000   1.47557  -0.00000
       z    -0.00000  -0.00000   1.47557
-------------------------------------------------------------------------------

  Static refractive indices : 

-------------------------------------------------------------------------------
    1 =    4.77988      2 =    4.77988      3 =    4.77988
-------------------------------------------------------------------------------

  High frequency refractive indices : 

-------------------------------------------------------------------------------
    1 =    1.21473      2 =    1.21473      3 =    1.21473
-------------------------------------------------------------------------------


  Time to end of optimisation =       0.0302 seconds

********************************************************************************
*  Defect calculation for configuration   1 :                                  *
********************************************************************************

  Total number of defects =      1

  Total charge on defect  =   1.00

  Defect centre is at   0.5000   0.5000   0.0000  Frac

  Region 1 radius =  13.0000      Number of ions =    698

  Number of symmetry inequivalent region 1 ions  =     79

  Region 2 radius =  21.0000      Number of ions =   2288

  Number of symmetry inequivalent region 2a ions =    196

  Region 2a mode = 4 : screened electrostatics due to region 1 
                       neglect correction to region 1 forces from 2a
                       region 2a displacements based on defects only

  Region 2a ions will only interact with defects in region 1

  Impurities:

--------------------------------------------------------------------------------
    Specification type     Symbol/Number         x          y          z
--------------------------------------------------------------------------------
    Frac/Symbol             Mg               0.500000   0.500000   0.000000
--------------------------------------------------------------------------------


  Symmetry reduced region 1 (Relative to defect centre) :

--------------------------------------------------------------------------------
   No.   Atomic       x            y             z       Radius  Multiplicity   
         Label      (Angs)       (Angs)        (Angs)    (Angs)     
--------------------------------------------------------------------------------
     1  Mg    c      0.0000       0.0000       0.0000    0.0000     1    Defect
     2  O     c      0.0000       0.0000      -2.2539 *  0.0000     2          
     3  Cl    c      2.2539 *     2.2539       0.0000    0.0000     4          
     4  Na    c      2.2539 *     0.0000      -2.2539 *  0.0000     8          
     5  Na    c      0.0000       0.0000       4.5078 *  0.0000     2          
     6  Na    c      0.0000      -4.5078 *     0.0000    0.0000     4          
     7  O     c      0.0000      -4.5078 *    -2.2539 *  0.0000     8          
     8  Na    c      2.2539 *    -4.5078 *    -2.2539 *  0.0000    16          
     9  Cl    c      2.2539 *     2.2539       4.5078 *  0.0000     8          
    10  Na    c      0.0000      -4.5078 *     4.5078 *  0.0000     8          
    11  Na    c     -4.5078 *    -4.5078       0.0000    0.0000     4          
    12  O     c     -4.5078 *    -4.5078      -2.2539 *  0.0000     8          
    13  O     c      0.0000       0.0000       6.7617 *  0.0000     2          
    14  Cl    c      2.2539 *     6.7617 *     0.0000    0.0000     8          
    15  Na    c      2.2539 *     0.0000       6.7617 *  0.0000     8          
    16  Na    c      6.7617 *     0.0000      -2.2539 *  0.0000     8          
    17  Na    c      4.5078 *    -4.5078       4.5078 *  0.0000     8          
    18  O     c      0.0000      -4.5078 *     6.7617 *  0.0000     8          
    19  Cl    c      2.2539 *     6.7617 *     4.5078 *  0.0000    16          
    20  Na    c      2.2539 *    -4.5078 *     6.7617 *  0.0000    16          
    21  Na    c      6.7617 *    -4.5078 *    -2.2539 *  0.0000    16          
    22  Na    c      0.0000       0.0000       9.0156 *  0.0000     2          
    23  Na    c      0.0000       9.0156 *     0.0000    0.0000     4          
    24  O     c      0.0000       9.0156 *    -2.2539 *  0.0000     8          
    25  O     c      4.5078 *     4.5078       6.7617 *  0.0000     8          
    26  Cl    c      2.2539 *     2.2539       9.0156 *  0.0000     8          
    27  Na    c      2.2539 *     9.0156 *    -2.2539 *  0.0000    16          
    28  Cl    c      6.7617 *     6.7617       0.0000    0.0000     4          
    29  Na    c      6.7617 *     0.0000       6.7617 *  0.0000     8          
    30  Na    c      0.0000       9.0156 *     4.5078 *  0.0000     8          
    31  Na    c      0.0000      -4.5078 *     9.0156 *  0.0000     8          
    32  Na    c      9.0156 *    -4.5078 *     0.0000    0.0000     8          
    33  O     c      9.0156 *    -4.5078 *    -2.2539 *  0.0000    16          
    34  Cl    c      6.7617 *     6.7617       4.5078 *  0.0000     8          
    35  Na    c      6.7617 *    -4.5078 *     6.7617 *  0.0000    16          
    36  Na    c      9.0156 *    -4.5078 *     4.5078 *  0.0000    16          
    37  Na    c      4.5078 *     4.5078       9.0156 *  0.0000     8          
    38  O     c      0.0000       0.0000      11.2695 *  0.0000     2          
    39  O     c      0.0000       9.0156 *     6.7617 *  0.0000     8          
    40  Cl    c      2.2539 *    11.2695 *     0.0000    0.0000     8          
    41  Na    c      2.2539 *     0.0000      11.2695 *  0.0000     8          
    42  Na    c     11.2695 *     0.0000      -2.2539 *  0.0000     8          
    43  Cl    c      2.2539 *     6.7617 *     9.0156 *  0.0000    16          
    44  Na    c      2.2539 *     9.0156 *     6.7617 *  0.0000    16          
    45  Na    c      6.7617 *     9.0156 *    -2.2539 *  0.0000    16          
    46  O     c      0.0000       4.5078 *    11.2695 *  0.0000     8          
    47  O     c      4.5078 *     9.0156 *     6.7617 *  0.0000    16          
    48  Cl    c      2.2539 *    11.2695 *     4.5078 *  0.0000    16          
    49  Na    c      2.2539 *     4.5078 *    11.2695 *  0.0000    16          
    50  Na    c     11.2695 *     4.5078 *    -2.2539 *  0.0000    16          
    51  Na    c      0.0000       9.0156 *     9.0156 *  0.0000     8          
    52  Na    c      9.0156 *     9.0156       0.0000    0.0000     4          
    53  O     c     -4.5078 *    -4.5078      11.2695 *  0.0000     8          
    54  O     c      9.0156 *     9.0156      -2.2539 *  0.0000     8          
    55  Mg    s      0.0000       0.0000       0.0000    0.0000     1    Defect
    56  O     s      0.0000       0.0000      -2.2539 *  0.0000     2          
    57  Cl    s      2.2539 *     2.2539       0.0000    0.0000     4          
    58  O     s      0.0000      -4.5078 *    -2.2539 *  0.0000     8          
    59  Cl    s      2.2539 *     2.2539       4.5078 *  0.0000     8          
    60  O     s     -4.5078 *    -4.5078      -2.2539 *  0.0000     8          
    61  O     s      0.0000       0.0000       6.7617 *  0.0000     2          
    62  Cl    s      2.2539 *     6.7617 *     0.0000    0.0000     8          
    63  O     s      0.0000      -4.5078 *     6.7617 *  0.0000     8          
    64  Cl    s      2.2539 *     6.7617 *     4.5078 *  0.0000    16          
    65  O     s      0.0000       9.0156 *    -2.2539 *  0.0000     8          
    66  O     s      4.5078 *     4.5078       6.7617 *  0.0000     8          
    67  Cl    s      2.2539 *     2.2539       9.0156 *  0.0000     8          
    68  Cl    s      6.7617 *     6.7617       0.0000    0.0000     4          
    69  O     s      9.0156 *    -4.5078 *    -2.2539 *  0.0000    16          
    70  Cl    s      6.7617 *     6.7617       4.5078 *  0.0000     8          
    71  O     s      0.0000       0.0000      11.2695 *  0.0000     2          
    72  O     s      0.0000       9.0156 *     6.7617 *  0.0000     8          
    73  Cl    s      2.2539 *    11.2695 *     0.0000    0.0000     8          
    74  Cl    s      2.2539 *     6.7617 *     9.0156 *  0.0000    16          
    75  O     s      0.0000       4.5078 *    11.2695 *  0.0000     8          
    76  O     s      4.5078 *     9.0156 *     6.7617 *  0.0000    16          
    77  Cl    s      2.2539 *    11.2695 *     4.5078 *  0.0000    16          
    78  O     s     -4.5078 *    -4.5078      11.2695 *  0.0000     8          
    79  O     s      9.0156 *     9.0156      -2.2539 *  0.0000     8          
--------------------------------------------------------------------------------


  Constraints on symmetry reduced coordinates :

--------------------------------------------------------------------------------
  Constraint no.      Unconstrained     Constrained    Coefficient    
                         Variable         Variable
--------------------------------------------------------------------------------
           1                 3 x             3 y         1.00000
           2                 9 x             9 y         1.00000
           3                11 x            11 y         1.00000
           4                12 x            12 y         1.00000
           5                17 x            17 y        -1.00000
           6                25 x            25 y         1.00000
           7                26 x            26 y         1.00000
           8                28 x            28 y         1.00000
           9                34 x            34 y         1.00000
          10                37 x            37 y         1.00000
          11                52 x            52 y         1.00000
          12                53 x            53 y         1.00000
          13                54 x            54 y         1.00000
          14                57 x            57 y         1.00000
          15                59 x            59 y         1.00000
          16                60 x            60 y         1.00000
          17                66 x            66 y         1.00000
          18                67 x            67 y         1.00000
          19                68 x            68 y         1.00000
          20                70 x            70 y         1.00000
          21                78 x            78 y         1.00000
          22                79 x            79 y         1.00000
--------------------------------------------------------------------------------


  Components of defect energy : 

--------------------------------------------------------------------------------
  Region 1 - region 1                   =    -44.94449781 eV
  Region 1 - region 2a (unrelaxed)      =     34.32309939 eV
  Region 1 - 2a (relaxed - correction)  =     -0.42085422 eV
  Region 1 (Total)                      =    -11.04225265 eV
  Region 2a                             =      0.21049908 eV
  Region 2b                             =     -0.32662240 eV
--------------------------------------------------------------------------------
  Total defect energy                   =    -11.15837596 eV
--------------------------------------------------------------------------------

  Largest displacement in region 2 =   0.0176 Angstroms


  Number of variables =      158

  Maximum number of calculations  =        1000
  Maximum Hessian update interval =          10
  Maximum step size               =   1.0000000
  Maximum parameter tolerance     =   0.0000100
  Maximum function  tolerance     =   0.0000100
  Maximum gradient  tolerance     =   0.0010000

  Symmetry adapted optimisation

  Symmetry to be used for second derivatives

  Newton-Raphson optimiser to be used

  BFGS hessian update to be used

  Lower half triangular hessian to be used

  Start of defect optimisation :

  Cycle:      0 Defect Energy: -11.158376  Gnorm:     0.254844  CPU:    2.083
  ** Hessian calculated **
  Cycle:      1 Defect Energy: -13.579421  Gnorm:     0.216184  CPU:    4.503
  Cycle:      2 Defect Energy: -15.961613  Gnorm:     0.108202  CPU:    6.315
  ** Hessian calculated **
  Cycle:      3 Defect Energy: -16.425076  Gnorm:     0.044376  CPU:    8.239
  Cycle:      4 Defect Energy: -16.475355  Gnorm:     0.029387  CPU:    9.762
  Cycle:      5 Defect Energy: -16.499137  Gnorm:     0.021954  CPU:   11.553
  Cycle:      6 Defect Energy: -16.509275  Gnorm:     0.017045  CPU:   11.940
  Cycle:      7 Defect Energy: -16.522172  Gnorm:     0.014508  CPU:   12.338
  Cycle:      8 Defect Energy: -16.539154  Gnorm:     0.012689  CPU:   12.707
  Cycle:      9 Defect Energy: -16.557897  Gnorm:     0.011515  CPU:   13.101
  Cycle:     10 Defect Energy: -16.573694  Gnorm:     0.011805  CPU:   13.529
  Cycle:     11 Defect Energy: -16.586785  Gnorm:     0.012765  CPU:   14.032
  Cycle:     12 Defect Energy: -16.598569  Gnorm:     0.013214  CPU:   14.428
  ** Hessian calculated **
  Cycle:     13 Defect Energy: -16.641710  Gnorm:     0.010712  CPU:   15.280
  Cycle:     14 Defect Energy: -16.682056  Gnorm:     0.007606  CPU:   15.669
  Cycle:     15 Defect Energy: -16.700802  Gnorm:     0.005367  CPU:   16.044
  Cycle:     16 Defect Energy: -16.709692  Gnorm:     0.003793  CPU:   16.410
  Cycle:     17 Defect Energy: -16.713965  Gnorm:     0.002684  CPU:   16.775
  Cycle:     18 Defect Energy: -16.715982  Gnorm:     0.001912  CPU:   17.142
  Cycle:     19 Defect Energy: -16.716898  Gnorm:     0.001381  CPU:   17.503
  Cycle:     20 Defect Energy: -16.717271  Gnorm:     0.001034  CPU:   17.865
  Cycle:     21 Defect Energy: -16.717380  Gnorm:     0.000834  CPU:   18.235
  ** Hessian calculated **
  Cycle:     22 Defect Energy: -16.717568  Gnorm:     0.000822  CPU:   19.132
  ** Hessian calculated **
  Cycle:     23 Defect Energy: -16.717577  Gnorm:     0.000658  CPU:   19.674
  Cycle:     24 Defect Energy: -16.717594  Gnorm:     0.000613  CPU:   19.900
  Cycle:     25 Defect Energy: -16.717608  Gnorm:     0.000575  CPU:   21.028
  Cycle:     26 Defect Energy: -16.717641  Gnorm:     0.000559  CPU:   22.909
  Cycle:     27 Defect Energy: -16.717649  Gnorm:     0.000562  CPU:   24.776
  Cycle:     28 Defect Energy: -16.717680  Gnorm:     0.000562  CPU:   25.530
  Cycle:     29 Defect Energy: -16.717690  Gnorm:     0.000564  CPU:   25.977
  Cycle:     30 Defect Energy: -16.717707  Gnorm:     0.000571  CPU:   26.287
  Cycle:     31 Defect Energy: -16.717732  Gnorm:     0.000570  CPU:   26.528
  Cycle:     32 Defect Energy: -16.717748  Gnorm:     0.000565  CPU:   26.769
  ** Hessian calculated **
  Cycle:     33 Defect Energy: -16.717764  Gnorm:     0.000495  CPU:   27.678
  Cycle:     34 Defect Energy: -16.717776  Gnorm:     0.000475  CPU:   28.123
  Cycle:     35 Defect Energy: -16.717798  Gnorm:     0.000453  CPU:   28.567
  Cycle:     36 Defect Energy: -16.717816  Gnorm:     0.000444  CPU:   29.023
  Cycle:     37 Defect Energy: -16.717836  Gnorm:     0.000436  CPU:   29.471
  Cycle:     38 Defect Energy: -16.717840  Gnorm:     0.000443  CPU:   29.921
  Cycle:     39 Defect Energy: -16.717855  Gnorm:     0.000453  CPU:   30.444
  Cycle:     40 Defect Energy: -16.717856  Gnorm:     0.000469  CPU:   30.890
  Cycle:     41 Defect Energy: -16.717867  Gnorm:     0.000481  CPU:   31.318
  Cycle:     42 Defect Energy: -16.717875  Gnorm:     0.000503  CPU:   31.743
  ** Hessian calculated **
  Cycle:     43 Defect Energy: -16.717877  Gnorm:     0.000483  CPU:   32.706
  Cycle:     44 Defect Energy: -16.717882  Gnorm:     0.000475  CPU:   33.144
  Cycle:     45 Defect Energy: -16.717888  Gnorm:     0.000457  CPU:   33.581
  Cycle:     46 Defect Energy: -16.717893  Gnorm:     0.000442  CPU:   34.036
  Cycle:     47 Defect Energy: -16.717904  Gnorm:     0.000429  CPU:   34.497
  Cycle:     48 Defect Energy: -16.717900  Gnorm:     0.000431  CPU:   34.926
  Cycle:     49 Defect Energy: -16.717912  Gnorm:     0.000426  CPU:   35.445
  Cycle:     50 Defect Energy: -16.717910  Gnorm:     0.000432  CPU:   35.869
  Cycle:     51 Defect Energy: -16.717916  Gnorm:     0.000437  CPU:   36.282
  Cycle:     52 Defect Energy: -16.717923  Gnorm:     0.000464  CPU:   36.696
  ** Hessian calculated **
  Cycle:     53 Defect Energy: -16.717930  Gnorm:     0.000445  CPU:   37.618
  Cycle:     54 Defect Energy: -16.717937  Gnorm:     0.000447  CPU:   38.032
  Cycle:     55 Defect Energy: -16.717948  Gnorm:     0.000436  CPU:   38.447
  Cycle:     56 Defect Energy: -16.717961  Gnorm:     0.000435  CPU:   38.860
  Cycle:     57 Defect Energy: -16.717971  Gnorm:     0.000440  CPU:   39.270
  Cycle:     58 Defect Energy: -16.717980  Gnorm:     0.000448  CPU:   39.682
  Cycle:     59 Defect Energy: -16.717982  Gnorm:     0.000465  CPU:   40.096
  Cycle:     60 Defect Energy: -16.717992  Gnorm:     0.000478  CPU:   40.595
  Cycle:     61 Defect Energy: -16.717992  Gnorm:     0.000498  CPU:   41.009
  Cycle:     62 Defect Energy: -16.718003  Gnorm:     0.000522  CPU:   41.405
  ** Hessian calculated **
  Cycle:     63 Defect Energy: -16.718001  Gnorm:     0.000511  CPU:   42.287
  Cycle:     64 Defect Energy: -16.718008  Gnorm:     0.000506  CPU:   42.680
  Cycle:     65 Defect Energy: -16.718009  Gnorm:     0.000494  CPU:   43.075
  Cycle:     66 Defect Energy: -16.718016  Gnorm:     0.000482  CPU:   43.470
  Cycle:     67 Defect Energy: -16.718019  Gnorm:     0.000476  CPU:   43.861
  Cycle:     68 Defect Energy: -16.718023  Gnorm:     0.000473  CPU:   44.258
  Cycle:     69 Defect Energy: -16.718022  Gnorm:     0.000479  CPU:   44.667
  Cycle:     70 Defect Energy: -16.718028  Gnorm:     0.000479  CPU:   45.078
  Cycle:     71 Defect Energy: -16.718027  Gnorm:     0.000492  CPU:   45.642
  Cycle:     72 Defect Energy: -16.718037  Gnorm:     0.000514  CPU:   46.021
  ** Hessian calculated **
  Cycle:     73 Defect Energy: -16.718043  Gnorm:     0.000500  CPU:   46.884
  Cycle:     74 Defect Energy: -16.718049  Gnorm:     0.000503  CPU:   47.278
  Cycle:     75 Defect Energy: -16.718059  Gnorm:     0.000496  CPU:   47.694
  Cycle:     76 Defect Energy: -16.718071  Gnorm:     0.000497  CPU:   48.077
  Cycle:     77 Defect Energy: -16.718081  Gnorm:     0.000505  CPU:   48.455
  Cycle:     78 Defect Energy: -16.718089  Gnorm:     0.000513  CPU:   48.839
  Cycle:     79 Defect Energy: -16.718092  Gnorm:     0.000529  CPU:   49.231
  Cycle:     80 Defect Energy: -16.718102  Gnorm:     0.000539  CPU:   49.631
  Cycle:     81 Defect Energy: -16.718100  Gnorm:     0.000565  CPU:   50.006
  Cycle:     82 Defect Energy: -16.718115  Gnorm:     0.000592  CPU:   50.471
  ** Hessian calculated **
  Cycle:     83 Defect Energy: -16.718114  Gnorm:     0.000581  CPU:   51.293
  Cycle:     84 Defect Energy: -16.718120  Gnorm:     0.000576  CPU:   51.649
  Cycle:     85 Defect Energy: -16.718123  Gnorm:     0.000565  CPU:   52.008
  Cycle:     86 Defect Energy: -16.718129  Gnorm:     0.000554  CPU:   52.369
  Cycle:     87 Defect Energy: -16.718133  Gnorm:     0.000552  CPU:   52.734
  Cycle:     88 Defect Energy: -16.718138  Gnorm:     0.000548  CPU:   53.104
  Cycle:     89 Defect Energy: -16.718137  Gnorm:     0.000555  CPU:   53.465
  Cycle:     90 Defect Energy: -16.718144  Gnorm:     0.000556  CPU:   53.830
  Cycle:     91 Defect Energy: -16.718144  Gnorm:     0.000570  CPU:   54.190
  Cycle:     92 Defect Energy: -16.718156  Gnorm:     0.000594  CPU:   54.549
  ** Hessian calculated **
  Cycle:     93 Defect Energy: -16.718163  Gnorm:     0.000579  CPU:   55.490
  Cycle:     94 Defect Energy: -16.718170  Gnorm:     0.000583  CPU:   55.834
  Cycle:     95 Defect Energy: -16.718181  Gnorm:     0.000576  CPU:   56.050
  Cycle:     96 Defect Energy: -16.718193  Gnorm:     0.000578  CPU:   56.842
  Cycle:     97 Defect Energy: -16.718208  Gnorm:     0.000585  CPU:   58.715
  Cycle:     98 Defect Energy: -16.718214  Gnorm:     0.000595  CPU:   60.555
  Cycle:     99 Defect Energy: -16.718223  Gnorm:     0.000609  CPU:   61.488
  Cycle:    100 Defect Energy: -16.718230  Gnorm:     0.000625  CPU:   61.729
  Cycle:    101 Defect Energy: -16.718233  Gnorm:     0.000653  CPU:   61.970
  Cycle:    102 Defect Energy: -16.718254  Gnorm:     0.000687  CPU:   62.214
  ** Hessian calculated **
  Cycle:    103 Defect Energy: -16.718251  Gnorm:     0.000674  CPU:   62.780
  Cycle:    104 Defect Energy: -16.718258  Gnorm:     0.000667  CPU:   63.032
  Cycle:    105 Defect Energy: -16.718264  Gnorm:     0.000657  CPU:   63.282
  Cycle:    106 Defect Energy: -16.718271  Gnorm:     0.000647  CPU:   63.522
  Cycle:    107 Defect Energy: -16.718278  Gnorm:     0.000646  CPU:   63.764
  Cycle:    108 Defect Energy: -16.718283  Gnorm:     0.000645  CPU:   64.004
  Cycle:    109 Defect Energy: -16.718286  Gnorm:     0.000644  CPU:   64.245
  Cycle:    110 Defect Energy: -16.718292  Gnorm:     0.000652  CPU:   64.496
  Cycle:    111 Defect Energy: -16.718297  Gnorm:     0.000668  CPU:   64.772
  Cycle:    112 Defect Energy: -16.718312  Gnorm:     0.000697  CPU:   65.013
  ** Hessian calculated **
  Cycle:    113 Defect Energy: -16.718323  Gnorm:     0.000681  CPU:   65.592
  Cycle:    114 Defect Energy: -16.718329  Gnorm:     0.000687  CPU:   65.831
  Cycle:    115 Defect Energy: -16.718346  Gnorm:     0.000678  CPU:   66.070
  Cycle:    116 Defect Energy: -16.718359  Gnorm:     0.000683  CPU:   66.312
  Cycle:    117 Defect Energy: -16.718383  Gnorm:     0.000692  CPU:   66.557
  Cycle:    118 Defect Energy: -16.718389  Gnorm:     0.000706  CPU:   66.890
  Cycle:    119 Defect Energy: -16.718401  Gnorm:     0.000715  CPU:   67.135
  Cycle:    120 Defect Energy: -16.718412  Gnorm:     0.000734  CPU:   67.371
  Cycle:    121 Defect Energy: -16.718419  Gnorm:     0.000767  CPU:   67.598
  Cycle:    122 Defect Energy: -16.718444  Gnorm:     0.000809  CPU:   67.827
  ** Hessian calculated **
  Cycle:    123 Defect Energy: -16.718444  Gnorm:     0.000799  CPU:   68.349
  Cycle:    124 Defect Energy: -16.718456  Gnorm:     0.000791  CPU:   68.577
  Cycle:    125 Defect Energy: -16.718463  Gnorm:     0.000779  CPU:   68.803
  Cycle:    126 Defect Energy: -16.718477  Gnorm:     0.000767  CPU:   69.029
  Cycle:    127 Defect Energy: -16.718488  Gnorm:     0.000767  CPU:   69.258
  Cycle:    128 Defect Energy: -16.718498  Gnorm:     0.000766  CPU:   69.483
  Cycle:    129 Defect Energy: -16.718503  Gnorm:     0.000768  CPU:   69.713
  Cycle:    130 Defect Energy: -16.718513  Gnorm:     0.000777  CPU:   69.952
  Cycle:    131 Defect Energy: -16.718521  Gnorm:     0.000799  CPU:   70.180
  Cycle:    132 Defect Energy: -16.718545  Gnorm:     0.000836  CPU:   70.405
  ** Hessian calculated **
  Cycle:    133 Defect Energy: -16.718558  Gnorm:     0.000818  CPU:   70.933
  Cycle:    134 Defect Energy: -16.718569  Gnorm:     0.000826  CPU:   71.161
  Cycle:    135 Defect Energy: -16.718591  Gnorm:     0.000815  CPU:   71.387
  Cycle:    136 Defect Energy: -16.718610  Gnorm:     0.000821  CPU:   71.702
  Cycle:    137 Defect Energy: -16.718645  Gnorm:     0.000829  CPU:   71.930
  Cycle:    138 Defect Energy: -16.718652  Gnorm:     0.000853  CPU:   72.163
  Cycle:    139 Defect Energy: -16.718674  Gnorm:     0.000863  CPU:   72.390
  Cycle:    140 Defect Energy: -16.718689  Gnorm:     0.000890  CPU:   72.614
  Cycle:    141 Defect Energy: -16.718703  Gnorm:     0.000932  CPU:   72.833
  Cycle:    142 Defect Energy: -16.718738  Gnorm:     0.000988  CPU:   73.052
  ** Hessian calculated **
  Cycle:    143 Defect Energy: -16.718742  Gnorm:     0.000974  CPU:   73.560
  Cycle:    144 Defect Energy: -16.718759  Gnorm:     0.000966  CPU:   73.778
  Cycle:    145 Defect Energy: -16.718774  Gnorm:     0.000950  CPU:   73.999
  Cycle:    146 Defect Energy: -16.718798  Gnorm:     0.000935  CPU:   74.221
  Cycle:    147 Defect Energy: -16.718818  Gnorm:     0.000931  CPU:   74.444
  Cycle:    148 Defect Energy: -16.718836  Gnorm:     0.000930  CPU:   74.695
  Cycle:    149 Defect Energy: -16.718846  Gnorm:     0.000954  CPU:   74.919
  Cycle:    150 Defect Energy: -16.718870  Gnorm:     0.000959  CPU:   75.140
  Cycle:    151 Defect Energy: -16.718882  Gnorm:     0.000989  CPU:   75.557
  Cycle:    152 Defect Energy: -16.718922  Gnorm:     0.001040  CPU:   75.981
  ** Hessian calculated **
  Cycle:    153 Defect Energy: -16.718939  Gnorm:     0.001020  CPU:   77.028
  Cycle:    154 Defect Energy: -16.718960  Gnorm:     0.001025  CPU:   77.455
  Cycle:    155 Defect Energy: -16.718991  Gnorm:     0.001015  CPU:   77.872
  Cycle:    156 Defect Energy: -16.719030  Gnorm:     0.001016  CPU:   78.261
  Cycle:    157 Defect Energy: -16.719069  Gnorm:     0.001040  CPU:   78.653
  Cycle:    158 Defect Energy: -16.719104  Gnorm:     0.001055  CPU:   79.054
  Cycle:    159 Defect Energy: -16.719121  Gnorm:     0.001092  CPU:   79.445
  Cycle:    160 Defect Energy: -16.719157  Gnorm:     0.001117  CPU:   79.837
  Cycle:    161 Defect Energy: -16.719176  Gnorm:     0.001183  CPU:   80.236
  Cycle:    162 Defect Energy: -16.719241  Gnorm:     0.001257  CPU:   80.624
  ** Hessian calculated **
  Cycle:    163 Defect Energy: -16.719251  Gnorm:     0.001238  CPU:   81.496
  Cycle:    164 Defect Energy: -16.719280  Gnorm:     0.001229  CPU:   81.889
  Cycle:    165 Defect Energy: -16.719310  Gnorm:     0.001207  CPU:   82.364
  Cycle:    166 Defect Energy: -16.719353  Gnorm:     0.001190  CPU:   82.754
  Cycle:    167 Defect Energy: -16.719397  Gnorm:     0.001184  CPU:   83.132
  Cycle:    168 Defect Energy: -16.719424  Gnorm:     0.001188  CPU:   83.509
  Cycle:    169 Defect Energy: -16.719460  Gnorm:     0.001210  CPU:   83.889
  Cycle:    170 Defect Energy: -16.719488  Gnorm:     0.001235  CPU:   84.268
  Cycle:    171 Defect Energy: -16.719534  Gnorm:     0.001287  CPU:   84.655
  Cycle:    172 Defect Energy: -16.719606  Gnorm:     0.001364  CPU:   85.032
  ** Hessian calculated **
  Cycle:    173 Defect Energy: -16.719640  Gnorm:     0.001341  CPU:   85.874
  Cycle:    174 Defect Energy: -16.719681  Gnorm:     0.001346  CPU:   86.253
  Cycle:    175 Defect Energy: -16.719737  Gnorm:     0.001333  CPU:   86.733
  Cycle:    176 Defect Energy: -16.719821  Gnorm:     0.001335  CPU:   87.139
  Cycle:    177 Defect Energy: -16.719878  Gnorm:     0.001378  CPU:   87.529
  Cycle:    178 Defect Energy: -16.719966  Gnorm:     0.001391  CPU:   87.907
  Cycle:    179 Defect Energy: -16.719996  Gnorm:     0.001438  CPU:   88.271
  Cycle:    180 Defect Energy: -16.720055  Gnorm:     0.001487  CPU:   88.635
  Cycle:    181 Defect Energy: -16.720125  Gnorm:     0.001588  CPU:   89.004
  Cycle:    182 Defect Energy: -16.720231  Gnorm:     0.001716  CPU:   89.365
  ** Hessian calculated **
  Cycle:    183 Defect Energy: -16.720266  Gnorm:     0.001687  CPU:   90.170
  Cycle:    184 Defect Energy: -16.720322  Gnorm:     0.001677  CPU:   90.532
  Cycle:    185 Defect Energy: -16.720395  Gnorm:     0.001644  CPU:   90.893
  Cycle:    186 Defect Energy: -16.720490  Gnorm:     0.001626  CPU:   91.255
  Cycle:    187 Defect Energy: -16.720595  Gnorm:     0.001618  CPU:   91.709
  Cycle:    188 Defect Energy: -16.720659  Gnorm:     0.001653  CPU:   92.071
  Cycle:    189 Defect Energy: -16.720752  Gnorm:     0.001659  CPU:   92.343
  Cycle:    190 Defect Energy: -16.720807  Gnorm:     0.001719  CPU:   92.769
  Cycle:    191 Defect Energy: -16.720919  Gnorm:     0.001789  CPU:   94.639
  Cycle:    192 Defect Energy: -16.721054  Gnorm:     0.001936  CPU:   96.518
  ** Hessian calculated **
  Cycle:    193 Defect Energy: -16.721129  Gnorm:     0.001886  CPU:   98.527
  Cycle:    194 Defect Energy: -16.721208  Gnorm:     0.001904  CPU:   98.952
  Cycle:    195 Defect Energy: -16.721340  Gnorm:     0.001873  CPU:   99.397
  Cycle:    196 Defect Energy: -16.721500  Gnorm:     0.001879  CPU:   99.844
  Cycle:    197 Defect Energy: -16.721682  Gnorm:     0.001910  CPU:  100.292
  Cycle:    198 Defect Energy: -16.721820  Gnorm:     0.001972  CPU:  100.737
  Cycle:    199 Defect Energy: -16.721951  Gnorm:     0.002037  CPU:  101.183
  Cycle:    200 Defect Energy: -16.722086  Gnorm:     0.002161  CPU:  101.654
  Cycle:    201 Defect Energy: -16.722286  Gnorm:     0.002318  CPU:  102.134
  Cycle:    202 Defect Energy: -16.722524  Gnorm:     0.002571  CPU:  102.584
  ** Hessian calculated **
  Cycle:    203 Defect Energy: -16.722631  Gnorm:     0.002501  CPU:  103.660
  Cycle:    204 Defect Energy: -16.722772  Gnorm:     0.002486  CPU:  104.118
  Cycle:    205 Defect Energy: -16.722979  Gnorm:     0.002428  CPU:  104.538
  Cycle:    206 Defect Energy: -16.723228  Gnorm:     0.002404  CPU:  104.963
  Cycle:    207 Defect Energy: -16.723536  Gnorm:     0.002397  CPU:  105.395
  Cycle:    208 Defect Energy: -16.723708  Gnorm:     0.002469  CPU:  105.817
  Cycle:    209 Defect Energy: -16.723930  Gnorm:     0.002457  CPU:  106.238
  Cycle:    210 Defect Energy: -16.724111  Gnorm:     0.002557  CPU:  106.682
  Cycle:    211 Defect Energy: -16.724429  Gnorm:     0.002711  CPU:  107.143
  Cycle:    212 Defect Energy: -16.724877  Gnorm:     0.002972  CPU:  107.601
  ** Hessian calculated **
  Cycle:    213 Defect Energy: -16.725052  Gnorm:     0.002913  CPU:  108.810
  Cycle:    214 Defect Energy: -16.725292  Gnorm:     0.002925  CPU:  109.240
  Cycle:    215 Defect Energy: -16.725623  Gnorm:     0.002888  CPU:  109.662
  Cycle:    216 Defect Energy: -16.726083  Gnorm:     0.002889  CPU:  110.121
  Cycle:    217 Defect Energy: -16.726556  Gnorm:     0.003021  CPU:  110.546
  Cycle:    218 Defect Energy: -16.727042  Gnorm:     0.003083  CPU:  110.972
  Cycle:    219 Defect Energy: -16.727349  Gnorm:     0.003223  CPU:  111.386
  Cycle:    220 Defect Energy: -16.727746  Gnorm:     0.003392  CPU:  111.800
  Cycle:    221 Defect Energy: -16.728306  Gnorm:     0.003704  CPU:  112.215
  Cycle:    222 Defect Energy: -16.729144  Gnorm:     0.004156  CPU:  112.636
  ** Hessian calculated **
  Cycle:    223 Defect Energy: -16.729470  Gnorm:     0.004059  CPU:  113.738
  Cycle:    224 Defect Energy: -16.729921  Gnorm:     0.004036  CPU:  114.153
  Cycle:    225 Defect Energy: -16.730557  Gnorm:     0.003929  CPU:  114.548
  Cycle:    226 Defect Energy: -16.731368  Gnorm:     0.003884  CPU:  114.941
  Cycle:    227 Defect Energy: -16.732313  Gnorm:     0.003893  CPU:  115.347
  Cycle:    228 Defect Energy: -16.732970  Gnorm:     0.004025  CPU:  115.762
  Cycle:    229 Defect Energy: -16.733675  Gnorm:     0.004040  CPU:  116.157
  Cycle:    230 Defect Energy: -16.734290  Gnorm:     0.004246  CPU:  116.551
  Cycle:    231 Defect Energy: -16.735335  Gnorm:     0.004557  CPU:  116.946
  Cycle:    232 Defect Energy: -16.736790  Gnorm:     0.005100  CPU:  117.343
  ** Hessian calculated **
  Cycle:    233 Defect Energy: -16.737377  Gnorm:     0.004969  CPU:  118.348
  Cycle:    234 Defect Energy: -16.738152  Gnorm:     0.005005  CPU:  118.760
  Cycle:    235 Defect Energy: -16.739268  Gnorm:     0.004893  CPU:  119.166
  Cycle:    236 Defect Energy: -16.740717  Gnorm:     0.004898  CPU:  119.542
  Cycle:    237 Defect Energy: -16.742305  Gnorm:     0.005027  CPU:  119.926
  Cycle:    238 Defect Energy: -16.743672  Gnorm:     0.005188  CPU:  120.314
  Cycle:    239 Defect Energy: -16.744711  Gnorm:     0.005442  CPU:  120.691
  Cycle:    240 Defect Energy: -16.745933  Gnorm:     0.005689  CPU:  121.068
  Cycle:    241 Defect Energy: -16.747453  Gnorm:     0.006157  CPU:  121.444
  Cycle:    242 Defect Energy: -16.749763  Gnorm:     0.006856  CPU:  121.817
  ** Hessian calculated **
  Cycle:    243 Defect Energy: -16.750633  Gnorm:     0.006692  CPU:  122.666
  Cycle:    244 Defect Energy: -16.751888  Gnorm:     0.006651  CPU:  123.043
  Cycle:    245 Defect Energy: -16.753580  Gnorm:     0.006488  CPU:  123.421
  Cycle:    246 Defect Energy: -16.755833  Gnorm:     0.006392  CPU:  123.798
  Cycle:    247 Defect Energy: -16.758133  Gnorm:     0.006392  CPU:  124.271
  Cycle:    248 Defect Energy: -16.759982  Gnorm:     0.006472  CPU:  124.650
  Cycle:    249 Defect Energy: -16.761553  Gnorm:     0.006670  CPU:  125.042
  Cycle:    250 Defect Energy: -16.763377  Gnorm:     0.006928  CPU:  125.416
  Cycle:    251 Defect Energy: -16.765496  Gnorm:     0.007302  CPU:  125.783
  Cycle:    252 Defect Energy: -16.768504  Gnorm:     0.007950  CPU:  126.156
  ** Hessian calculated **
  Cycle:    253 Defect Energy: -16.769571  Gnorm:     0.007762  CPU:  126.977
  Cycle:    254 Defect Energy: -16.771021  Gnorm:     0.007804  CPU:  127.341
  Cycle:    255 Defect Energy: -16.773090  Gnorm:     0.007634  CPU:  127.707
  Cycle:    256 Defect Energy: -16.775702  Gnorm:     0.007611  CPU:  128.072
  Cycle:    257 Defect Energy: -16.778390  Gnorm:     0.007626  CPU:  128.524
  Cycle:    258 Defect Energy: -16.780327  Gnorm:     0.007750  CPU:  128.888
  Cycle:    259 Defect Energy: -16.782074  Gnorm:     0.007928  CPU:  129.154
  Cycle:    260 Defect Energy: -16.783884  Gnorm:     0.008147  CPU:  129.383
  Cycle:    261 Defect Energy: -16.785787  Gnorm:     0.008426  CPU:  129.602
  Cycle:    262 Defect Energy: -16.788544  Gnorm:     0.008861  CPU:  131.456
  ** Hessian calculated **
  Cycle:    263 Defect Energy: -16.797923  Gnorm:     0.008748  CPU:  135.088
  Cycle:    264 Defect Energy: -16.811835  Gnorm:     0.008485  CPU:  135.533
  Cycle:    265 Defect Energy: -16.832142  Gnorm:     0.007597  CPU:  135.985
  Cycle:    266 Defect Energy: -16.851838  Gnorm:     0.005165  CPU:  136.436
  Cycle:    267 Defect Energy: -16.857060  Gnorm:     0.003221  CPU:  136.885
  Cycle:    268 Defect Energy: -16.858889  Gnorm:     0.002341  CPU:  137.336
  Cycle:    269 Defect Energy: -16.859746  Gnorm:     0.001495  CPU:  137.840
  Cycle:    270 Defect Energy: -16.860104  Gnorm:     0.001090  CPU:  138.325
  Cycle:    271 Defect Energy: -16.860259  Gnorm:     0.000704  CPU:  138.802
  Cycle:    272 Defect Energy: -16.860315  Gnorm:     0.000504  CPU:  139.294
  ** Hessian calculated **
  Cycle:    273 Defect Energy: -16.860334  Gnorm:     0.000353  CPU:  140.330
  Cycle:    274 Defect Energy: -16.860339  Gnorm:     0.000247  CPU:  140.865
  Cycle:    275 Defect Energy: -16.860338  Gnorm:     0.000173  CPU:  141.315


  **** Optimisation achieved ****


  Final defect energy  =      -16.86033554
  Final defect Gnorm   =        0.00012112

  Components of defect energy : 

--------------------------------------------------------------------------------
  Region 1 - region 1                   =    -48.09413129 eV
  Region 1 - region 2a (unrelaxed)      =     31.73460047 eV
  Region 1 - 2a (relaxed - correction)  =     -0.34802502 eV
  Region 1 (Total)                      =    -16.70755585 eV
  Region 2a                             =      0.17384270 eV
  Region 2b                             =     -0.32662240 eV
--------------------------------------------------------------------------------
  Total defect energy                   =    -16.86033554 eV
--------------------------------------------------------------------------------

  Largest displacement in region 2 =   0.0176 Angstroms

  Final coordinates of region 1 :

--------------------------------------------------------------------------------
   No.  Atomic        x           y           z          Radius      Charge
        Label       (Angs)      (Angs)      (Angs)       (Angs)       (e) 
--------------------------------------------------------------------------------
     1  Mg    c     2.253894    2.253894    0.000000    0.000000    0.415000
     2  O     c     2.253894    2.253894   -1.863531    0.000000    0.183000
     3  O     c     2.253894    2.253894    1.863531    0.000000    0.183000
     4  Cl    c     4.227929    4.227929    0.000000    0.000000    1.485000
     5  Cl    c     4.227929    0.279859    0.000000    0.000000    1.485000
     6  Cl    c     0.279859    4.227929    0.000000    0.000000    1.485000
     7  Cl    c     0.279859    0.279859    0.000000    0.000000    1.485000
     8  Na    c     4.555321    2.253894   -2.299601    0.000000    1.000000
     9  Na    c     4.555321    2.253894    2.299601    0.000000    1.000000
    10  Na    c    -0.047534    2.253894   -2.299601    0.000000    1.000000
    11  Na    c    -0.047534    2.253894    2.299601    0.000000    1.000000
    12  Na    c     2.253894    4.555321   -2.299601    0.000000    1.000000
    13  Na    c     2.253894    4.555321    2.299601    0.000000    1.000000
    14  Na    c     2.253894   -0.047534   -2.299601    0.000000    1.000000
    15  Na    c     2.253894   -0.047534    2.299601    0.000000    1.000000
    16  Na    c     2.253894    2.253894    4.350434    0.000000    1.000000
    17  Na    c     2.253894    2.253894   -4.350434    0.000000    1.000000
    18  Na    c     2.253894   -2.047390    0.000000    0.000000    1.000000
    19  Na    c    -2.047390    2.253894    0.000000    0.000000    1.000000
    20  Na    c     2.253894    6.555177    0.000000    0.000000    1.000000
    21  Na    c     6.555177    2.253894    0.000000    0.000000    1.000000
    22  O     c     2.253894   -2.305039   -2.252098    0.000000    0.183000
    23  O     c     2.253894   -2.305039    2.252098    0.000000    0.183000
    24  O     c    -2.305039    2.253894   -2.252098    0.000000    0.183000
    25  O     c    -2.305039    2.253894    2.252098    0.000000    0.183000
    26  O     c     2.253894    6.812826   -2.252098    0.000000    0.183000
    27  O     c     2.253894    6.812826    2.252098    0.000000    0.183000
    28  O     c     6.812826    2.253894   -2.252098    0.000000    0.183000
    29  O     c     6.812826    2.253894    2.252098    0.000000    0.183000
    30  Na    c     4.504951   -2.329881   -2.452907    0.000000    1.000000
    31  Na    c     4.504951   -2.329881    2.452907    0.000000    1.000000
    32  Na    c     0.002836   -2.329881   -2.452907    0.000000    1.000000
    33  Na    c     0.002836   -2.329881    2.452907    0.000000    1.000000
    34  Na    c    -2.329881    4.504951   -2.452907    0.000000    1.000000
    35  Na    c    -2.329881    4.504951    2.452907    0.000000    1.000000
    36  Na    c    -2.329881    0.002836   -2.452907    0.000000    1.000000
    37  Na    c    -2.329881    0.002836    2.452907    0.000000    1.000000
    38  Na    c     4.504951    6.837668   -2.452907    0.000000    1.000000
    39  Na    c     4.504951    6.837668    2.452907    0.000000    1.000000
    40  Na    c     0.002836    6.837668   -2.452907    0.000000    1.000000
    41  Na    c     0.002836    6.837668    2.452907    0.000000    1.000000
    42  Na    c     6.837668    4.504951   -2.452907    0.000000    1.000000
    43  Na    c     6.837668    4.504951    2.452907    0.000000    1.000000
    44  Na    c     6.837668    0.002836   -2.452907    0.000000    1.000000
    45  Na    c     6.837668    0.002836    2.452907    0.000000    1.000000
    46  Cl    c     4.394889    4.394889    4.380922    0.000000    1.485000
    47  Cl    c     4.394889    4.394889   -4.380922    0.000000    1.485000
    48  Cl    c     4.394889    0.112898    4.380922    0.000000    1.485000
    49  Cl    c     4.394889    0.112898   -4.380922    0.000000    1.485000
    50  Cl    c     0.112898    4.394889    4.380922    0.000000    1.485000
    51  Cl    c     0.112898    4.394889   -4.380922    0.000000    1.485000
    52  Cl    c     0.112898    0.112898    4.380922    0.000000    1.485000
    53  Cl    c     0.112898    0.112898   -4.380922    0.000000    1.485000
    54  Na    c     2.253894   -2.556779    4.501574    0.000000    1.000000
    55  Na    c     2.253894   -2.556779   -4.501574    0.000000    1.000000
    56  Na    c    -2.556779    2.253894    4.501574    0.000000    1.000000
    57  Na    c    -2.556779    2.253894   -4.501574    0.000000    1.000000
    58  Na    c     2.253894    7.064566    4.501574    0.000000    1.000000
    59  Na    c     2.253894    7.064566   -4.501574    0.000000    1.000000
    60  Na    c     7.064566    2.253894    4.501574    0.000000    1.000000
    61  Na    c     7.064566    2.253894   -4.501574    0.000000    1.000000
    62  Na    c    -2.009152   -2.009152    0.000000    0.000000    1.000000
    63  Na    c     6.516939   -2.009152    0.000000    0.000000    1.000000
    64  Na    c    -2.009152    6.516939    0.000000    0.000000    1.000000
    65  Na    c     6.516939    6.516939    0.000000    0.000000    1.000000
    66  O     c    -2.242927   -2.242927   -2.232212    0.000000    0.183000
    67  O     c    -2.242927   -2.242927    2.232212    0.000000    0.183000
    68  O     c     6.750714   -2.242927   -2.232212    0.000000    0.183000
    69  O     c     6.750714   -2.242927    2.232212    0.000000    0.183000
    70  O     c    -2.242927    6.750714   -2.232212    0.000000    0.183000
    71  O     c    -2.242927    6.750714    2.232212    0.000000    0.183000
    72  O     c     6.750714    6.750714   -2.232212    0.000000    0.183000
    73  O     c     6.750714    6.750714    2.232212    0.000000    0.183000
    74  O     c     2.253894    2.253894    6.641109    0.000000    0.183000
    75  O     c     2.253894    2.253894   -6.641109    0.000000    0.183000
    76  Cl    c     4.531654    8.943216    0.000000    0.000000    1.485000
    77  Cl    c     4.531654   -4.435428    0.000000    0.000000    1.485000
    78  Cl    c     8.943216    4.531654    0.000000    0.000000    1.485000
    79  Cl    c     8.943216   -0.023866    0.000000    0.000000    1.485000
    80  Cl    c    -0.023866    8.943216    0.000000    0.000000    1.485000
    81  Cl    c    -0.023866   -4.435428    0.000000    0.000000    1.485000
    82  Cl    c    -4.435428    4.531654    0.000000    0.000000    1.485000
    83  Cl    c    -4.435428   -0.023866    0.000000    0.000000    1.485000
    84  Na    c     4.512783    2.253894    6.557160    0.000000    1.000000
    85  Na    c     4.512783    2.253894   -6.557160    0.000000    1.000000
    86  Na    c    -0.004995    2.253894    6.557160    0.000000    1.000000
    87  Na    c    -0.004995    2.253894   -6.557160    0.000000    1.000000
    88  Na    c     2.253894    4.512783    6.557160    0.000000    1.000000
    89  Na    c     2.253894    4.512783   -6.557160    0.000000    1.000000
    90  Na    c     2.253894   -0.004995    6.557160    0.000000    1.000000
    91  Na    c     2.253894   -0.004995   -6.557160    0.000000    1.000000
    92  Na    c     9.045265    2.253894   -1.900873    0.000000    1.000000
    93  Na    c     9.045265    2.253894    1.900873    0.000000    1.000000
    94  Na    c    -4.537478    2.253894   -1.900873    0.000000    1.000000
    95  Na    c    -4.537478    2.253894    1.900873    0.000000    1.000000
    96  Na    c     2.253894    9.045265   -1.900873    0.000000    1.000000
    97  Na    c     2.253894    9.045265    1.900873    0.000000    1.000000
    98  Na    c     2.253894   -4.537478   -1.900873    0.000000    1.000000
    99  Na    c     2.253894   -4.537478    1.900873    0.000000    1.000000
   100  Na    c     6.982546   -2.474759    4.487688    0.000000    1.000000
   101  Na    c     6.982546   -2.474759   -4.487688    0.000000    1.000000
   102  Na    c    -2.474759    6.982546    4.487688    0.000000    1.000000
   103  Na    c    -2.474759    6.982546   -4.487688    0.000000    1.000000
   104  Na    c    -2.474759   -2.474759    4.487688    0.000000    1.000000
   105  Na    c    -2.474759   -2.474759   -4.487688    0.000000    1.000000
   106  Na    c     6.982546    6.982546    4.487688    0.000000    1.000000
   107  Na    c     6.982546    6.982546   -4.487688    0.000000    1.000000
   108  O     c     2.253894   -2.261235    6.739873    0.000000    0.183000
   109  O     c     2.253894   -2.261235   -6.739873    0.000000    0.183000
   110  O     c    -2.261235    2.253894    6.739873    0.000000    0.183000
   111  O     c    -2.261235    2.253894   -6.739873    0.000000    0.183000
   112  O     c     2.253894    6.769022    6.739873    0.000000    0.183000
   113  O     c     2.253894    6.769022   -6.739873    0.000000    0.183000
   114  O     c     6.769022    2.253894    6.739873    0.000000    0.183000
   115  O     c     6.769022    2.253894   -6.739873    0.000000    0.183000
   116  Cl    c     4.518860    8.993800    4.526072    0.000000    1.485000
   117  Cl    c     4.518860    8.993800   -4.526072    0.000000    1.485000
   118  Cl    c     4.518860   -4.486013    4.526072    0.000000    1.485000
   119  Cl    c     4.518860   -4.486013   -4.526072    0.000000    1.485000
   120  Cl    c     8.993800    4.518860    4.526072    0.000000    1.485000
   121  Cl    c     8.993800    4.518860   -4.526072    0.000000    1.485000
   122  Cl    c     8.993800   -0.011073    4.526072    0.000000    1.485000
   123  Cl    c     8.993800   -0.011073   -4.526072    0.000000    1.485000
   124  Cl    c    -0.011073    8.993800    4.526072    0.000000    1.485000
   125  Cl    c    -0.011073    8.993800   -4.526072    0.000000    1.485000
   126  Cl    c    -0.011073   -4.486013    4.526072    0.000000    1.485000
   127  Cl    c    -0.011073   -4.486013   -4.526072    0.000000    1.485000
   128  Cl    c    -4.486013    4.518860    4.526072    0.000000    1.485000
   129  Cl    c    -4.486013    4.518860   -4.526072    0.000000    1.485000
   130  Cl    c    -4.486013   -0.011073    4.526072    0.000000    1.485000
   131  Cl    c    -4.486013   -0.011073   -4.526072    0.000000    1.485000
   132  Na    c     4.511659   -2.282214    6.690829    0.000000    1.000000
   133  Na    c     4.511659   -2.282214   -6.690829    0.000000    1.000000
   134  Na    c    -0.003871   -2.282214    6.690829    0.000000    1.000000
   135  Na    c    -0.003871   -2.282214   -6.690829    0.000000    1.000000
   136  Na    c    -2.282214    4.511659    6.690829    0.000000    1.000000
   137  Na    c    -2.282214    4.511659   -6.690829    0.000000    1.000000
   138  Na    c    -2.282214   -0.003871    6.690829    0.000000    1.000000
   139  Na    c    -2.282214   -0.003871   -6.690829    0.000000    1.000000
   140  Na    c     4.511659    6.790001    6.690829    0.000000    1.000000
   141  Na    c     4.511659    6.790001   -6.690829    0.000000    1.000000
   142  Na    c    -0.003871    6.790001    6.690829    0.000000    1.000000
   143  Na    c    -0.003871    6.790001   -6.690829    0.000000    1.000000
   144  Na    c     6.790001    4.511659    6.690829    0.000000    1.000000
   145  Na    c     6.790001    4.511659   -6.690829    0.000000    1.000000
   146  Na    c     6.790001   -0.003871    6.690829    0.000000    1.000000
   147  Na    c     6.790001   -0.003871   -6.690829    0.000000    1.000000
   148  Na    c     9.016765   -2.260961   -1.981474    0.000000    1.000000
   149  Na    c     9.016765   -2.260961    1.981474    0.000000    1.000000
   150  Na    c    -4.508978   -2.260961   -1.981474    0.000000    1.000000
   151  Na    c    -4.508978   -2.260961    1.981474    0.000000    1.000000
   152  Na    c    -2.260961    9.016765   -1.981474    0.000000    1.000000
   153  Na    c    -2.260961    9.016765    1.981474    0.000000    1.000000
   154  Na    c    -2.260961   -4.508978   -1.981474    0.000000    1.000000
   155  Na    c    -2.260961   -4.508978    1.981474    0.000000    1.000000
   156  Na    c     9.016765    6.768748   -1.981474    0.000000    1.000000
   157  Na    c     9.016765    6.768748    1.981474    0.000000    1.000000
   158  Na    c    -4.508978    6.768748   -1.981474    0.000000    1.000000
   159  Na    c    -4.508978    6.768748    1.981474    0.000000    1.000000
   160  Na    c     6.768748    9.016765   -1.981474    0.000000    1.000000
   161  Na    c     6.768748    9.016765    1.981474    0.000000    1.000000
   162  Na    c     6.768748   -4.508978   -1.981474    0.000000    1.000000
   163  Na    c     6.768748   -4.508978    1.981474    0.000000    1.000000
   164  Na    c     2.253894    2.253894    8.934477    0.000000    1.000000
   165  Na    c     2.253894    2.253894   -8.934477    0.000000    1.000000
   166  Na    c     2.253894   11.659460    0.000000    0.000000    1.000000
   167  Na    c     2.253894   -7.151673    0.000000    0.000000    1.000000
   168  Na    c    11.659460    2.253894    0.000000    0.000000    1.000000
   169  Na    c    -7.151673    2.253894    0.000000    0.000000    1.000000
   170  O     c     2.253894   11.274466   -2.239391    0.000000    0.183000
   171  O     c     2.253894   11.274466    2.239391    0.000000    0.183000
   172  O     c     2.253894   -6.766679   -2.239391    0.000000    0.183000
   173  O     c     2.253894   -6.766679    2.239391    0.000000    0.183000
   174  O     c    11.274466    2.253894   -2.239391    0.000000    0.183000
   175  O     c    11.274466    2.253894    2.239391    0.000000    0.183000
   176  O     c    -6.766679    2.253894   -2.239391    0.000000    0.183000
   177  O     c    -6.766679    2.253894    2.239391    0.000000    0.183000
   178  O     c     6.762731    6.762731    6.744236    0.000000    0.183000
   179  O     c     6.762731    6.762731   -6.744236    0.000000    0.183000
   180  O     c     6.762731   -2.254944    6.744236    0.000000    0.183000
   181  O     c     6.762731   -2.254944   -6.744236    0.000000    0.183000
   182  O     c    -2.254944    6.762731    6.744236    0.000000    0.183000
   183  O     c    -2.254944    6.762731   -6.744236    0.000000    0.183000
   184  O     c    -2.254944   -2.254944    6.744236    0.000000    0.183000
   185  O     c    -2.254944   -2.254944   -6.744236    0.000000    0.183000
   186  Cl    c     4.518262    4.518262    9.009357    0.000000    1.485000
   187  Cl    c     4.518262    4.518262   -9.009357    0.000000    1.485000
   188  Cl    c     4.518262   -0.010475    9.009357    0.000000    1.485000
   189  Cl    c     4.518262   -0.010475   -9.009357    0.000000    1.485000
   190  Cl    c    -0.010475    4.518262    9.009357    0.000000    1.485000
   191  Cl    c    -0.010475    4.518262   -9.009357    0.000000    1.485000
   192  Cl    c    -0.010475   -0.010475    9.009357    0.000000    1.485000
   193  Cl    c    -0.010475   -0.010475   -9.009357    0.000000    1.485000
   194  Na    c     4.510084   11.281212   -2.270409    0.000000    1.000000
   195  Na    c     4.510084   11.281212    2.270409    0.000000    1.000000
   196  Na    c     4.510084   -6.773425   -2.270409    0.000000    1.000000
   197  Na    c     4.510084   -6.773425    2.270409    0.000000    1.000000
   198  Na    c    -0.002297   11.281212   -2.270409    0.000000    1.000000
   199  Na    c    -0.002297   11.281212    2.270409    0.000000    1.000000
   200  Na    c    -0.002297   -6.773425   -2.270409    0.000000    1.000000
   201  Na    c    -0.002297   -6.773425    2.270409    0.000000    1.000000
   202  Na    c    11.281212    4.510084   -2.270409    0.000000    1.000000
   203  Na    c    11.281212    4.510084    2.270409    0.000000    1.000000
   204  Na    c    11.281212   -0.002297   -2.270409    0.000000    1.000000
   205  Na    c    11.281212   -0.002297    2.270409    0.000000    1.000000
   206  Na    c    -6.773425    4.510084   -2.270409    0.000000    1.000000
   207  Na    c    -6.773425    4.510084    2.270409    0.000000    1.000000
   208  Na    c    -6.773425   -0.002297   -2.270409    0.000000    1.000000
   209  Na    c    -6.773425   -0.002297    2.270409    0.000000    1.000000
   210  Cl    c     9.012188    9.012188    0.000000    0.000000    1.485000
   211  Cl    c     9.012188   -4.504401    0.000000    0.000000    1.485000
   212  Cl    c    -4.504401    9.012188    0.000000    0.000000    1.485000
   213  Cl    c    -4.504401   -4.504401    0.000000    0.000000    1.485000
   214  Na    c     9.014360    2.253894    7.021244    0.000000    1.000000
   215  Na    c     9.014360    2.253894   -7.021244    0.000000    1.000000
   216  Na    c    -4.506573    2.253894    7.021244    0.000000    1.000000
   217  Na    c    -4.506573    2.253894   -7.021244    0.000000    1.000000
   218  Na    c     2.253894    9.014360    7.021244    0.000000    1.000000
   219  Na    c     2.253894    9.014360   -7.021244    0.000000    1.000000
   220  Na    c     2.253894   -4.506573    7.021244    0.000000    1.000000
   221  Na    c     2.253894   -4.506573   -7.021244    0.000000    1.000000
   222  Na    c     2.253894   11.039162    4.504039    0.000000    1.000000
   223  Na    c     2.253894   11.039162   -4.504039    0.000000    1.000000
   224  Na    c     2.253894   -6.531375    4.504039    0.000000    1.000000
   225  Na    c     2.253894   -6.531375   -4.504039    0.000000    1.000000
   226  Na    c    11.039162    2.253894    4.504039    0.000000    1.000000
   227  Na    c    11.039162    2.253894   -4.504039    0.000000    1.000000
   228  Na    c    -6.531375    2.253894    4.504039    0.000000    1.000000
   229  Na    c    -6.531375    2.253894   -4.504039    0.000000    1.000000
   230  Na    c     2.253894   -2.082759    9.001057    0.000000    1.000000
   231  Na    c     2.253894   -2.082759   -9.001057    0.000000    1.000000
   232  Na    c    -2.082759    2.253894    9.001057    0.000000    1.000000
   233  Na    c    -2.082759    2.253894   -9.001057    0.000000    1.000000
   234  Na    c     2.253894    6.590546    9.001057    0.000000    1.000000
   235  Na    c     2.253894    6.590546   -9.001057    0.000000    1.000000
   236  Na    c     6.590546    2.253894    9.001057    0.000000    1.000000
   237  Na    c     6.590546    2.253894   -9.001057    0.000000    1.000000
   238  Na    c    11.545132   -2.239157    0.000000    0.000000    1.000000
   239  Na    c    -2.239157   11.545132    0.000000    0.000000    1.000000
   240  Na    c    -2.239157   -7.037345    0.000000    0.000000    1.000000
   241  Na    c    -7.037345   -2.239157    0.000000    0.000000    1.000000
   242  Na    c     6.746944   11.545132    0.000000    0.000000    1.000000
   243  Na    c     6.746944   -7.037345    0.000000    0.000000    1.000000
   244  Na    c    11.545132    6.746944    0.000000    0.000000    1.000000
   245  Na    c    -7.037345    6.746944    0.000000    0.000000    1.000000
   246  O     c    11.267004   -2.255488   -2.242010    0.000000    0.183000
   247  O     c    11.267004   -2.255488    2.242010    0.000000    0.183000
   248  O     c    -2.255488   11.267004   -2.242010    0.000000    0.183000
   249  O     c    -2.255488   11.267004    2.242010    0.000000    0.183000
   250  O     c    -2.255488   -6.759217   -2.242010    0.000000    0.183000
   251  O     c    -2.255488   -6.759217    2.242010    0.000000    0.183000
[...]
    79  O     s       0.001211      0.000000     -0.000261      0.000000
--------------------------------------------------------------------------------

  Comparison of initial and final region 1 : 

--------------------------------------------------------------------------------
  Parameter   Initial value   Final value   Difference    Units      Percent
--------------------------------------------------------------------------------
      1 x          2.253894      2.253894     0.000000    Cartesian    0.00
      1 y          2.253894      2.253894     0.000000    Cartesian    0.00
      1 z          0.000000      0.000000     0.000000    Cartesian    0.00
      2 x          2.253894      2.253894     0.000000    Cartesian    0.00
      2 y          2.253894      2.253894     0.000000    Cartesian    0.00
      2 z         -2.253894     -1.863531     0.390363    Cartesian  -17.32
      3 x          4.507787      4.227929    -0.279859    Cartesian   -6.21
      3 y          4.507787      4.227929    -0.279859    Cartesian   -6.21
      3 z          0.000000      0.000000     0.000000    Cartesian    0.00
      4 x          4.507787      4.555321     0.047534    Cartesian    1.05
      4 y          2.253894      2.253894     0.000000    Cartesian    0.00
      4 z         -2.253894     -2.299601    -0.045707    Cartesian    2.03
      5 x          2.253894      2.253894     0.000000    Cartesian    0.00
      5 y          2.253894      2.253894     0.000000    Cartesian    0.00
      5 z          4.507787      4.350434    -0.157353    Cartesian   -3.49
      6 x          2.253894      2.253894     0.000000    Cartesian    0.00
      6 y         -2.253894     -2.047390     0.206504    Cartesian   -9.16
      6 z          0.000000      0.000000     0.000000    Cartesian    0.00
      7 x          2.253894      2.253894     0.000000    Cartesian    0.00
      7 y         -2.253894     -2.305039    -0.051146    Cartesian    2.27
      7 z         -2.253894     -2.252098     0.001795    Cartesian   -0.08
      8 x          4.507787      4.504951    -0.002836    Cartesian   -0.06
      8 y         -2.253894     -2.329881    -0.075987    Cartesian    3.37
      8 z         -2.253894     -2.452907    -0.199013    Cartesian    8.83
      9 x          4.507787      4.394889    -0.112898    Cartesian   -2.50
      9 y          4.507787      4.394889    -0.112898    Cartesian   -2.50
      9 z          4.507787      4.380922    -0.126865    Cartesian   -2.81
     10 x          2.253894      2.253894     0.000000    Cartesian    0.00
     10 y         -2.253894     -2.556779    -0.302885    Cartesian   13.44
     10 z          4.507787      4.501574    -0.006213    Cartesian   -0.14
     11 x         -2.253894     -2.009152     0.244742    Cartesian  -10.86
     11 y         -2.253894     -2.009152     0.244742    Cartesian  -10.86
     11 z          0.000000      0.000000     0.000000    Cartesian    0.00
     12 x         -2.253894     -2.242927     0.010967    Cartesian   -0.49
     12 y         -2.253894     -2.242927     0.010967    Cartesian   -0.49
     12 z         -2.253894     -2.232212     0.021681    Cartesian   -0.96
     13 x          2.253894      2.253894     0.000000    Cartesian    0.00
     13 y          2.253894      2.253894     0.000000    Cartesian    0.00
     13 z          6.761681      6.641109    -0.120572    Cartesian   -1.78
     14 x          4.507787      4.531654     0.023866    Cartesian    0.53
     14 y          9.015574      8.943216    -0.072359    Cartesian   -0.80
     14 z          0.000000      0.000000     0.000000    Cartesian    0.00
     15 x          4.507787      4.512783     0.004995    Cartesian    0.11
     15 y          2.253894      2.253894     0.000000    Cartesian    0.00
     15 z          6.761681      6.557160    -0.204521    Cartesian   -3.02
     16 x          9.015574      9.045265     0.029691    Cartesian    0.33
     16 y          2.253894      2.253894     0.000000    Cartesian    0.00
     16 z         -2.253894     -1.900873     0.353021    Cartesian  -15.66
     17 x          6.761681      6.982546     0.220865    Cartesian    3.27
     17 y         -2.253894     -2.474759    -0.220865    Cartesian    9.80
     17 z          4.507787      4.487688    -0.020099    Cartesian   -0.45
     18 x          2.253894      2.253894     0.000000    Cartesian    0.00
     18 y         -2.253894     -2.261235    -0.007341    Cartesian    0.33
     18 z          6.761681      6.739873    -0.021808    Cartesian   -0.32
     19 x          4.507787      4.518860     0.011073    Cartesian    0.25
     19 y          9.015574      8.993800    -0.021774    Cartesian   -0.24
     19 z          4.507787      4.526072     0.018285    Cartesian    0.41
     20 x          4.507787      4.511659     0.003871    Cartesian    0.09
     20 y         -2.253894     -2.282214    -0.028320    Cartesian    1.26
     20 z          6.761681      6.690829    -0.070852    Cartesian   -1.05
     21 x          9.015574      9.016765     0.001191    Cartesian    0.01
     21 y         -2.253894     -2.260961    -0.007068    Cartesian    0.31
     21 z         -2.253894     -1.981474     0.272420    Cartesian  -12.09
     22 x          2.253894      2.253894     0.000000    Cartesian    0.00
     22 y          2.253894      2.253894     0.000000    Cartesian    0.00
     22 z          9.015574      8.934477    -0.081097    Cartesian   -0.90
     23 x          2.253894      2.253894     0.000000    Cartesian    0.00
     23 y         11.269468     11.659460     0.389992    Cartesian    3.46
     23 z          0.000000      0.000000     0.000000    Cartesian    0.00
     24 x          2.253894      2.253894     0.000000    Cartesian    0.00
     24 y         11.269468     11.274466     0.004998    Cartesian    0.04
     24 z         -2.253894     -2.239391     0.014502    Cartesian   -0.64
     25 x          6.761681      6.762731     0.001050    Cartesian    0.02
     25 y          6.761681      6.762731     0.001050    Cartesian    0.02
     25 z          6.761681      6.744236    -0.017445    Cartesian   -0.26
     26 x          4.507787      4.518262     0.010475    Cartesian    0.23
     26 y          4.507787      4.518262     0.010475    Cartesian    0.23
     26 z          9.015574      9.009357    -0.006218    Cartesian   -0.07
     27 x          4.507787      4.510084     0.002297    Cartesian    0.05
     27 y         11.269468     11.281212     0.011744    Cartesian    0.10
     27 z         -2.253894     -2.270409    -0.016516    Cartesian    0.73
     28 x          9.015574      9.012188    -0.003386    Cartesian   -0.04
     28 y          9.015574      9.012188    -0.003386    Cartesian   -0.04
     28 z          0.000000      0.000000     0.000000    Cartesian    0.00
     29 x          9.015574      9.014360    -0.001214    Cartesian   -0.01
     29 y          2.253894      2.253894     0.000000    Cartesian    0.00
     29 z          6.761681      7.021244     0.259564    Cartesian    3.84
     30 x          2.253894      2.253894     0.000000    Cartesian    0.00
     30 y         11.269468     11.039162    -0.230306    Cartesian   -2.04
     30 z          4.507787      4.504039    -0.003748    Cartesian   -0.08
     31 x          2.253894      2.253894     0.000000    Cartesian    0.00
     31 y         -2.253894     -2.082759     0.171135    Cartesian   -7.59
     31 z          9.015574      9.001057    -0.014518    Cartesian   -0.16
     32 x         11.269468     11.545132     0.275664    Cartesian    2.45
     32 y         -2.253894     -2.239157     0.014737    Cartesian   -0.65
     32 z          0.000000      0.000000     0.000000    Cartesian    0.00
     33 x         11.269468     11.267004    -0.002464    Cartesian   -0.02
     33 y         -2.253894     -2.255488    -0.001594    Cartesian    0.07
     33 z         -2.253894     -2.242010     0.011883    Cartesian   -0.53
     34 x          9.015574      9.034988     0.019414    Cartesian    0.22
     34 y          9.015574      9.034988     0.019414    Cartesian    0.22
     34 z          4.507787      4.517515     0.009727    Cartesian    0.22
     35 x          9.015574      9.011562    -0.004012    Cartesian   -0.04
     35 y         -2.253894     -2.233349     0.020544    Cartesian   -0.91
     35 z          6.761681      6.895642     0.133961    Cartesian    1.98
     36 x         11.269468     11.115011    -0.154457    Cartesian   -1.37
     36 y         -2.253894     -2.301608    -0.047715    Cartesian    2.12
     36 z          4.507787      4.500166    -0.007621    Cartesian   -0.17
     37 x          6.761681      6.676524    -0.085157    Cartesian   -1.26
     37 y          6.761681      6.676524    -0.085157    Cartesian   -1.26
     37 z          9.015574      9.014632    -0.000942    Cartesian   -0.01
     38 x          2.253894      2.253894     0.000000    Cartesian    0.00
     38 y          2.253894      2.253894     0.000000    Cartesian    0.00
     38 z         11.269468     11.244737    -0.024731    Cartesian   -0.22
     39 x          2.253894      2.253894     0.000000    Cartesian    0.00
     39 y         11.269468     11.258739    -0.010729    Cartesian   -0.10
     39 z          6.761681      6.767365     0.005685    Cartesian    0.08
     40 x          4.507787      4.524974     0.017186    Cartesian    0.38
     40 y         13.523362     13.488581    -0.034780    Cartesian   -0.26
     40 z          0.000000      0.000000     0.000000    Cartesian    0.00
     41 x          4.507787      4.498842    -0.008945    Cartesian   -0.20
     41 y          2.253894      2.253894     0.000000    Cartesian    0.00
     41 z         11.269468     11.283294     0.013826    Cartesian    0.12
     42 x         13.523362     13.526951     0.003589    Cartesian    0.03
     42 y          2.253894      2.253894     0.000000    Cartesian    0.00
     42 z         -2.253894     -2.456569    -0.202675    Cartesian    8.99
     43 x          4.507787      4.526842     0.019055    Cartesian    0.42
     43 y          9.015574      9.009474    -0.006100    Cartesian   -0.07
     43 z          9.015574      8.994882    -0.020693    Cartesian   -0.23
     44 x          4.507787      4.508472     0.000685    Cartesian    0.02
     44 y         11.269468     11.290595     0.021127    Cartesian    0.19
     44 z          6.761681      6.714907    -0.046774    Cartesian   -0.69
     45 x          9.015574      9.017196     0.001621    Cartesian    0.02
     45 y         11.269468     11.272502     0.003034    Cartesian    0.03
     45 z         -2.253894     -2.240654     0.013240    Cartesian   -0.59
     46 x          2.253894      2.253894     0.000000    Cartesian    0.00
     46 y          6.761681      6.752313    -0.009368    Cartesian   -0.14
     46 z         11.269468     11.261999    -0.007469    Cartesian   -0.07
     47 x          6.761681      6.758757    -0.002924    Cartesian   -0.04
     47 y         11.269468     11.257160    -0.012308    Cartesian   -0.11
     47 z          6.761681      6.758410    -0.003270    Cartesian   -0.05
     48 x          4.507787      4.500133    -0.007654    Cartesian   -0.17
     48 y         13.523362     13.538504     0.015142    Cartesian    0.11
     48 z          4.507787      4.489327    -0.018460    Cartesian   -0.41
     49 x          4.507787      4.503565    -0.004222    Cartesian   -0.09
     49 y          6.761681      6.771568     0.009887    Cartesian    0.15
     49 z         11.269468     11.289381     0.019913    Cartesian    0.18
     50 x         13.523362     13.526951     0.003590    Cartesian    0.03
     50 y          6.761681      6.765575     0.003894    Cartesian    0.06
     50 z         -2.253894     -2.384519    -0.130626    Cartesian    5.80
     51 x          2.253894      2.253894     0.000000    Cartesian    0.00
     51 y         11.269468     11.360746     0.091278    Cartesian    0.81
     51 z          9.015574      9.021751     0.006176    Cartesian    0.07
     52 x         11.269468     11.298332     0.028864    Cartesian    0.26
     52 y         11.269468     11.298332     0.028864    Cartesian    0.26
     52 z          0.000000      0.000000     0.000000    Cartesian    0.00
     53 x         -2.253894     -2.247138     0.006756    Cartesian   -0.30
     53 y         -2.253894     -2.247138     0.006756    Cartesian   -0.30
     53 z         11.269468     11.265882    -0.003586    Cartesian   -0.03
     54 x         11.269468     11.266905    -0.002563    Cartesian   -0.02
     54 y         11.269468     11.266905    -0.002563    Cartesian   -0.02
     54 z         -2.253894     -2.248942     0.004951    Cartesian   -0.22
     55 x          2.253894      2.253894     0.000000    Cartesian    0.00
     55 y          2.253894      2.253894     0.000000    Cartesian    0.00
     55 z          0.000000      0.000000     0.000000    Cartesian    0.00
     56 x          2.253894      2.253894     0.000000    Cartesian    0.00
     56 y          2.253894      2.253894     0.000000    Cartesian    0.00
     56 z         -2.253894     -1.862597     0.391297    Cartesian  -17.36
     57 x          4.507787      4.208461    -0.299326    Cartesian   -6.64
     57 y          4.507787      4.208461    -0.299326    Cartesian   -6.64
     57 z          0.000000      0.000000     0.000000    Cartesian    0.00
     58 x          2.253894      2.253894     0.000000    Cartesian    0.00
     58 y         -2.253894     -2.305041    -0.051148    Cartesian    2.27
     58 z         -2.253894     -2.252120     0.001773    Cartesian   -0.08
     59 x          4.507787      4.381116    -0.126672    Cartesian   -2.81
     59 y          4.507787      4.381116    -0.126672    Cartesian   -2.81
     59 z          4.507787      4.371993    -0.135794    Cartesian   -3.01
     60 x         -2.253894     -2.242914     0.010980    Cartesian   -0.49
     60 y         -2.253894     -2.242914     0.010980    Cartesian   -0.49
     60 z         -2.253894     -2.232180     0.021714    Cartesian   -0.96
     61 x          2.253894      2.253894     0.000000    Cartesian    0.00
     61 y          2.253894      2.253894     0.000000    Cartesian    0.00
     61 z          6.761681      6.641049    -0.120631    Cartesian   -1.78
     62 x          4.507787      4.532192     0.024405    Cartesian    0.54
     62 y          9.015574      8.938781    -0.076793    Cartesian   -0.85
     62 z          0.000000      0.000000     0.000000    Cartesian    0.00
     63 x          2.253894      2.253894     0.000000    Cartesian    0.00
     63 y         -2.253894     -2.261263    -0.007369    Cartesian    0.33
     63 z          6.761681      6.739861    -0.021820    Cartesian   -0.32
     64 x          4.507787      4.512881     0.005094    Cartesian    0.11
     64 y          9.015574      8.986058    -0.029517    Cartesian   -0.33
     64 z          4.507787      4.525984     0.018196    Cartesian    0.40
     65 x          2.253894      2.253894     0.000000    Cartesian    0.00
     65 y         11.269468     11.274486     0.005018    Cartesian    0.04
     65 z         -2.253894     -2.239377     0.014516    Cartesian   -0.64
     66 x          6.761681      6.762750     0.001069    Cartesian    0.02
     66 y          6.761681      6.762750     0.001069    Cartesian    0.02
     66 z          6.761681      6.744278    -0.017403    Cartesian   -0.26
     67 x          4.507787      4.522101     0.014314    Cartesian    0.32
     67 y          4.507787      4.522101     0.014314    Cartesian    0.32
     67 z          9.015574      9.013672    -0.001902    Cartesian   -0.02
     68 x          9.015574      9.004328    -0.011246    Cartesian   -0.12
     68 y          9.015574      9.004328    -0.011246    Cartesian   -0.12
     68 z          0.000000      0.000000     0.000000    Cartesian    0.00
     69 x         11.269468     11.267033    -0.002435    Cartesian   -0.02
     69 y         -2.253894     -2.255494    -0.001600    Cartesian    0.07
     69 z         -2.253894     -2.241991     0.011902    Cartesian   -0.53
     70 x          9.015574      9.030977     0.015402    Cartesian    0.17
     70 y          9.015574      9.030977     0.015402    Cartesian    0.17
     70 z          4.507787      4.519877     0.012090    Cartesian    0.27
     71 x          2.253894      2.253894     0.000000    Cartesian    0.00
     71 y          2.253894      2.253894     0.000000    Cartesian    0.00
     71 z         11.269468     11.244801    -0.024667    Cartesian   -0.22
     72 x          2.253894      2.253894     0.000000    Cartesian    0.00
     72 y         11.269468     11.258727    -0.010741    Cartesian   -0.10
     72 z          6.761681      6.767413     0.005732    Cartesian    0.08
     73 x          4.507787      4.524781     0.016993    Cartesian    0.38
     73 y         13.523362     13.474290    -0.049072    Cartesian   -0.36
     73 z          0.000000      0.000000     0.000000    Cartesian    0.00
     74 x          4.507787      4.528965     0.021178    Cartesian    0.47
     74 y          9.015574      9.009502    -0.006072    Cartesian   -0.07
     74 z          9.015574      8.988157    -0.027418    Cartesian   -0.30
     75 x          2.253894      2.253894     0.000000    Cartesian    0.00
     75 y          6.761681      6.752282    -0.009399    Cartesian   -0.14
     75 z         11.269468     11.262022    -0.007446    Cartesian   -0.07
     76 x          6.761681      6.758756    -0.002925    Cartesian   -0.04
     76 y         11.269468     11.257125    -0.012343    Cartesian   -0.11
     76 z          6.761681      6.758437    -0.003243    Cartesian   -0.05
     77 x          4.507787      4.498146    -0.009642    Cartesian   -0.21
     77 y         13.523362     13.542477     0.019116    Cartesian    0.14
     77 z          4.507787      4.483592    -0.024195    Cartesian   -0.54
     78 x         -2.253894     -2.247117     0.006777    Cartesian   -0.30
     78 y         -2.253894     -2.247117     0.006777    Cartesian   -0.30
     78 z         11.269468     11.265888    -0.003580    Cartesian   -0.03
     79 x         11.269468     11.266903    -0.002565    Cartesian   -0.02
     79 y         11.269468     11.266903    -0.002565    Cartesian   -0.02
     79 z         -2.253894     -2.248929     0.004965    Cartesian   -0.22
--------------------------------------------------------------------------------


  Time to end of optimisation  =      141.7645 seconds


  Peak dynamic memory used =      85.75 MB 


  Timing analysis for GULP :

--------------------------------------------------------------------------------
  Task / Subroutine                                          Time (Seconds)
--------------------------------------------------------------------------------
  Calculation of reciprocal space energy and derivatives          0.0008
  Calculation of reciprocal space energy using symmetry           0.0011
  Calculation of real space energy and derivatives                0.0039
  Calculation of real space energy using symmetry                 0.0098
  Calculation for region 1 energy and derivatives (2-b)          61.2122
  Calculation for region 2a energy                               78.8968
  Calculation for region 2b energy                                0.0002
  Calculation and manipulation of Hessian matrix                  1.2883
  Calculation of matrix inversion                                 0.0823
  Symmetry generation of equivalent positions                     0.0050
--------------------------------------------------------------------------------
  Total CPU time                                                141.7646
--------------------------------------------------------------------------------


  Dump file written as Na3OCl.grs


  Job Finished at 13:19.46  3rd December   2020                               

