********************************************************************************
*                       GENERAL UTILITY LATTICE PROGRAM                        *
*                                 Julian Gale                                  *
*                       Curtin Institute for Computation                       *
*                    School of Molecular and Life Sciences                     *
*                    Curtin University, Western Australia                      *
********************************************************************************
* Version = 5.2.0 * Last modified =  10th September 2020                       *
********************************************************************************
*  optimise     - perform optimisation run                                     *
*  conp         - constant pressure calculation                                *
*  property     - calculate properties for final geometry                      *
*  defect       - perform defect calculation after bulk run                    *
*  compare      - compare initial and final structures                         *
********************************************************************************

  Job Started  at 13:17.30  3rd December   2020                               

  Number of CPUs =     1


  Total number of configurations input =      1

********************************************************************************
*  Input for Configuration =   1                                               *
********************************************************************************

  Formula = ClONa3                                                      

  Number of irreducible atoms/shells =       5


  Total number atoms/shells =       7

  Dimensionality = 3               :  Bulk   


  Symmetry :

  Crystal family                   :  Cubic       
  Crystal class  (Groth - 1921)    :  Cubic Hexakisoctahedral              

  Space group (centrosymmetric)    :  P M 3 M         

  Patterson group                  :  P m -3 m 

  Cartesian lattice vectors (Angstroms) :

        4.504000    0.000000    0.000000
        0.000000    4.504000    0.000000
        0.000000    0.000000    4.504000

  Cell parameters (Angstroms/Degrees):

  a =       4.5040    alpha =  90.0000
  b =       4.5040    beta  =  90.0000
  c =       4.5040    gamma =  90.0000

  Initial cell volume =          91.368216 Angs**3

  Temperature of configuration =   0.00     K 

  Pressure of configuration =         0.000 GPa 

  Fractional coordinates of asymmetric unit :

--------------------------------------------------------------------------------
   No.  Atomic       x           y          z         Charge      Occupancy
        Label      (Frac)      (Frac)     (Frac)        (e)         (Frac)  
--------------------------------------------------------------------------------
      1 Cl    c    0.000000    0.000000    0.000000     1.48500    1.000000    
      2 O     c    0.500000    0.500000    0.500000     0.18300    1.000000    
      3 Na    c    0.500000    0.500000    0.000000     1.00000    1.000000    
      4 Cl    s    0.000000    0.000000    0.000000    -2.48500    1.000000    
      5 O     s    0.500000    0.500000    0.500000    -2.18300    1.000000    
--------------------------------------------------------------------------------


  Constraints : 

--------------------------------------------------------------------------------
  Constraint no.      Unconstrained     Constrained    Coefficient    Offset
                         Variable         Variable
--------------------------------------------------------------------------------
           1              Strain 1        Strain 2       1.00000      0.0000
           2              Strain 1        Strain 3       1.00000      0.0000
--------------------------------------------------------------------------------


********************************************************************************
*  General input information                                                   *
********************************************************************************

  Species output for all configurations : 

--------------------------------------------------------------------------------
  Species    Type    Atomic    Atomic    Charge       Radii (Angs)     Library
                     Number     Mass       (e)     Cova   Ionic  VDW   Symbol
--------------------------------------------------------------------------------
    Na       Core       11      22.99   1.000000   0.970  0.000  2.300          
    O        Core        8      16.00   0.183000   0.730  0.000  1.360          
    O        Shell       8       0.00  -2.183000   0.730  0.000  0.000          
    Cl       Core       17      35.45   1.485000   0.990  0.000  1.650          
    Cl       Shell      17       0.00  -2.485000   0.990  0.000  0.000          
    Mg       Core       12      24.31   0.415000   1.100  0.000  0.000          
    Mg       Shell      12       0.00   1.585000   1.100  0.000  0.000          
    Ca       Core       20      40.08  -1.135000   0.990  0.000  0.000          
    Ca       Shell      20       0.00   3.135000   0.990  0.000  0.000          
    Sr       Core       38      87.62  -1.251000   1.120  0.000  0.000          
    Sr       Shell      38       0.00   3.251000   1.120  0.000  0.000          
    Ba       Core       56     137.33  -7.203000   1.340  0.000  0.000          
    Ba       Shell      56       0.00   9.203000   1.340  0.000  0.000          
--------------------------------------------------------------------------------


  Lattice summation method               =    Ewald          (3-D)
                                         =    Parry          (2-D)
                                         =    Saunders et al (1-D)
  Accuracy factor for lattice sums       =   12.000


  Analytic derivatives to be used

  Time limit = Infinity

  Maximum range for interatomic potentials =    100000.000000 Angstroms

  General interatomic potentials :

--------------------------------------------------------------------------------
Atom  Types   Potential      Parameter       Value         Units   Cutoffs(Ang)
  1     2                                                            Min /  Max 
--------------------------------------------------------------------------------
O    c O    s Spring (c-s)  Spring k 2       593.71600    eV*Ang^-2 0.000  0.800
                            Spring k 4       0.0000000    eV*Ang^-4 
--------------------------------------------------------------------------------
Cl   c Cl   s Spring (c-s)  Spring k 2       29.380000    eV*Ang^-2 0.000  0.800
                            Spring k 4       0.0000000    eV*Ang^-4 
--------------------------------------------------------------------------------
Mg   c Mg   s Spring (c-s)  Spring k 2       361.60000    eV*Ang^-2 0.000  0.800
                            Spring k 4       0.0000000    eV*Ang^-4 
--------------------------------------------------------------------------------
Ca   c Ca   s Spring (c-s)  Spring k 2       110.20000    eV*Ang^-2 0.000  0.800
                            Spring k 4       0.0000000    eV*Ang^-4 
--------------------------------------------------------------------------------
Sr   c Sr   s Spring (c-s)  Spring k 2       71.700000    eV*Ang^-2 0.000  0.800
                            Spring k 4       0.0000000    eV*Ang^-4 
--------------------------------------------------------------------------------
Ba   c Ba   s Spring (c-s)  Spring k 2       495.20000    eV*Ang^-2 0.000  0.800
                            Spring k 4       0.0000000    eV*Ang^-4 
--------------------------------------------------------------------------------
Na   c Na   c Buckingham    Buckingham A     1788.1900    eV        0.000 12.000
                            Buckingham rho  0.15900000    Ang       
                            Buckingham C     0.0000000    eV*Ang^6  
--------------------------------------------------------------------------------
Na   c O    s Buckingham    Buckingham A     1226.8400    eV        0.000 12.000
                            Buckingham rho  0.30700000    Ang       
                            Buckingham C     0.0000000    eV*Ang^6  
--------------------------------------------------------------------------------
Na   c Cl   s Buckingham    Buckingham A     2314.7000    eV        0.000 12.000
                            Buckingham rho  0.29000000    Ang       
                            Buckingham C     0.0000000    eV*Ang^6  
--------------------------------------------------------------------------------
O    s O    s Buckingham    Buckingham A     22764.300    eV        0.000 12.000
                            Buckingham rho  0.14900000    Ang       
                            Buckingham C     13.190000    eV*Ang^6  
--------------------------------------------------------------------------------
O    s Cl   s Buckingham    Buckingham A     8286.9100    eV        0.000 12.000
                            Buckingham rho  0.25900000    Ang       
                            Buckingham C     62.200000    eV*Ang^6  
--------------------------------------------------------------------------------
Cl   s Cl   s Buckingham    Buckingham A     1227.2000    eV        0.000 12.000
                            Buckingham rho  0.32100000    Ang       
                            Buckingham C     14.530000    eV*Ang^6  
--------------------------------------------------------------------------------
O    s Mg   s Buckingham    Buckingham A     1428.5000    eV        0.000 12.000
                            Buckingham rho  0.29450000    Ang       
                            Buckingham C     0.0000000    eV*Ang^6  
--------------------------------------------------------------------------------
Mg   s Cl   s Buckingham    Buckingham A     4914.5400    eV        0.000 12.000
                            Buckingham rho  0.25700000    Ang       
                            Buckingham C     0.0000000    eV*Ang^6  
--------------------------------------------------------------------------------
O    s Ca   s Buckingham    Buckingham A     1090.4000    eV        0.000 12.000
                            Buckingham rho  0.34370000    Ang       
                            Buckingham C     0.0000000    eV*Ang^6  
--------------------------------------------------------------------------------
Cl   s Ca   s Buckingham    Buckingham A     2302.0000    eV        0.000 12.000
                            Buckingham rho  0.34020000    Ang       
                            Buckingham C     0.0000000    eV*Ang^6  
--------------------------------------------------------------------------------
O    s Sr   s Buckingham    Buckingham A     959.10000    eV        0.000 12.000
                            Buckingham rho  0.37210000    Ang       
                            Buckingham C     0.0000000    eV*Ang^6  
--------------------------------------------------------------------------------
Cl   s Sr   s Buckingham    Buckingham A     2191.0900    eV        0.000 12.000
                            Buckingham rho  0.34570000    Ang       
                            Buckingham C     0.0000000    eV*Ang^6  
--------------------------------------------------------------------------------
O    s Ba   s Buckingham    Buckingham A     905.70000    eV        0.000 12.000
                            Buckingham rho  0.39760000    Ang       
                            Buckingham C     0.0000000    eV*Ang^6  
--------------------------------------------------------------------------------
Cl   s Ba   s Buckingham    Buckingham A     2704.5500    eV        0.000 12.000
                            Buckingham rho  0.35280000    Ang       
                            Buckingham C     0.0000000    eV*Ang^6  
--------------------------------------------------------------------------------

********************************************************************************
*  Output for configuration   1                                                *
********************************************************************************


  Components of energy : 

--------------------------------------------------------------------------------
  Interatomic potentials     =           5.13022605 eV    
  Monopole - monopole (real) =         -10.03624526 eV    
  Monopole - monopole (recip)=         -29.53581274 eV    
  Monopole - monopole (total)=         -39.57205800 eV    
--------------------------------------------------------------------------------
  Total lattice energy       =         -34.44183194 eV    
--------------------------------------------------------------------------------
  Total lattice energy       =           -3323.1103 kJ/(mole unit cells)
--------------------------------------------------------------------------------


  Number of variables =        1

  Maximum number of calculations  =          1000
  Maximum Hessian update interval =            10
  Maximum step size               =   1.000000000
  Maximum parameter tolerance     =   0.000010000
  Maximum function  tolerance     =   0.000010000
  Maximum gradient  tolerance     =   0.001000000
  Maximum gradient  component     =   0.010000000

  Symmetry constrained optimisation

  Symmetry used for second derivatives

  Cell parameters to be optimised using strains

  Newton-Raphson optimiser to be used

  BFGS hessian update to be used

  Lower half triangular hessian to be used

  Start of bulk optimisation :

  Cycle:      0 Energy:       -34.441832  Gnorm:      0.196570  CPU:    0.015
  ** Hessian calculated **
  Cycle:      1 Energy:       -34.441914  Gnorm:      0.000103  CPU:    0.019


  **** Optimisation achieved ****


  Final energy =     -34.44191447 eV
  Final Gnorm  =       0.00000000

  Components of energy : 

--------------------------------------------------------------------------------
  Interatomic potentials     =           5.09689708 eV    
  Monopole - monopole (real) =         -10.02781331 eV    
  Monopole - monopole (recip)=         -29.51099824 eV    
  Monopole - monopole (total)=         -39.53881155 eV    
--------------------------------------------------------------------------------
  Total lattice energy       =         -34.44191447 eV    
--------------------------------------------------------------------------------
  Total lattice energy       =           -3323.1183 kJ/(mole unit cells)
--------------------------------------------------------------------------------

  Final asymmetric unit coordinates :

--------------------------------------------------------------------------------
   No.  Atomic        x           y           z         Radius
        Label       (Frac)      (Frac)      (Frac)       (Angs) 
--------------------------------------------------------------------------------
     1  Cl    c     0.000000    0.000000    0.000000    0.000000
     2  O     c     0.500000    0.500000    0.500000    0.000000
     3  Na    c     0.500000    0.500000    0.000000    0.000000
     4  Cl    s     0.000000    0.000000    0.000000    0.000000
     5  O     s     0.500000    0.500000    0.500000    0.000000
--------------------------------------------------------------------------------

  Final Cartesian lattice vectors (Angstroms) :

        4.507787    0.000000    0.000000
        0.000000    4.507787    0.000000
        0.000000    0.000000    4.507787


  Final cell parameters and derivatives :

--------------------------------------------------------------------------------
       a            4.507787 Angstrom     dE/de1(xx)     0.000000 eV/strain
       b            4.507787 Angstrom     dE/de2(yy)     0.000000 eV/strain
       c            4.507787 Angstrom     dE/de3(zz)     0.000000 eV/strain
       alpha       90.000000 Degrees      dE/de4(yz)     0.000000 eV/strain
       beta        90.000000 Degrees      dE/de5(xz)     0.000000 eV/strain
       gamma       90.000000 Degrees      dE/de6(xy)     0.000000 eV/strain
--------------------------------------------------------------------------------

  Primitive cell volume =            91.598892 Angs**3

  Density of cell =      2.183054 g/cm**3

  Non-primitive cell volume =            91.598892 Angs**3


  Final internal derivatives :

--------------------------------------------------------------------------------
   No.  Atomic          a             b             c           Radius
        Label          (eV)          (eV)          (eV)        (eV/Angs)
--------------------------------------------------------------------------------
      1 Cl    c       0.000000      0.000000      0.000000      0.000000
      2 O     c       0.000000      0.000000      0.000000      0.000000
      3 Na    c       0.000000      0.000000      0.000000      0.000000
      4 Cl    s       0.000000      0.000000      0.000000      0.000000
      5 O     s       0.000000      0.000000      0.000000      0.000000
--------------------------------------------------------------------------------
  Maximum abs         0.000000      0.000000      0.000000      0.000000
--------------------------------------------------------------------------------

  Comparison of initial and final structures : 

--------------------------------------------------------------------------------
  Parameter   Initial value   Final value   Difference    Units      Percent
--------------------------------------------------------------------------------
    Volume        91.368216     91.598892     0.230676    Angs**3      0.25
    a              4.504000      4.507787     0.003787    Angstroms    0.08
    b              4.504000      4.507787     0.003787    Angstroms    0.08
    c              4.504000      4.507787     0.003787    Angstroms    0.08
    alpha         90.000000     90.000000     0.000000    Degrees      0.00
    beta          90.000000     90.000000     0.000000    Degrees      0.00
    gamma         90.000000     90.000000     0.000000    Degrees      0.00
      1 x          0.000000      0.000000     0.000000    Fractional   0.00
      1 y          0.000000      0.000000     0.000000    Fractional   0.00
      1 z          0.000000      0.000000     0.000000    Fractional   0.00
      2 x          0.500000      0.500000     0.000000    Fractional   0.00
      2 y          0.500000      0.500000     0.000000    Fractional   0.00
      2 z          0.500000      0.500000     0.000000    Fractional   0.00
      3 x          0.500000      0.500000     0.000000    Fractional   0.00
      3 y          0.500000      0.500000     0.000000    Fractional   0.00
      3 z          0.000000      0.000000     0.000000    Fractional   0.00
      4 x          0.000000      0.000000     0.000000    Fractional   0.00
      4 y          0.000000      0.000000     0.000000    Fractional   0.00
      4 z          0.000000      0.000000     0.000000    Fractional   0.00
      5 x          0.500000      0.500000     0.000000    Fractional   0.00
      5 y          0.500000      0.500000     0.000000    Fractional   0.00
      5 z          0.500000      0.500000     0.000000    Fractional   0.00
--------------------------------------------------------------------------------


  Born effective charge tensors : 

-------------------------------------------------------------------------------
  Atom             x           y             z
-------------------------------------------------------------------------------
    1 Cl    x      -1.0181     -0.0000      0.0000
            y      -0.0000     -1.0181      0.0000
            z       0.0000      0.0000     -1.0181
-------------------------------------------------------------------------------
    2 O     x      -2.2647      0.0000     -0.0000
            y       0.0000     -2.2647     -0.0000
            z      -0.0000     -0.0000     -2.2647
-------------------------------------------------------------------------------
    3 Na    x       1.2258     -0.0000      0.0000
            y      -0.0000      1.2258     -0.0000
            z       0.0000     -0.0000      0.8313
-------------------------------------------------------------------------------




  Elastic Constant Matrix: (Units=GPa)

-------------------------------------------------------------------------------
  Indices      1         2         3         4         5         6    
-------------------------------------------------------------------------------
       1     95.8177   20.0737   20.0737   -0.0000   -0.0000    0.0000
       2     20.0737   95.8177   20.0737   -0.0000   -0.0000    0.0000
       3     20.0737   20.0737   95.8177   -0.0000   -0.0000    0.0000
       4     -0.0000   -0.0000   -0.0000   20.0737   -0.0000    0.0000
       5     -0.0000   -0.0000   -0.0000   -0.0000   20.0737    0.0000
       6      0.0000    0.0000    0.0000    0.0000    0.0000   20.0737
-------------------------------------------------------------------------------


  Elastic Compliance Matrix: (Units=1/GPa)

-------------------------------------------------------------------------------
  Indices      1         2         3         4         5         6    
-------------------------------------------------------------------------------
       1    0.011253 -0.001949 -0.001949  0.000000  0.000000 -0.000000
       2   -0.001949  0.011253 -0.001949  0.000000  0.000000  0.000000
       3   -0.001949 -0.001949  0.011253  0.000000  0.000000 -0.000000
       4    0.000000  0.000000  0.000000  0.049816  0.000000 -0.000000
       5    0.000000  0.000000  0.000000  0.000000  0.049816 -0.000000
       6   -0.000000  0.000000 -0.000000 -0.000000 -0.000000  0.049816
-------------------------------------------------------------------------------

  Mechanical properties :

-------------------------------------------------------------------------------
  Convention :                    Reuss         Voigt         Hill
-------------------------------------------------------------------------------
  Bulk  Modulus (GPa)     =      45.32174      45.32174      45.32174
  Shear Modulus (GPa)     =      24.72085      27.19304      25.95695
-------------------------------------------------------------------------------
  Velocity S-wave (km/s)  =       3.36511       3.52937       3.44822
  Velocity P-wave (km/s)  =       5.98827       6.11304       6.05098
-------------------------------------------------------------------------------
  Compressibility (1/GPa) =    0.02206447
-------------------------------------------------------------------------------
  Stress axis :                     x             y             z
-------------------------------------------------------------------------------
  Youngs Moduli (GPa)     =      88.86373      88.86373      88.86373
-------------------------------------------------------------------------------
  Poissons Ratio (x)      =                     0.17321       0.17321
  Poissons Ratio (y)      =       0.17321                     0.17321
  Poissons Ratio (z)      =       0.17321       0.17321
-------------------------------------------------------------------------------


  Piezoelectric Strain Matrix: (Units=C/m**2)

-------------------------------------------------------------------------------
  Indices      1         2         3         4         5         6    
-------------------------------------------------------------------------------
       x    -0.00000  -0.00000  -0.00000   0.00000  -0.00000  -0.00000
       y    -0.00000  -0.00000   0.00000  -0.00000   0.00000   0.00000
       z    -0.00000  -0.00000  -0.00000  -0.00000   0.00000   0.00000
-------------------------------------------------------------------------------


  Piezoelectric Stress Matrix: (Units=10**-11 C/N)

-------------------------------------------------------------------------------
  Indices      1         2         3         4         5         6    
-------------------------------------------------------------------------------
       x    -0.00000   0.00000   0.00000   0.00000  -0.00000  -0.00000
       y    -0.00000  -0.00000   0.00000  -0.00000   0.00000   0.00000
       z     0.00000   0.00000  -0.00000  -0.00000   0.00000   0.00000
-------------------------------------------------------------------------------


  Static dielectric constant tensor : 

-------------------------------------------------------------------------------
              x         y         z
-------------------------------------------------------------------------------
       x    22.84729   0.00000   0.00000
       y     0.00000  22.84729  -0.00000
       z     0.00000  -0.00000  22.84729
--------------------------------------------------------------------------------

  High frequency dielectric constant tensor : 

-------------------------------------------------------------------------------
              x         y         z
-------------------------------------------------------------------------------
       x     1.47557   0.00000  -0.00000
       y     0.00000   1.47557  -0.00000
       z    -0.00000  -0.00000   1.47557
-------------------------------------------------------------------------------

  Static refractive indices : 

-------------------------------------------------------------------------------
    1 =    4.77988      2 =    4.77988      3 =    4.77988
-------------------------------------------------------------------------------

  High frequency refractive indices : 

-------------------------------------------------------------------------------
    1 =    1.21473      2 =    1.21473      3 =    1.21473
-------------------------------------------------------------------------------


  Time to end of optimisation =       0.0282 seconds

********************************************************************************
*  Defect calculation for configuration   1 :                                  *
********************************************************************************

  Total number of defects =      1

  Total charge on defect  =  -2.00

  Defect centre is at   0.5000   0.0000   0.0000  Frac

  Region 1 radius =  13.0000      Number of ions =    722

  Number of symmetry inequivalent region 1 ions  =     79

  Region 2 radius =  21.0000      Number of ions =   2240

  Number of symmetry inequivalent region 2a ions =    189

  Region 2a mode = 4 : screened electrostatics due to region 1 
                       neglect correction to region 1 forces from 2a
                       region 2a displacements based on defects only

  Region 2a ions will only interact with defects in region 1

  Interstitials:

--------------------------------------------------------------------------------
    Specification type     Symbol/Number         x          y          z
--------------------------------------------------------------------------------
    Atom/Fractional         O                0.500000   0.000000   0.000000
--------------------------------------------------------------------------------


  Symmetry reduced region 1 (Relative to defect centre) :

--------------------------------------------------------------------------------
   No.   Atomic       x            y             z       Radius  Multiplicity   
         Label      (Angs)       (Angs)        (Angs)    (Angs)     
--------------------------------------------------------------------------------
     1  O     c      0.0000       0.0000       0.0000    0.0000     1    Defect
     2  Cl    c      2.2539 *     0.0000       0.0000    0.0000     2          
     3  Na    c      0.0000      -2.2539 *     0.0000    0.0000     4          
     4  O     c      0.0000      -2.2539 *    -2.2539    0.0000     4          
     5  Na    c      2.2539 *    -2.2539 *    -2.2539    0.0000     8          
     6  Cl    c      2.2539 *     0.0000       4.5078 *  0.0000     8          
     7  Na    c      0.0000      -2.2539 *     4.5078 *  0.0000     8          
     8  Na    c     -4.5078 *    -2.2539 *     0.0000    0.0000     8          
     9  O     c     -4.5078 *    -2.2539 *    -2.2539    0.0000     8          
    10  Cl    c      2.2539 *     4.5078 *     4.5078    0.0000     8          
    11  Na    c     -4.5078 *    -2.2539 *     4.5078 *  0.0000    16          
    12  Cl    c      6.7617 *     0.0000       0.0000    0.0000     2          
    13  Na    c      0.0000       6.7617 *     0.0000    0.0000     4          
    14  O     c      0.0000      -2.2539 *     6.7617 *  0.0000     8          
    15  Na    c      2.2539 *    -2.2539 *     6.7617 *  0.0000    16          
    16  Na    c      6.7617 *    -2.2539 *    -2.2539    0.0000     8          
    17  Cl    c      6.7617 *     0.0000       4.5078 *  0.0000     8          
    18  Na    c      0.0000       6.7617 *     4.5078 *  0.0000     8          
    19  Na    c     -4.5078 *     6.7617 *     0.0000    0.0000     8          
    20  O     c     -4.5078 *    -2.2539 *     6.7617 *  0.0000    16          
    21  Cl    c      2.2539 *     0.0000       9.0156 *  0.0000     8          
    22  Cl    c      6.7617 *     4.5078 *     4.5078    0.0000     8          
    23  Na    c      0.0000      -2.2539 *     9.0156 *  0.0000     8          
    24  Na    c      9.0156 *    -2.2539 *     0.0000    0.0000     8          
    25  Na    c     -4.5078 *     6.7617 *     4.5078 *  0.0000    16          
    26  O     c      9.0156 *    -2.2539 *    -2.2539    0.0000     8          
    27  O     c      0.0000       6.7617 *     6.7617    0.0000     4          
    28  Na    c      2.2539 *     6.7617 *     6.7617    0.0000     8          
    29  Na    c      6.7617 *    -2.2539 *     6.7617 *  0.0000    16          
    30  Cl    c      2.2539 *     4.5078 *     9.0156 *  0.0000    16          
    31  Na    c      9.0156 *    -2.2539 *     4.5078 *  0.0000    16          
    32  Na    c     -4.5078 *    -2.2539 *     9.0156 *  0.0000    16          
    33  O     c     -4.5078 *     6.7617 *     6.7617    0.0000     8          
    34  Cl    c     11.2695 *     0.0000       0.0000    0.0000     2          
    35  Na    c      0.0000      11.2695 *     0.0000    0.0000     4          
    36  Cl    c      6.7617 *     0.0000       9.0156 *  0.0000     8          
    37  Na    c      0.0000       6.7617 *     9.0156 *  0.0000     8          
    38  Na    c      9.0156 *     6.7617 *     0.0000    0.0000     8          
    39  O     c      0.0000      -2.2539 *    11.2695 *  0.0000     8          
    40  O     c      9.0156 *    -2.2539 *     6.7617 *  0.0000    16          
    41  Na    c      2.2539 *    -2.2539 *    11.2695 *  0.0000    16          
    42  Na    c     11.2695 *    -2.2539 *    -2.2539    0.0000     8          
    43  Na    c      6.7617 *     6.7617 *     6.7617    0.0000     8          
    44  Cl    c     11.2695 *     0.0000       4.5078 *  0.0000     8          
    45  Na    c      0.0000      11.2695 *     4.5078 *  0.0000     8          
    46  Na    c      4.5078 *    11.2695 *     0.0000    0.0000     8          
    47  Cl    c      6.7617 *     4.5078 *     9.0156 *  0.0000    16          
    48  Na    c      4.5078 *     6.7617 *     9.0156 *  0.0000    16          
    49  Na    c      9.0156 *     6.7617 *     4.5078 *  0.0000    16          
    50  O     c      4.5078 *    -2.2539 *    11.2695 *  0.0000    16          
    51  Cl    c     11.2695 *     4.5078 *     4.5078    0.0000     8          
    52  Na    c      4.5078 *    11.2695 *     4.5078 *  0.0000    16          
    53  Cl    c      2.2539 *     9.0156 *     9.0156    0.0000     8          
    54  Na    c      9.0156 *    -2.2539 *     9.0156 *  0.0000    16          
    55  O     s      0.0000       0.0000       0.0000    0.0000     1    Defect
    56  Cl    s      2.2539 *     0.0000       0.0000    0.0000     2          
    57  O     s      0.0000      -2.2539 *    -2.2539    0.0000     4          
    58  Cl    s      2.2539 *     0.0000       4.5078 *  0.0000     8          
    59  O     s     -4.5078 *    -2.2539 *    -2.2539    0.0000     8          
    60  Cl    s      2.2539 *     4.5078 *     4.5078    0.0000     8          
    61  Cl    s      6.7617 *     0.0000       0.0000    0.0000     2          
    62  O     s      0.0000      -2.2539 *     6.7617 *  0.0000     8          
    63  Cl    s      6.7617 *     0.0000       4.5078 *  0.0000     8          
    64  O     s     -4.5078 *    -2.2539 *     6.7617 *  0.0000    16          
    65  Cl    s      2.2539 *     0.0000       9.0156 *  0.0000     8          
    66  Cl    s      6.7617 *     4.5078 *     4.5078    0.0000     8          
    67  O     s      9.0156 *    -2.2539 *    -2.2539    0.0000     8          
    68  O     s      0.0000       6.7617 *     6.7617    0.0000     4          
    69  Cl    s      2.2539 *     4.5078 *     9.0156 *  0.0000    16          
    70  O     s     -4.5078 *     6.7617 *     6.7617    0.0000     8          
    71  Cl    s     11.2695 *     0.0000       0.0000    0.0000     2          
    72  Cl    s      6.7617 *     0.0000       9.0156 *  0.0000     8          
    73  O     s      0.0000      -2.2539 *    11.2695 *  0.0000     8          
    74  O     s      9.0156 *    -2.2539 *     6.7617 *  0.0000    16          
    75  Cl    s     11.2695 *     0.0000       4.5078 *  0.0000     8          
    76  Cl    s      6.7617 *     4.5078 *     9.0156 *  0.0000    16          
    77  O     s      4.5078 *    -2.2539 *    11.2695 *  0.0000    16          
    78  Cl    s     11.2695 *     4.5078 *     4.5078    0.0000     8          
    79  Cl    s      2.2539 *     9.0156 *     9.0156    0.0000     8          
--------------------------------------------------------------------------------


  Constraints on symmetry reduced coordinates :

--------------------------------------------------------------------------------
  Constraint no.      Unconstrained     Constrained    Coefficient    
                         Variable         Variable
--------------------------------------------------------------------------------
           1                 4 y             4 z         1.00000
           2                 5 y             5 z         1.00000
           3                 9 y             9 z         1.00000
           4                10 y            10 z         1.00000
           5                16 y            16 z         1.00000
           6                22 y            22 z         1.00000
           7                26 y            26 z         1.00000
           8                27 y            27 z         1.00000
           9                28 y            28 z         1.00000
          10                33 y            33 z         1.00000
          11                42 y            42 z         1.00000
          12                43 y            43 z         1.00000
          13                51 y            51 z         1.00000
          14                53 y            53 z         1.00000
          15                57 y            57 z         1.00000
          16                59 y            59 z         1.00000
          17                60 y            60 z         1.00000
          18                66 y            66 z         1.00000
          19                67 y            67 z         1.00000
          20                68 y            68 z         1.00000
          21                70 y            70 z         1.00000
          22                78 y            78 z         1.00000
          23                79 y            79 z         1.00000
--------------------------------------------------------------------------------


  Components of defect energy : 

--------------------------------------------------------------------------------
  Region 1 - region 1                   =     -9.62696590 eV
  Region 1 - region 2a (unrelaxed)      =     12.83967357 eV
  Region 1 - 2a (relaxed - correction)  =     -1.52042707 eV
  Region 1 (Total)                      =      1.69228060 eV
  Region 2a                             =      0.75978348 eV
  Region 2b                             =     -1.31458956 eV
--------------------------------------------------------------------------------
  Total defect energy                   =      1.13747452 eV
--------------------------------------------------------------------------------

  Largest displacement in region 2 =   0.0323 Angstroms


  Number of variables =      162

  Maximum number of calculations  =        1000
  Maximum Hessian update interval =          10
  Maximum step size               =   1.0000000
  Maximum parameter tolerance     =   0.0000100
  Maximum function  tolerance     =   0.0000100
  Maximum gradient  tolerance     =   0.0010000

  Symmetry adapted optimisation

  Symmetry to be used for second derivatives

  Newton-Raphson optimiser to be used

  BFGS hessian update to be used

  Lower half triangular hessian to be used

  Start of defect optimisation :

  Cycle:      0 Defect Energy:   1.137475  Gnorm:     0.496794  CPU:    2.031
  ** Hessian calculated **
  Cycle:      1 Defect Energy: -11.432008  Gnorm:     0.145242  CPU:    5.419
  ** Hessian calculated **
  Cycle:      2 Defect Energy: -12.391371  Gnorm:     0.097168  CPU:    7.880
  ** Hessian calculated **
  Cycle:      3 Defect Energy: -13.926199  Gnorm:     0.023452  CPU:   10.085
  Cycle:      4 Defect Energy: -14.093898  Gnorm:     0.018547  CPU:   10.459
  Cycle:      5 Defect Energy: -14.297342  Gnorm:     0.020720  CPU:   10.829
  Cycle:      6 Defect Energy: -14.547045  Gnorm:     0.029118  CPU:   11.202
  Cycle:      7 Defect Energy: -14.672828  Gnorm:     0.026136  CPU:   12.821
  Cycle:      8 Defect Energy: -14.732030  Gnorm:     0.015377  CPU:   14.015
  Cycle:      9 Defect Energy: -14.768827  Gnorm:     0.009862  CPU:   15.861
  Cycle:     10 Defect Energy: -14.789603  Gnorm:     0.008082  CPU:   17.766
  Cycle:     11 Defect Energy: -14.817292  Gnorm:     0.005988  CPU:   18.456
  Cycle:     12 Defect Energy: -14.835345  Gnorm:     0.004249  CPU:   18.914
  ** Hessian calculated **
  Cycle:     13 Defect Energy: -14.844534  Gnorm:     0.003033  CPU:   19.947
  Cycle:     14 Defect Energy: -14.848471  Gnorm:     0.002172  CPU:   20.405
  Cycle:     15 Defect Energy: -14.850117  Gnorm:     0.001503  CPU:   20.865
  Cycle:     16 Defect Energy: -14.850810  Gnorm:     0.001056  CPU:   21.328
  Cycle:     17 Defect Energy: -14.851105  Gnorm:     0.000736  CPU:   21.794
  Cycle:     18 Defect Energy: -14.851219  Gnorm:     0.000517  CPU:   22.257
  Cycle:     19 Defect Energy: -14.851258  Gnorm:     0.000361  CPU:   22.719
  Cycle:     20 Defect Energy: -14.851264  Gnorm:     0.000253  CPU:   23.262
  Cycle:     21 Defect Energy: -14.851258  Gnorm:     0.000177  CPU:   23.717
  Cycle:     22 Defect Energy: -14.851249  Gnorm:     0.000124  CPU:   24.162
  ** Hessian calculated **


  **** Optimisation achieved ****


  Final defect energy  =      -14.85124106
  Final defect Gnorm   =        0.00008675

  Components of defect energy : 

--------------------------------------------------------------------------------
  Region 1 - region 1                   =    -25.00113956 eV
  Region 1 - region 2a (unrelaxed)      =     12.09634223 eV
  Region 1 - 2a (relaxed - correction)  =     -1.26342619 eV
  Region 1 (Total)                      =    -14.16822352 eV
  Region 2a                             =      0.63157202 eV
  Region 2b                             =     -1.31458956 eV
--------------------------------------------------------------------------------
  Total defect energy                   =    -14.85124106 eV
--------------------------------------------------------------------------------

  Largest displacement in region 2 =   0.0323 Angstroms

  Final coordinates of region 1 :

--------------------------------------------------------------------------------
   No.  Atomic        x           y           z          Radius      Charge
        Label       (Angs)      (Angs)      (Angs)       (Angs)       (e) 
--------------------------------------------------------------------------------
     1  O     c     2.253894    0.000000    0.000000    0.000000    0.183000
     2  Cl    c     5.360624    0.000000    0.000000    0.000000    1.485000
     3  Cl    c    -0.852837    0.000000    0.000000    0.000000    1.485000
     4  Na    c     2.253894   -2.144920    0.000000    0.000000    1.000000
     5  Na    c     2.253894    2.144920    0.000000    0.000000    1.000000
     6  Na    c     2.253894    0.000000   -2.144920    0.000000    1.000000
     7  Na    c     2.253894    0.000000    2.144920    0.000000    1.000000
     8  O     c     2.253894   -2.370264   -2.370264    0.000000    0.183000
     9  O     c     2.253894   -2.370264    2.370264    0.000000    0.183000
    10  O     c     2.253894    2.370264   -2.370264    0.000000    0.183000
    11  O     c     2.253894    2.370264    2.370264    0.000000    0.183000
    12  Na    c     4.450866   -1.936852   -1.936852    0.000000    1.000000
    13  Na    c     4.450866   -1.936852    1.936852    0.000000    1.000000
    14  Na    c     4.450866    1.936852   -1.936852    0.000000    1.000000
    15  Na    c     4.450866    1.936852    1.936852    0.000000    1.000000
    16  Na    c     0.056921   -1.936852   -1.936852    0.000000    1.000000
    17  Na    c     0.056921   -1.936852    1.936852    0.000000    1.000000
    18  Na    c     0.056921    1.936852   -1.936852    0.000000    1.000000
    19  Na    c     0.056921    1.936852    1.936852    0.000000    1.000000
    20  Cl    c     4.517257    0.000000    4.640395    0.000000    1.485000
    21  Cl    c     4.517257    0.000000   -4.640395    0.000000    1.485000
    22  Cl    c     4.517257    4.640395    0.000000    0.000000    1.485000
    23  Cl    c     4.517257   -4.640395    0.000000    0.000000    1.485000
    24  Cl    c    -0.009470    0.000000    4.640395    0.000000    1.485000
    25  Cl    c    -0.009470    0.000000   -4.640395    0.000000    1.485000
    26  Cl    c    -0.009470    4.640395    0.000000    0.000000    1.485000
    27  Cl    c    -0.009470   -4.640395    0.000000    0.000000    1.485000
    28  Na    c     2.253894   -2.322183    4.550817    0.000000    1.000000
    29  Na    c     2.253894   -2.322183   -4.550817    0.000000    1.000000
    30  Na    c     2.253894    2.322183    4.550817    0.000000    1.000000
    31  Na    c     2.253894    2.322183   -4.550817    0.000000    1.000000
    32  Na    c     2.253894    4.550817   -2.322183    0.000000    1.000000
    33  Na    c     2.253894    4.550817    2.322183    0.000000    1.000000
    34  Na    c     2.253894   -4.550817   -2.322183    0.000000    1.000000
    35  Na    c     2.253894   -4.550817    2.322183    0.000000    1.000000
    36  Na    c    -2.499182   -2.211840    0.000000    0.000000    1.000000
    37  Na    c    -2.499182    2.211840    0.000000    0.000000    1.000000
    38  Na    c    -2.499182    0.000000   -2.211840    0.000000    1.000000
    39  Na    c    -2.499182    0.000000    2.211840    0.000000    1.000000
    40  Na    c     7.006969   -2.211840    0.000000    0.000000    1.000000
    41  Na    c     7.006969    2.211840    0.000000    0.000000    1.000000
    42  Na    c     7.006969    0.000000   -2.211840    0.000000    1.000000
    43  Na    c     7.006969    0.000000    2.211840    0.000000    1.000000
    44  O     c    -2.232575   -2.290211   -2.290211    0.000000    0.183000
    45  O     c    -2.232575   -2.290211    2.290211    0.000000    0.183000
    46  O     c    -2.232575    2.290211   -2.290211    0.000000    0.183000
    47  O     c    -2.232575    2.290211    2.290211    0.000000    0.183000
    48  O     c     6.740362   -2.290211   -2.290211    0.000000    0.183000
    49  O     c     6.740362   -2.290211    2.290211    0.000000    0.183000
    50  O     c     6.740362    2.290211   -2.290211    0.000000    0.183000
    51  O     c     6.740362    2.290211    2.290211    0.000000    0.183000
    52  Cl    c     4.553051    4.638868    4.638868    0.000000    1.485000
    53  Cl    c     4.553051    4.638868   -4.638868    0.000000    1.485000
    54  Cl    c     4.553051   -4.638868    4.638868    0.000000    1.485000
    55  Cl    c     4.553051   -4.638868   -4.638868    0.000000    1.485000
    56  Cl    c    -0.045264    4.638868    4.638868    0.000000    1.485000
    57  Cl    c    -0.045264    4.638868   -4.638868    0.000000    1.485000
    58  Cl    c    -0.045264   -4.638868    4.638868    0.000000    1.485000
    59  Cl    c    -0.045264   -4.638868   -4.638868    0.000000    1.485000
    60  Na    c    -1.853425   -2.245412    4.498614    0.000000    1.000000
    61  Na    c    -1.853425   -2.245412   -4.498614    0.000000    1.000000
    62  Na    c    -1.853425    2.245412    4.498614    0.000000    1.000000
    63  Na    c    -1.853425    2.245412   -4.498614    0.000000    1.000000
    64  Na    c    -1.853425    4.498614   -2.245412    0.000000    1.000000
    65  Na    c    -1.853425    4.498614    2.245412    0.000000    1.000000
    66  Na    c    -1.853425   -4.498614   -2.245412    0.000000    1.000000
    67  Na    c    -1.853425   -4.498614    2.245412    0.000000    1.000000
    68  Na    c     6.361212   -2.245412    4.498614    0.000000    1.000000
    69  Na    c     6.361212   -2.245412   -4.498614    0.000000    1.000000
    70  Na    c     6.361212    2.245412    4.498614    0.000000    1.000000
    71  Na    c     6.361212    2.245412   -4.498614    0.000000    1.000000
    72  Na    c     6.361212    4.498614   -2.245412    0.000000    1.000000
    73  Na    c     6.361212    4.498614    2.245412    0.000000    1.000000
    74  Na    c     6.361212   -4.498614   -2.245412    0.000000    1.000000
    75  Na    c     6.361212   -4.498614    2.245412    0.000000    1.000000
    76  Cl    c     9.133196    0.000000    0.000000    0.000000    1.485000
    77  Cl    c    -4.625409    0.000000    0.000000    0.000000    1.485000
    78  Na    c     2.253894    6.568276    0.000000    0.000000    1.000000
    79  Na    c     2.253894   -6.568276    0.000000    0.000000    1.000000
    80  Na    c     2.253894    0.000000    6.568276    0.000000    1.000000
    81  Na    c     2.253894    0.000000   -6.568276    0.000000    1.000000
    82  O     c     2.253894   -2.251108    6.815046    0.000000    0.183000
    83  O     c     2.253894   -2.251108   -6.815046    0.000000    0.183000
    84  O     c     2.253894    2.251108    6.815046    0.000000    0.183000
    85  O     c     2.253894    2.251108   -6.815046    0.000000    0.183000
    86  O     c     2.253894    6.815046   -2.251108    0.000000    0.183000
    87  O     c     2.253894    6.815046    2.251108    0.000000    0.183000
    88  O     c     2.253894   -6.815046   -2.251108    0.000000    0.183000
    89  O     c     2.253894   -6.815046    2.251108    0.000000    0.183000
    90  Na    c     4.504205   -2.207090    6.948044    0.000000    1.000000
    91  Na    c     4.504205   -2.207090   -6.948044    0.000000    1.000000
    92  Na    c     4.504205    2.207090    6.948044    0.000000    1.000000
    93  Na    c     4.504205    2.207090   -6.948044    0.000000    1.000000
    94  Na    c     4.504205    6.948044   -2.207090    0.000000    1.000000
    95  Na    c     4.504205    6.948044    2.207090    0.000000    1.000000
    96  Na    c     4.504205   -6.948044   -2.207090    0.000000    1.000000
    97  Na    c     4.504205   -6.948044    2.207090    0.000000    1.000000
    98  Na    c     0.003582   -2.207090    6.948044    0.000000    1.000000
    99  Na    c     0.003582   -2.207090   -6.948044    0.000000    1.000000
   100  Na    c     0.003582    2.207090    6.948044    0.000000    1.000000
   101  Na    c     0.003582    2.207090   -6.948044    0.000000    1.000000
   102  Na    c     0.003582    6.948044   -2.207090    0.000000    1.000000
   103  Na    c     0.003582    6.948044    2.207090    0.000000    1.000000
   104  Na    c     0.003582   -6.948044   -2.207090    0.000000    1.000000
   105  Na    c     0.003582   -6.948044    2.207090    0.000000    1.000000
   106  Na    c     8.970393   -2.550681   -2.550681    0.000000    1.000000
   107  Na    c     8.970393   -2.550681    2.550681    0.000000    1.000000
   108  Na    c     8.970393    2.550681   -2.550681    0.000000    1.000000
   109  Na    c     8.970393    2.550681    2.550681    0.000000    1.000000
   110  Na    c    -4.462606   -2.550681   -2.550681    0.000000    1.000000
   111  Na    c    -4.462606   -2.550681    2.550681    0.000000    1.000000
   112  Na    c    -4.462606    2.550681   -2.550681    0.000000    1.000000
   113  Na    c    -4.462606    2.550681    2.550681    0.000000    1.000000
   114  Cl    c     9.090442    0.000000    4.533282    0.000000    1.485000
   115  Cl    c     9.090442    0.000000   -4.533282    0.000000    1.485000
   116  Cl    c     9.090442    4.533282    0.000000    0.000000    1.485000
   117  Cl    c     9.090442   -4.533282    0.000000    0.000000    1.485000
   118  Cl    c    -4.582654    0.000000    4.533282    0.000000    1.485000
   119  Cl    c    -4.582654    0.000000   -4.533282    0.000000    1.485000
   120  Cl    c    -4.582654    4.533282    0.000000    0.000000    1.485000
   121  Cl    c    -4.582654   -4.533282    0.000000    0.000000    1.485000
   122  Na    c     2.253894    6.801996    4.509640    0.000000    1.000000
   123  Na    c     2.253894    6.801996   -4.509640    0.000000    1.000000
   124  Na    c     2.253894   -6.801996    4.509640    0.000000    1.000000
   125  Na    c     2.253894   -6.801996   -4.509640    0.000000    1.000000
   126  Na    c     2.253894    4.509640    6.801996    0.000000    1.000000
   127  Na    c     2.253894    4.509640   -6.801996    0.000000    1.000000
   128  Na    c     2.253894   -4.509640    6.801996    0.000000    1.000000
   129  Na    c     2.253894   -4.509640   -6.801996    0.000000    1.000000
   130  Na    c    -2.312730    6.667983    0.000000    0.000000    1.000000
   131  Na    c    -2.312730   -6.667983    0.000000    0.000000    1.000000
   132  Na    c    -2.312730    0.000000    6.667983    0.000000    1.000000
   133  Na    c    -2.312730    0.000000   -6.667983    0.000000    1.000000
   134  Na    c     6.820517    6.667983    0.000000    0.000000    1.000000
   135  Na    c     6.820517   -6.667983    0.000000    0.000000    1.000000
   136  Na    c     6.820517    0.000000    6.667983    0.000000    1.000000
   137  Na    c     6.820517    0.000000   -6.667983    0.000000    1.000000
   138  O     c    -2.249143   -2.253905    6.743992    0.000000    0.183000
   139  O     c    -2.249143   -2.253905   -6.743992    0.000000    0.183000
   140  O     c    -2.249143    2.253905    6.743992    0.000000    0.183000
   141  O     c    -2.249143    2.253905   -6.743992    0.000000    0.183000
   142  O     c    -2.249143    6.743992   -2.253905    0.000000    0.183000
   143  O     c    -2.249143    6.743992    2.253905    0.000000    0.183000
   144  O     c    -2.249143   -6.743992   -2.253905    0.000000    0.183000
   145  O     c    -2.249143   -6.743992    2.253905    0.000000    0.183000
   146  O     c     6.756930   -2.253905    6.743992    0.000000    0.183000
   147  O     c     6.756930   -2.253905   -6.743992    0.000000    0.183000
   148  O     c     6.756930    2.253905    6.743992    0.000000    0.183000
   149  O     c     6.756930    2.253905   -6.743992    0.000000    0.183000
   150  O     c     6.756930    6.743992   -2.253905    0.000000    0.183000
   151  O     c     6.756930    6.743992    2.253905    0.000000    0.183000
   152  O     c     6.756930   -6.743992   -2.253905    0.000000    0.183000
   153  O     c     6.756930   -6.743992    2.253905    0.000000    0.183000
   154  Cl    c     4.490032    0.000000    9.064329    0.000000    1.485000
   155  Cl    c     4.490032    0.000000   -9.064329    0.000000    1.485000
   156  Cl    c     4.490032    9.064329    0.000000    0.000000    1.485000
   157  Cl    c     4.490032   -9.064329    0.000000    0.000000    1.485000
   158  Cl    c     0.017756    0.000000    9.064329    0.000000    1.485000
   159  Cl    c     0.017756    0.000000   -9.064329    0.000000    1.485000
   160  Cl    c     0.017756    9.064329    0.000000    0.000000    1.485000
   161  Cl    c     0.017756   -9.064329    0.000000    0.000000    1.485000
   162  Cl    c     9.083713    4.585664    4.585664    0.000000    1.485000
   163  Cl    c     9.083713    4.585664   -4.585664    0.000000    1.485000
   164  Cl    c     9.083713   -4.585664    4.585664    0.000000    1.485000
   165  Cl    c     9.083713   -4.585664   -4.585664    0.000000    1.485000
   166  Cl    c    -4.575926    4.585664    4.585664    0.000000    1.485000
   167  Cl    c    -4.575926    4.585664   -4.585664    0.000000    1.485000
   168  Cl    c    -4.575926   -4.585664    4.585664    0.000000    1.485000
   169  Cl    c    -4.575926   -4.585664   -4.585664    0.000000    1.485000
   170  Na    c     2.253894   -2.104761    9.046148    0.000000    1.000000
   171  Na    c     2.253894   -2.104761   -9.046148    0.000000    1.000000
   172  Na    c     2.253894    2.104761    9.046148    0.000000    1.000000
   173  Na    c     2.253894    2.104761   -9.046148    0.000000    1.000000
   174  Na    c     2.253894    9.046148   -2.104761    0.000000    1.000000
   175  Na    c     2.253894    9.046148    2.104761    0.000000    1.000000
   176  Na    c     2.253894   -9.046148   -2.104761    0.000000    1.000000
   177  Na    c     2.253894   -9.046148    2.104761    0.000000    1.000000
   178  Na    c    10.947533   -2.234777    0.000000    0.000000    1.000000
   179  Na    c    10.947533    2.234777    0.000000    0.000000    1.000000
   180  Na    c    -6.439746   -2.234777    0.000000    0.000000    1.000000
   181  Na    c    -6.439746    2.234777    0.000000    0.000000    1.000000
   182  Na    c    10.947533    0.000000   -2.234777    0.000000    1.000000
   183  Na    c    10.947533    0.000000    2.234777    0.000000    1.000000
   184  Na    c    -6.439746    0.000000   -2.234777    0.000000    1.000000
   185  Na    c    -6.439746    0.000000    2.234777    0.000000    1.000000
   186  Na    c    -2.209275    6.731391    4.508424    0.000000    1.000000
   187  Na    c    -2.209275    6.731391   -4.508424    0.000000    1.000000
   188  Na    c    -2.209275   -6.731391    4.508424    0.000000    1.000000
   189  Na    c    -2.209275   -6.731391   -4.508424    0.000000    1.000000
   190  Na    c     6.717062    6.731391    4.508424    0.000000    1.000000
   191  Na    c     6.717062    6.731391   -4.508424    0.000000    1.000000
   192  Na    c     6.717062   -6.731391    4.508424    0.000000    1.000000
   193  Na    c     6.717062   -6.731391   -4.508424    0.000000    1.000000
   194  Na    c     6.717062    4.508424    6.731391    0.000000    1.000000
   195  Na    c     6.717062    4.508424   -6.731391    0.000000    1.000000
   196  Na    c     6.717062   -4.508424    6.731391    0.000000    1.000000
   197  Na    c     6.717062   -4.508424   -6.731391    0.000000    1.000000
   198  Na    c    -2.209275    4.508424    6.731391    0.000000    1.000000
   199  Na    c    -2.209275    4.508424   -6.731391    0.000000    1.000000
   200  Na    c    -2.209275   -4.508424    6.731391    0.000000    1.000000
   201  Na    c    -2.209275   -4.508424   -6.731391    0.000000    1.000000
   202  O     c    11.233868   -2.254065   -2.254065    0.000000    0.183000
   203  O     c    11.233868   -2.254065    2.254065    0.000000    0.183000
   204  O     c    11.233868    2.254065   -2.254065    0.000000    0.183000
   205  O     c    11.233868    2.254065    2.254065    0.000000    0.183000
   206  O     c    -6.726081   -2.254065   -2.254065    0.000000    0.183000
   207  O     c    -6.726081   -2.254065    2.254065    0.000000    0.183000
   208  O     c    -6.726081    2.254065   -2.254065    0.000000    0.183000
   209  O     c    -6.726081    2.254065    2.254065    0.000000    0.183000
   210  O     c     2.253894    6.777494    6.777494    0.000000    0.183000
   211  O     c     2.253894    6.777494   -6.777494    0.000000    0.183000
   212  O     c     2.253894   -6.777494    6.777494    0.000000    0.183000
   213  O     c     2.253894   -6.777494   -6.777494    0.000000    0.183000
   214  Na    c     4.506921    6.730893    6.730893    0.000000    1.000000
   215  Na    c     4.506921    6.730893   -6.730893    0.000000    1.000000
   216  Na    c     4.506921   -6.730893    6.730893    0.000000    1.000000
   217  Na    c     4.506921   -6.730893   -6.730893    0.000000    1.000000
   218  Na    c     0.000866    6.730893    6.730893    0.000000    1.000000
   219  Na    c     0.000866    6.730893   -6.730893    0.000000    1.000000
   220  Na    c     0.000866   -6.730893    6.730893    0.000000    1.000000
   221  Na    c     0.000866   -6.730893   -6.730893    0.000000    1.000000
   222  Na    c     9.005211   -2.303035    6.494167    0.000000    1.000000
   223  Na    c     9.005211   -2.303035   -6.494167    0.000000    1.000000
   224  Na    c     9.005211    2.303035    6.494167    0.000000    1.000000
   225  Na    c     9.005211    2.303035   -6.494167    0.000000    1.000000
   226  Na    c     9.005211    6.494167   -2.303035    0.000000    1.000000
   227  Na    c     9.005211    6.494167    2.303035    0.000000    1.000000
   228  Na    c     9.005211   -6.494167   -2.303035    0.000000    1.000000
   229  Na    c     9.005211   -6.494167    2.303035    0.000000    1.000000
   230  Na    c    -4.497424   -2.303035    6.494167    0.000000    1.000000
   231  Na    c    -4.497424   -2.303035   -6.494167    0.000000    1.000000
   232  Na    c    -4.497424    2.303035    6.494167    0.000000    1.000000
   233  Na    c    -4.497424    2.303035   -6.494167    0.000000    1.000000
   234  Na    c    -4.497424    6.494167   -2.303035    0.000000    1.000000
   235  Na    c    -4.497424    6.494167    2.303035    0.000000    1.000000
   236  Na    c    -4.497424   -6.494167   -2.303035    0.000000    1.000000
   237  Na    c    -4.497424   -6.494167    2.303035    0.000000    1.000000
   238  Cl    c     4.521345    4.522858    9.053388    0.000000    1.485000
   239  Cl    c     4.521345    4.522858   -9.053388    0.000000    1.485000
   240  Cl    c     4.521345    9.053388    4.522858    0.000000    1.485000
   241  Cl    c     4.521345    9.053388   -4.522858    0.000000    1.485000
   242  Cl    c     4.521345   -4.522858    9.053388    0.000000    1.485000
   243  Cl    c     4.521345   -4.522858   -9.053388    0.000000    1.485000
   244  Cl    c     4.521345   -9.053388    4.522858    0.000000    1.485000
   245  Cl    c     4.521345   -9.053388   -4.522858    0.000000    1.485000
   246  Cl    c    -0.013557    4.522858    9.053388    0.000000    1.485000
   247  Cl    c    -0.013557    4.522858   -9.053388    0.000000    1.485000
   248  Cl    c    -0.013557    9.053388    4.522858    0.000000    1.485000
   249  Cl    c    -0.013557    9.053388   -4.522858    0.000000    1.485000
   250  Cl    c    -0.013557   -4.522858    9.053388    0.000000    1.485000
   251  Cl    c    -0.013557   -4.522858   -9.053388    0.000000    1.485000
   252  Cl    c    -0.013557   -9.053388    4.522858    0.000000    1.485000
   253  Cl    c    -0.013557   -9.053388   -4.522858    0.000000    1.485000
   254  Na    c    11.445680   -2.169847    4.490759    0.000000    1.000000
   255  Na    c    11.445680   -2.169847   -4.490759    0.000000    1.000000
   256  Na    c    11.445680    2.169847    4.490759    0.000000    1.000000
   257  Na    c    11.445680    2.169847   -4.490759    0.000000    1.000000
   258  Na    c    -6.937892   -2.169847    4.490759    0.000000    1.000000
   259  Na    c    -6.937892   -2.169847   -4.490759    0.000000    1.000000
   260  Na    c    -6.937892    2.169847    4.490759    0.000000    1.000000
   261  Na    c    -6.937892    2.169847   -4.490759    0.000000    1.000000
   262  Na    c    11.445680    4.490759   -2.169847    0.000000    1.000000
   263  Na    c    11.445680    4.490759    2.169847    0.000000    1.000000
   264  Na    c    11.445680   -4.490759   -2.169847    0.000000    1.000000
   265  Na    c    11.445680   -4.490759    2.169847    0.000000    1.000000
   266  Na    c    -6.937892    4.490759   -2.169847    0.000000    1.000000
   267  Na    c    -6.937892    4.490759    2.169847    0.000000    1.000000
   268  Na    c    -6.937892   -4.490759   -2.169847    0.000000    1.000000
   269  Na    c    -6.937892   -4.490759    2.169847    0.000000    1.000000
   270  Na    c    -2.421859   -2.231797    8.994585    0.000000    1.000000
   271  Na    c    -2.421859   -2.231797   -8.994585    0.000000    1.000000
   272  Na    c    -2.421859    2.231797    8.994585    0.000000    1.000000
   273  Na    c    -2.421859    2.231797   -8.994585    0.000000    1.000000
   274  Na    c    -2.421859    8.994585   -2.231797    0.000000    1.000000
   275  Na    c    -2.421859    8.994585    2.231797    0.000000    1.000000
   276  Na    c    -2.421859   -8.994585   -2.231797    0.000000    1.000000
   277  Na    c    -2.421859   -8.994585    2.231797    0.000000    1.000000
   278  Na    c     6.929646   -2.231797    8.994585    0.000000    1.000000
   279  Na    c     6.929646   -2.231797   -8.994585    0.000000    1.000000
   280  Na    c     6.929646    2.231797    8.994585    0.000000    1.000000
   281  Na    c     6.929646    2.231797   -8.994585    0.000000    1.000000
   282  Na    c     6.929646    8.994585   -2.231797    0.000000    1.000000
   283  Na    c     6.929646    8.994585    2.231797    0.000000    1.000000
   284  Na    c     6.929646   -8.994585   -2.231797    0.000000    1.000000
   285  Na    c     6.929646   -8.994585    2.231797    0.000000    1.000000
   286  O     c    -2.257811    6.769856    6.769856    0.000000    0.183000
   287  O     c    -2.257811    6.769856   -6.769856    0.000000    0.183000
   288  O     c    -2.257811   -6.769856    6.769856    0.000000    0.183000
   289  O     c    -2.257811   -6.769856   -6.769856    0.000000    0.183000
   290  O     c     6.765599    6.769856    6.769856    0.000000    0.183000
   291  O     c     6.765599    6.769856   -6.769856    0.000000    0.183000
   292  O     c     6.765599   -6.769856    6.769856    0.000000    0.183000
   293  O     c     6.765599   -6.769856   -6.769856    0.000000    0.183000
   294  Cl    c    13.696217    0.000000    0.000000    0.000000    1.485000
   295  Cl    c    -9.188430    0.000000    0.000000    0.000000    1.485000
   296  Na    c     2.253894   11.370589    0.000000    0.000000    1.000000
   297  Na    c     2.253894  -11.370589    0.000000    0.000000    1.000000
   298  Na    c     2.253894    0.000000   11.370589    0.000000    1.000000
   299  Na    c     2.253894    0.000000  -11.370589    0.000000    1.000000
   300  Cl    c     9.026689    0.000000    9.060175    0.000000    1.485000
   301  Cl    c     9.026689    0.000000   -9.060175    0.000000    1.485000
   302  Cl    c     9.026689    9.060175    0.000000    0.000000    1.485000
   303  Cl    c     9.026689   -9.060175    0.000000    0.000000    1.485000
   304  Cl    c    -4.518901    0.000000    9.060175    0.000000    1.485000
   305  Cl    c    -4.518901    0.000000   -9.060175    0.000000    1.485000
   306  Cl    c    -4.518901    9.060175    0.000000    0.000000    1.485000
   307  Cl    c    -4.518901   -9.060175    0.000000    0.000000    1.485000
   308  Na    c     2.253894    6.770773    9.019609    0.000000    1.000000
   309  Na    c     2.253894    6.770773   -9.019609    0.000000    1.000000
   310  Na    c     2.253894   -6.770773    9.019609    0.000000    1.000000
   311  Na    c     2.253894   -6.770773   -9.019609    0.000000    1.000000
   312  Na    c     2.253894    9.019609    6.770773    0.000000    1.000000
   313  Na    c     2.253894    9.019609   -6.770773    0.000000    1.000000
   314  Na    c     2.253894   -9.019609    6.770773    0.000000    1.000000
   315  Na    c     2.253894   -9.019609   -6.770773    0.000000    1.000000
   316  Na    c    11.178286    6.843473    0.000000    0.000000    1.000000
   317  Na    c    11.178286   -6.843473    0.000000    0.000000    1.000000
   318  Na    c    -6.670499    6.843473    0.000000    0.000000    1.000000
   319  Na    c    -6.670499   -6.843473    0.000000    0.000000    1.000000
   320  Na    c    11.178286    0.000000    6.843473    0.000000    1.000000
   321  Na    c    11.178286    0.000000   -6.843473    0.000000    1.000000
   322  Na    c    -6.670499    0.000000    6.843473    0.000000    1.000000
   323  Na    c    -6.670499    0.000000   -6.843473    0.000000    1.000000
   324  O     c     2.253894   -2.247723   11.282079    0.000000    0.183000
   325  O     c     2.253894   -2.247723  -11.282079    0.000000    0.183000
   326  O     c     2.253894    2.247723   11.282079    0.000000    0.183000
   327  O     c     2.253894    2.247723  -11.282079    0.000000    0.183000
   328  O     c     2.253894   11.282079   -2.247723    0.000000    0.183000
   329  O     c     2.253894   11.282079    2.247723    0.000000    0.183000
   330  O     c     2.253894  -11.282079   -2.247723    0.000000    0.183000
   331  O     c     2.253894  -11.282079    2.247723    0.000000    0.183000
   332  O     c    11.267224   -2.252286    6.737284    0.000000    0.183000
   333  O     c    11.267224   -2.252286   -6.737284    0.000000    0.183000
   334  O     c    11.267224    2.252286    6.737284    0.000000    0.183000
   335  O     c    11.267224    2.252286   -6.737284    0.000000    0.183000
   336  O     c    11.267224    6.737284   -2.252286    0.000000    0.183000
   337  O     c    11.267224    6.737284    2.252286    0.000000    0.183000
   338  O     c    11.267224   -6.737284   -2.252286    0.000000    0.183000
   339  O     c    11.267224   -6.737284    2.252286    0.000000    0.183000
   340  O     c    -6.759437   -2.252286    6.737284    0.000000    0.183000
   341  O     c    -6.759437   -2.252286   -6.737284    0.000000    0.183000
   342  O     c    -6.759437    2.252286    6.737284    0.000000    0.183000
   343  O     c    -6.759437    2.252286   -6.737284    0.000000    0.183000
   344  O     c    -6.759437    6.737284   -2.252286    0.000000    0.183000
   345  O     c    -6.759437    6.737284    2.252286    0.000000    0.183000
   346  O     c    -6.759437   -6.737284   -2.252286    0.000000    0.183000
   347  O     c    -6.759437   -6.737284    2.252286    0.000000    0.183000
   348  Na    c     4.516500   -2.280226   11.218815    0.000000    1.000000
   349  Na    c     4.516500   -2.280226  -11.218815    0.000000    1.000000
   350  Na    c     4.516500    2.280226   11.218815    0.000000    1.000000
   351  Na    c     4.516500    2.280226  -11.218815    0.000000    1.000000
   352  Na    c     4.516500   11.218815   -2.280226    0.000000    1.000000
   353  Na    c     4.516500   11.218815    2.280226    0.000000    1.000000
   354  Na    c     4.516500  -11.218815   -2.280226    0.000000    1.000000
   355  Na    c     4.516500  -11.218815    2.280226    0.000000    1.000000
   356  Na    c    -0.008713   -2.280226   11.218815    0.000000    1.000000
   357  Na    c    -0.008713   -2.280226  -11.218815    0.000000    1.000000
   358  Na    c    -0.008713    2.280226   11.218815    0.000000    1.000000
   359  Na    c    -0.008713    2.280226  -11.218815    0.000000    1.000000
   360  Na    c    -0.008713   11.218815   -2.280226    0.000000    1.000000
   361  Na    c    -0.008713   11.218815    2.280226    0.000000    1.000000
   362  Na    c    -0.008713  -11.218815   -2.280226    0.000000    1.000000
   363  Na    c    -0.008713  -11.218815    2.280226    0.000000    1.000000
   364  Na    c    13.499978   -2.114136   -2.114136    0.000000    1.000000
   365  Na    c    13.499978   -2.114136    2.114136    0.000000    1.000000
   366  Na    c    13.499978    2.114136   -2.114136    0.000000    1.000000
   367  Na    c    13.499978    2.114136    2.114136    0.000000    1.000000
   368  Na    c    -8.992190   -2.114136   -2.114136    0.000000    1.000000
   369  Na    c    -8.992190   -2.114136    2.114136    0.000000    1.000000
   370  Na    c    -8.992190    2.114136   -2.114136    0.000000    1.000000
   371  Na    c    -8.992190    2.114136    2.114136    0.000000    1.000000
   372  Na    c     9.013228    6.748583    6.748583    0.000000    1.000000
   373  Na    c     9.013228    6.748583   -6.748583    0.000000    1.000000
   374  Na    c     9.013228   -6.748583    6.748583    0.000000    1.000000
   375  Na    c     9.013228   -6.748583   -6.748583    0.000000    1.000000
   376  Na    c    -4.505441    6.748583    6.748583    0.000000    1.000000
   377  Na    c    -4.505441    6.748583   -6.748583    0.000000    1.000000
   378  Na    c    -4.505441   -6.748583    6.748583    0.000000    1.000000
   379  Na    c    -4.505441   -6.748583   -6.748583    0.000000    1.000000
   380  Cl    c    13.574828    0.000000    4.499407    0.000000    1.485000
   381  Cl    c    13.574828    0.000000   -4.499407    0.000000    1.485000
   382  Cl    c    13.574828    4.499407    0.000000    0.000000    1.485000
   383  Cl    c    13.574828   -4.499407    0.000000    0.000000    1.485000
   384  Cl    c    -9.067041    0.000000    4.499407    0.000000    1.485000
   385  Cl    c    -9.067041    0.000000   -4.499407    0.000000    1.485000
   386  Cl    c    -9.067041    4.499407    0.000000    0.000000    1.485000
   387  Cl    c    -9.067041   -4.499407    0.000000    0.000000    1.485000
   388  Na    c     2.253894   11.224343    4.501762    0.000000    1.000000
   389  Na    c     2.253894   11.224343   -4.501762    0.000000    1.000000
   390  Na    c     2.253894  -11.224343    4.501762    0.000000    1.000000
   391  Na    c     2.253894  -11.224343   -4.501762    0.000000    1.000000
   392  Na    c     2.253894    4.501762   11.224343    0.000000    1.000000
   393  Na    c     2.253894    4.501762  -11.224343    0.000000    1.000000
   394  Na    c     2.253894   -4.501762   11.224343    0.000000    1.000000
   395  Na    c     2.253894   -4.501762  -11.224343    0.000000    1.000000
   396  Na    c     6.716239   11.255688    0.000000    0.000000    1.000000
   397  Na    c     6.716239  -11.255688    0.000000    0.000000    1.000000
   398  Na    c    -2.208451   11.255688    0.000000    0.000000    1.000000
   399  Na    c    -2.208451  -11.255688    0.000000    0.000000    1.000000
   400  Na    c     6.716239    0.000000   11.255688    0.000000    1.000000
   401  Na    c     6.716239    0.000000  -11.255688    0.000000    1.000000
   402  Na    c    -2.208451    0.000000   11.255688    0.000000    1.000000
   403  Na    c    -2.208451    0.000000  -11.255688    0.000000    1.000000
   404  Cl    c     9.032587    4.509935    9.072833    0.000000    1.485000
   405  Cl    c     9.032587    4.509935   -9.072833    0.000000    1.485000
   406  Cl    c     9.032587    9.072833    4.509935    0.000000    1.485000
   407  Cl    c     9.032587    9.072833   -4.509935    0.000000    1.485000
   408  Cl    c     9.032587   -4.509935    9.072833    0.000000    1.485000
   409  Cl    c     9.032587   -4.509935   -9.072833    0.000000    1.485000
   410  Cl    c     9.032587   -9.072833    4.509935    0.000000    1.485000
   411  Cl    c     9.032587   -9.072833   -4.509935    0.000000    1.485000
   412  Cl    c    -4.524799    4.509935    9.072833    0.000000    1.485000
   413  Cl    c    -4.524799    4.509935   -9.072833    0.000000    1.485000
   414  Cl    c    -4.524799    9.072833    4.509935    0.000000    1.485000
   415  Cl    c    -4.524799    9.072833   -4.509935    0.000000    1.485000
   416  Cl    c    -4.524799   -4.509935    9.072833    0.000000    1.485000
   417  Cl    c    -4.524799   -4.509935   -9.072833    0.000000    1.485000
   418  Cl    c    -4.524799   -9.072833    4.509935    0.000000    1.485000
   419  Cl    c    -4.524799   -9.072833   -4.509935    0.000000    1.485000
   420  Na    c     6.757708    6.755642    9.013915    0.000000    1.000000
   421  Na    c     6.757708    6.755642   -9.013915    0.000000    1.000000
   422  Na    c     6.757708   -6.755642    9.013915    0.000000    1.000000
   423  Na    c     6.757708   -6.755642   -9.013915    0.000000    1.000000
   424  Na    c    -2.249920    6.755642    9.013915    0.000000    1.000000
   425  Na    c    -2.249920    6.755642   -9.013915    0.000000    1.000000
   426  Na    c    -2.249920   -6.755642    9.013915    0.000000    1.000000
   427  Na    c    -2.249920   -6.755642   -9.013915    0.000000    1.000000
   428  Na    c     6.757708    9.013915    6.755642    0.000000    1.000000
   429  Na    c     6.757708    9.013915   -6.755642    0.000000    1.000000
   430  Na    c     6.757708   -9.013915    6.755642    0.000000    1.000000
   431  Na    c     6.757708   -9.013915   -6.755642    0.000000    1.000000
   432  Na    c    -2.249920    9.013915    6.755642    0.000000    1.000000
   433  Na    c    -2.249920    9.013915   -6.755642    0.000000    1.000000
   434  Na    c    -2.249920   -9.013915    6.755642    0.000000    1.000000
   435  Na    c    -2.249920   -9.013915   -6.755642    0.000000    1.000000
   436  Na    c    11.256761    6.723207    4.505033    0.000000    1.000000
   437  Na    c    11.256761    6.723207   -4.505033    0.000000    1.000000
   438  Na    c    11.256761   -6.723207    4.505033    0.000000    1.000000
   439  Na    c    11.256761   -6.723207   -4.505033    0.000000    1.000000
   440  Na    c    -6.748974    6.723207    4.505033    0.000000    1.000000
   441  Na    c    -6.748974    6.723207   -4.505033    0.000000    1.000000
   442  Na    c    -6.748974   -6.723207    4.505033    0.000000    1.000000
   443  Na    c    -6.748974   -6.723207   -4.505033    0.000000    1.000000
   444  Na    c    11.256761    4.505033    6.723207    0.000000    1.000000
   445  Na    c    11.256761    4.505033   -6.723207    0.000000    1.000000
   446  Na    c    11.256761   -4.505033    6.723207    0.000000    1.000000
   447  Na    c    11.256761   -4.505033   -6.723207    0.000000    1.000000
   448  Na    c    -6.748974    4.505033    6.723207    0.000000    1.000000
   449  Na    c    -6.748974    4.505033   -6.723207    0.000000    1.000000
   450  Na    c    -6.748974   -4.505033    6.723207    0.000000    1.000000
   451  Na    c    -6.748974   -4.505033   -6.723207    0.000000    1.000000
   452  O     c     6.771038   -2.253029   11.261299    0.000000    0.183000
   453  O     c     6.771038   -2.253029  -11.261299    0.000000    0.183000
   454  O     c     6.771038    2.253029   11.261299    0.000000    0.183000
   455  O     c     6.771038    2.253029  -11.261299    0.000000    0.183000
   456  O     c     6.771038   11.261299   -2.253029    0.000000    0.183000
   457  O     c     6.771038   11.261299    2.253029    0.000000    0.183000
   458  O     c     6.771038  -11.261299   -2.253029    0.000000    0.183000
   459  O     c     6.771038  -11.261299    2.253029    0.000000    0.183000
   460  O     c    -2.263251   -2.253029   11.261299    0.000000    0.183000
   461  O     c    -2.263251   -2.253029  -11.261299    0.000000    0.183000
   462  O     c    -2.263251    2.253029   11.261299    0.000000    0.183000
   463  O     c    -2.263251    2.253029  -11.261299    0.000000    0.183000
   464  O     c    -2.263251   11.261299   -2.253029    0.000000    0.183000
   465  O     c    -2.263251   11.261299    2.253029    0.000000    0.183000
   466  O     c    -2.263251  -11.261299   -2.253029    0.000000    0.183000
   467  O     c    -2.263251  -11.261299    2.253029    0.000000    0.183000
   468  Cl    c    13.556367    4.526796    4.526796    0.000000    1.485000
   469  Cl    c    13.556367    4.526796   -4.526796    0.000000    1.485000
   470  Cl    c    13.556367   -4.526796    4.526796    0.000000    1.485000
   471  Cl    c    13.556367   -4.526796   -4.526796    0.000000    1.485000
   472  Cl    c    -9.048580    4.526796    4.526796    0.000000    1.485000
   473  Cl    c    -9.048580    4.526796   -4.526796    0.000000    1.485000
   474  Cl    c    -9.048580   -4.526796    4.526796    0.000000    1.485000
   475  Cl    c    -9.048580   -4.526796   -4.526796    0.000000    1.485000
   476  Na    c     6.752625   11.224611    4.505247    0.000000    1.000000
   477  Na    c     6.752625   11.224611   -4.505247    0.000000    1.000000
   478  Na    c     6.752625  -11.224611    4.505247    0.000000    1.000000
   479  Na    c     6.752625  -11.224611   -4.505247    0.000000    1.000000
   480  Na    c    -2.244838   11.224611    4.505247    0.000000    1.000000
   481  Na    c    -2.244838   11.224611   -4.505247    0.000000    1.000000
   482  Na    c    -2.244838  -11.224611    4.505247    0.000000    1.000000
   483  Na    c    -2.244838  -11.224611   -4.505247    0.000000    1.000000
   484  Na    c    -2.244838    4.505247   11.224611    0.000000    1.000000
   485  Na    c    -2.244838    4.505247  -11.224611    0.000000    1.000000
   486  Na    c    -2.244838   -4.505247   11.224611    0.000000    1.000000
   487  Na    c    -2.244838   -4.505247  -11.224611    0.000000    1.000000
   488  Na    c     6.752625    4.505247   11.224611    0.000000    1.000000
   489  Na    c     6.752625    4.505247  -11.224611    0.000000    1.000000
   490  Na    c     6.752625   -4.505247   11.224611    0.000000    1.000000
   491  Na    c     6.752625   -4.505247  -11.224611    0.000000    1.000000
   492  Cl    c     4.510446    9.060387    9.060387    0.000000    1.485000
   493  Cl    c     4.510446    9.060387   -9.060387    0.000000    1.485000
   494  Cl    c     4.510446   -9.060387    9.060387    0.000000    1.485000
   495  Cl    c     4.510446   -9.060387   -9.060387    0.000000    1.485000
   496  Cl    c    -0.002658    9.060387    9.060387    0.000000    1.485000
   497  Cl    c    -0.002658    9.060387   -9.060387    0.000000    1.485000
   498  Cl    c    -0.002658   -9.060387    9.060387    0.000000    1.485000
   499  Cl    c    -0.002658   -9.060387   -9.060387    0.000000    1.485000
   500  Na    c    11.192618   -2.282612    8.997901    0.000000    1.000000
   501  Na    c    11.192618   -2.282612   -8.997901    0.000000    1.000000
   502  Na    c    11.192618    2.282612    8.997901    0.000000    1.000000
   503  Na    c    11.192618    2.282612   -8.997901    0.000000    1.000000
   504  Na    c    -6.684831   -2.282612    8.997901    0.000000    1.000000
   505  Na    c    -6.684831   -2.282612   -8.997901    0.000000    1.000000
   506  Na    c    -6.684831    2.282612    8.997901    0.000000    1.000000
   507  Na    c    -6.684831    2.282612   -8.997901    0.000000    1.000000
   508  Na    c    11.192618    8.997901   -2.282612    0.000000    1.000000
   509  Na    c    11.192618    8.997901    2.282612    0.000000    1.000000
   510  Na    c    11.192618   -8.997901   -2.282612    0.000000    1.000000
   511  Na    c    11.192618   -8.997901    2.282612    0.000000    1.000000
   512  Na    c    -6.684831    8.997901   -2.282612    0.000000    1.000000
   513  Na    c    -6.684831    8.997901    2.282612    0.000000    1.000000
   514  Na    c    -6.684831   -8.997901   -2.282612    0.000000    1.000000
   515  Na    c    -6.684831   -8.997901    2.282612    0.000000    1.000000
[...]
    79  Cl    s       0.000251     -0.000101      0.000000      0.000000
--------------------------------------------------------------------------------

  Comparison of initial and final region 1 : 

--------------------------------------------------------------------------------
  Parameter   Initial value   Final value   Difference    Units      Percent
--------------------------------------------------------------------------------
      1 x          2.253894      2.253894     0.000000    Cartesian    0.00
      1 y          0.000000      0.000000     0.000000    Cartesian    0.00
      1 z          0.000000      0.000000     0.000000    Cartesian    0.00
      2 x          4.507787      5.360624     0.852837    Cartesian   18.92
      2 y          0.000000      0.000000     0.000000    Cartesian    0.00
      2 z          0.000000      0.000000     0.000000    Cartesian    0.00
      3 x          2.253894      2.253894     0.000000    Cartesian    0.00
      3 y         -2.253894     -2.144920     0.108974    Cartesian   -4.83
      3 z          0.000000      0.000000     0.000000    Cartesian    0.00
      4 x          2.253894      2.253894     0.000000    Cartesian    0.00
      4 y         -2.253894     -2.370264    -0.116371    Cartesian    5.16
      4 z         -2.253894     -2.370264    -0.116371    Cartesian    5.16
      5 x          4.507787      4.450866    -0.056921    Cartesian   -1.26
      5 y         -2.253894     -1.936852     0.317042    Cartesian  -14.07
      5 z         -2.253894     -1.936852     0.317042    Cartesian  -14.07
      6 x          4.507787      4.517257     0.009470    Cartesian    0.21
      6 y          0.000000      0.000000     0.000000    Cartesian    0.00
      6 z          4.507787      4.640395     0.132608    Cartesian    2.94
      7 x          2.253894      2.253894     0.000000    Cartesian    0.00
      7 y         -2.253894     -2.322183    -0.068289    Cartesian    3.03
      7 z          4.507787      4.550817     0.043030    Cartesian    0.95
      8 x         -2.253894     -2.499182    -0.245288    Cartesian   10.88
      8 y         -2.253894     -2.211840     0.042054    Cartesian   -1.87
      8 z          0.000000      0.000000     0.000000    Cartesian    0.00
      9 x         -2.253894     -2.232575     0.021319    Cartesian   -0.95
      9 y         -2.253894     -2.290211    -0.036318    Cartesian    1.61
      9 z         -2.253894     -2.290211    -0.036318    Cartesian    1.61
     10 x          4.507787      4.553051     0.045264    Cartesian    1.00
     10 y          4.507787      4.638868     0.131081    Cartesian    2.91
     10 z          4.507787      4.638868     0.131081    Cartesian    2.91
     11 x         -2.253894     -1.853425     0.400469    Cartesian  -17.77
     11 y         -2.253894     -2.245412     0.008481    Cartesian   -0.38
     11 z          4.507787      4.498614    -0.009173    Cartesian   -0.20
     12 x          9.015574      9.133196     0.117622    Cartesian    1.30
     12 y          0.000000      0.000000     0.000000    Cartesian    0.00
     12 z          0.000000      0.000000     0.000000    Cartesian    0.00
     13 x          2.253894      2.253894     0.000000    Cartesian    0.00
     13 y          6.761681      6.568276    -0.193405    Cartesian   -2.86
     13 z          0.000000      0.000000     0.000000    Cartesian    0.00
     14 x          2.253894      2.253894     0.000000    Cartesian    0.00
     14 y         -2.253894     -2.251108     0.002786    Cartesian   -0.12
     14 z          6.761681      6.815046     0.053365    Cartesian    0.79
     15 x          4.507787      4.504205    -0.003582    Cartesian   -0.08
     15 y         -2.253894     -2.207090     0.046803    Cartesian   -2.08
     15 z          6.761681      6.948044     0.186363    Cartesian    2.76
     16 x          9.015574      8.970393    -0.045181    Cartesian   -0.50
     16 y         -2.253894     -2.550681    -0.296787    Cartesian   13.17
     16 z         -2.253894     -2.550681    -0.296787    Cartesian   13.17
     17 x          9.015574      9.090442     0.074867    Cartesian    0.83
     17 y          0.000000      0.000000     0.000000    Cartesian    0.00
     17 z          4.507787      4.533282     0.025495    Cartesian    0.57
     18 x          2.253894      2.253894     0.000000    Cartesian    0.00
     18 y          6.761681      6.801996     0.040316    Cartesian    0.60
     18 z          4.507787      4.509640     0.001853    Cartesian    0.04
     19 x         -2.253894     -2.312730    -0.058836    Cartesian    2.61
     19 y          6.761681      6.667983    -0.093698    Cartesian   -1.39
     19 z          0.000000      0.000000     0.000000    Cartesian    0.00
     20 x         -2.253894     -2.249143     0.004751    Cartesian   -0.21
     20 y         -2.253894     -2.253905    -0.000011    Cartesian    0.00
     20 z          6.761681      6.743992    -0.017689    Cartesian   -0.26
     21 x          4.507787      4.490032    -0.017756    Cartesian   -0.39
     21 y          0.000000      0.000000     0.000000    Cartesian    0.00
     21 z          9.015574      9.064329     0.048755    Cartesian    0.54
     22 x          9.015574      9.083713     0.068139    Cartesian    0.76
     22 y          4.507787      4.585664     0.077877    Cartesian    1.73
     22 z          4.507787      4.585664     0.077877    Cartesian    1.73
     23 x          2.253894      2.253894     0.000000    Cartesian    0.00
     23 y         -2.253894     -2.104761     0.149133    Cartesian   -6.62
     23 z          9.015574      9.046148     0.030573    Cartesian    0.34
     24 x         11.269468     10.947533    -0.321935    Cartesian   -2.86
     24 y         -2.253894     -2.234777     0.019117    Cartesian   -0.85
     24 z          0.000000      0.000000     0.000000    Cartesian    0.00
     25 x         -2.253894     -2.209275     0.044619    Cartesian   -1.98
     25 y          6.761681      6.731391    -0.030290    Cartesian   -0.45
     25 z          4.507787      4.508424     0.000637    Cartesian    0.01
     26 x         11.269468     11.233868    -0.035600    Cartesian   -0.32
     26 y         -2.253894     -2.254065    -0.000172    Cartesian    0.01
     26 z         -2.253894     -2.254065    -0.000172    Cartesian    0.01
     27 x          2.253894      2.253894     0.000000    Cartesian    0.00
     27 y          6.761681      6.777494     0.015813    Cartesian    0.23
     27 z          6.761681      6.777494     0.015813    Cartesian    0.23
     28 x          4.507787      4.506921    -0.000866    Cartesian   -0.02
     28 y          6.761681      6.730893    -0.030787    Cartesian   -0.46
     28 z          6.761681      6.730893    -0.030787    Cartesian   -0.46
     29 x          9.015574      9.005211    -0.010364    Cartesian   -0.11
     29 y         -2.253894     -2.303035    -0.049142    Cartesian    2.18
     29 z          6.761681      6.494167    -0.267514    Cartesian   -3.96
     30 x          4.507787      4.521345     0.013557    Cartesian    0.30
     30 y          4.507787      4.522858     0.015070    Cartesian    0.33
     30 z          9.015574      9.053388     0.037814    Cartesian    0.42
     31 x         11.269468     11.445680     0.176211    Cartesian    1.56
     31 y         -2.253894     -2.169847     0.084047    Cartesian   -3.73
     31 z          4.507787      4.490759    -0.017028    Cartesian   -0.38
     32 x         -2.253894     -2.421859    -0.167965    Cartesian    7.45
     32 y         -2.253894     -2.231797     0.022096    Cartesian   -0.98
     32 z          9.015574      8.994585    -0.020989    Cartesian   -0.23
     33 x         -2.253894     -2.257811    -0.003918    Cartesian    0.17
     33 y          6.761681      6.769856     0.008175    Cartesian    0.12
     33 z          6.761681      6.769856     0.008175    Cartesian    0.12
     34 x         13.523362     13.696217     0.172855    Cartesian    1.28
     34 y          0.000000      0.000000     0.000000    Cartesian    0.00
     34 z          0.000000      0.000000     0.000000    Cartesian    0.00
     35 x          2.253894      2.253894     0.000000    Cartesian    0.00
     35 y         11.269468     11.370589     0.101121    Cartesian    0.90
     35 z          0.000000      0.000000     0.000000    Cartesian    0.00
     36 x          9.015574      9.026689     0.011114    Cartesian    0.12
     36 y          0.000000      0.000000     0.000000    Cartesian    0.00
     36 z          9.015574      9.060175     0.044600    Cartesian    0.49
     37 x          2.253894      2.253894     0.000000    Cartesian    0.00
     37 y          6.761681      6.770773     0.009092    Cartesian    0.13
     37 z          9.015574      9.019609     0.004034    Cartesian    0.04
     38 x         11.269468     11.178286    -0.091182    Cartesian   -0.81
     38 y          6.761681      6.843473     0.081792    Cartesian    1.21
     38 z          0.000000      0.000000     0.000000    Cartesian    0.00
     39 x          2.253894      2.253894     0.000000    Cartesian    0.00
     39 y         -2.253894     -2.247723     0.006171    Cartesian   -0.27
     39 z         11.269468     11.282079     0.012611    Cartesian    0.11
     40 x         11.269468     11.267224    -0.002244    Cartesian   -0.02
     40 y         -2.253894     -2.252286     0.001608    Cartesian   -0.07
     40 z          6.761681      6.737284    -0.024397    Cartesian   -0.36
     41 x          4.507787      4.516500     0.008713    Cartesian    0.19
     41 y         -2.253894     -2.280226    -0.026332    Cartesian    1.17
     41 z         11.269468     11.218815    -0.050653    Cartesian   -0.45
     42 x         13.523362     13.499978    -0.023384    Cartesian   -0.17
     42 y         -2.253894     -2.114136     0.139758    Cartesian   -6.20
     42 z         -2.253894     -2.114136     0.139758    Cartesian   -6.20
     43 x          9.015574      9.013228    -0.002347    Cartesian   -0.03
     43 y          6.761681      6.748583    -0.013097    Cartesian   -0.19
     43 z          6.761681      6.748583    -0.013097    Cartesian   -0.19
     44 x         13.523362     13.574828     0.051466    Cartesian    0.38
     44 y          0.000000      0.000000     0.000000    Cartesian    0.00
     44 z          4.507787      4.499407    -0.008380    Cartesian   -0.19
     45 x          2.253894      2.253894     0.000000    Cartesian    0.00
     45 y         11.269468     11.224343    -0.045125    Cartesian   -0.40
     45 z          4.507787      4.501762    -0.006026    Cartesian   -0.13
     46 x          6.761681      6.716239    -0.045442    Cartesian   -0.67
     46 y         11.269468     11.255688    -0.013780    Cartesian   -0.12
     46 z          0.000000      0.000000     0.000000    Cartesian    0.00
     47 x          9.015574      9.032587     0.017012    Cartesian    0.19
     47 y          4.507787      4.509935     0.002148    Cartesian    0.05
     47 z          9.015574      9.072833     0.057258    Cartesian    0.64
     48 x          6.761681      6.757708    -0.003973    Cartesian   -0.06
     48 y          6.761681      6.755642    -0.006039    Cartesian   -0.09
     48 z          9.015574      9.013915    -0.001660    Cartesian   -0.02
     49 x         11.269468     11.256761    -0.012707    Cartesian   -0.11
     49 y          6.761681      6.723207    -0.038474    Cartesian   -0.57
     49 z          4.507787      4.505033    -0.002754    Cartesian   -0.06
     50 x          6.761681      6.771038     0.009357    Cartesian    0.14
     50 y         -2.253894     -2.253029     0.000864    Cartesian   -0.04
     50 z         11.269468     11.261299    -0.008169    Cartesian   -0.07
     51 x         13.523362     13.556367     0.033006    Cartesian    0.24
     51 y          4.507787      4.526796     0.019009    Cartesian    0.42
     51 z          4.507787      4.526796     0.019009    Cartesian    0.42
     52 x          6.761681      6.752625    -0.009056    Cartesian   -0.13
     52 y         11.269468     11.224611    -0.044857    Cartesian   -0.40
     52 z          4.507787      4.505247    -0.002540    Cartesian   -0.06
     53 x          4.507787      4.510446     0.002658    Cartesian    0.06
     53 y          9.015574      9.060387     0.044813    Cartesian    0.50
     53 z          9.015574      9.060387     0.044813    Cartesian    0.50
     54 x         11.269468     11.192618    -0.076850    Cartesian   -0.68
     54 y         -2.253894     -2.282612    -0.028718    Cartesian    1.27
     54 z          9.015574      8.997901    -0.017674    Cartesian   -0.20
     55 x          2.253894      2.253894     0.000000    Cartesian    0.00
     55 y          0.000000      0.000000     0.000000    Cartesian    0.00
     55 z          0.000000      0.000000     0.000000    Cartesian    0.00
     56 x          4.507787      5.425886     0.918098    Cartesian   20.37
     56 y          0.000000      0.000000     0.000000    Cartesian    0.00
     56 z          0.000000      0.000000     0.000000    Cartesian    0.00
     57 x          2.253894      2.253894     0.000000    Cartesian    0.00
     57 y         -2.253894     -2.370332    -0.116439    Cartesian    5.17
     57 z         -2.253894     -2.370332    -0.116439    Cartesian    5.17
     58 x          4.507787      4.529161     0.021374    Cartesian    0.47
     58 y          0.000000      0.000000     0.000000    Cartesian    0.00
     58 z          4.507787      4.654067     0.146280    Cartesian    3.25
     59 x         -2.253894     -2.232605     0.021288    Cartesian   -0.94
     59 y         -2.253894     -2.290268    -0.036375    Cartesian    1.61
     59 z         -2.253894     -2.290268    -0.036375    Cartesian    1.61
     60 x          4.507787      4.569357     0.061570    Cartesian    1.37
     60 y          4.507787      4.648290     0.140502    Cartesian    3.12
     60 z          4.507787      4.648290     0.140502    Cartesian    3.12
     61 x          9.015574      9.155858     0.140283    Cartesian    1.56
     61 y          0.000000      0.000000     0.000000    Cartesian    0.00
     61 z          0.000000      0.000000     0.000000    Cartesian    0.00
     62 x          2.253894      2.253894     0.000000    Cartesian    0.00
     62 y         -2.253894     -2.251087     0.002807    Cartesian   -0.12
     62 z          6.761681      6.815086     0.053405    Cartesian    0.79
     63 x          9.015574      9.099872     0.084298    Cartesian    0.94
     63 y          0.000000      0.000000     0.000000    Cartesian    0.00
     63 z          4.507787      4.535796     0.028009    Cartesian    0.62
     64 x         -2.253894     -2.249112     0.004781    Cartesian   -0.21
     64 y         -2.253894     -2.253902    -0.000008    Cartesian    0.00
     64 z          6.761681      6.744001    -0.017680    Cartesian   -0.26
     65 x          4.507787      4.483456    -0.024332    Cartesian   -0.54
     65 y          0.000000      0.000000     0.000000    Cartesian    0.00
     65 z          9.015574      9.065122     0.049548    Cartesian    0.55
     66 x          9.015574      9.090893     0.075318    Cartesian    0.84
     66 y          4.507787      4.585456     0.077669    Cartesian    1.72
     66 z          4.507787      4.585456     0.077669    Cartesian    1.72
     67 x         11.269468     11.233886    -0.035582    Cartesian   -0.32
     67 y         -2.253894     -2.254099    -0.000206    Cartesian    0.01
     67 z         -2.253894     -2.254099    -0.000206    Cartesian    0.01
     68 x          2.253894      2.253894     0.000000    Cartesian    0.00
     68 y          6.761681      6.777514     0.015833    Cartesian    0.23
     68 z          6.761681      6.777514     0.015833    Cartesian    0.23
     69 x          4.507787      4.522281     0.014494    Cartesian    0.32
     69 y          4.507787      4.524193     0.016406    Cartesian    0.36
     69 z          9.015574      9.056803     0.041229    Cartesian    0.46
     70 x         -2.253894     -2.257807    -0.003913    Cartesian    0.17
     70 y          6.761681      6.769860     0.008179    Cartesian    0.12
     70 z          6.761681      6.769860     0.008179    Cartesian    0.12
     71 x         13.523362     13.716809     0.193448    Cartesian    1.43
     71 y          0.000000      0.000000     0.000000    Cartesian    0.00
     71 z          0.000000      0.000000     0.000000    Cartesian    0.00
     72 x          9.015574      9.026682     0.011108    Cartesian    0.12
     72 y          0.000000      0.000000     0.000000    Cartesian    0.00
     72 z          9.015574      9.065708     0.050134    Cartesian    0.56
     73 x          2.253894      2.253894     0.000000    Cartesian    0.00
     73 y         -2.253894     -2.247702     0.006192    Cartesian   -0.27
     73 z         11.269468     11.282063     0.012595    Cartesian    0.11
     74 x         11.269468     11.267251    -0.002217    Cartesian   -0.02
     74 y         -2.253894     -2.252291     0.001603    Cartesian   -0.07
     74 z          6.761681      6.737257    -0.024424    Cartesian   -0.36
     75 x         13.523362     13.575315     0.051954    Cartesian    0.38
     75 y          0.000000      0.000000     0.000000    Cartesian    0.00
     75 z          4.507787      4.499441    -0.008347    Cartesian   -0.19
     76 x          9.015574      9.033492     0.017917    Cartesian    0.20
     76 y          4.507787      4.508217     0.000430    Cartesian    0.01
     76 z          9.015574      9.080585     0.065011    Cartesian    0.72
     77 x          6.761681      6.771063     0.009383    Cartesian    0.14
     77 y         -2.253894     -2.253032     0.000861    Cartesian   -0.04
     77 z         11.269468     11.261299    -0.008169    Cartesian   -0.07
     78 x         13.523362     13.556881     0.033520    Cartesian    0.25
     78 y          4.507787      4.529544     0.021757    Cartesian    0.48
     78 z          4.507787      4.529544     0.021757    Cartesian    0.48
     79 x          4.507787      4.510372     0.002585    Cartesian    0.06
     79 y          9.015574      9.064648     0.049074    Cartesian    0.54
     79 z          9.015574      9.064648     0.049074    Cartesian    0.54
--------------------------------------------------------------------------------


  Time to end of optimisation  =       25.1400 seconds


  Peak dynamic memory used =      91.28 MB 


  Timing analysis for GULP :

--------------------------------------------------------------------------------
  Task / Subroutine                                          Time (Seconds)
--------------------------------------------------------------------------------
  Calculation of reciprocal space energy and derivatives          0.0007
  Calculation of reciprocal space energy using symmetry           0.0009
  Calculation of real space energy and derivatives                0.0038
  Calculation of real space energy using symmetry                 0.0091
  Calculation for region 1 energy and derivatives (2-b)          10.3332
  Calculation for region 2a energy                               14.3660
  Calculation for region 2b energy                                0.0002
  Calculation and manipulation of Hessian matrix                  0.2550
  Calculation of matrix inversion                                 0.0144
  Symmetry generation of equivalent positions                     0.0046
--------------------------------------------------------------------------------
  Total CPU time                                                 25.1401
--------------------------------------------------------------------------------


  Dump file written as Na3OCl.grs


  Job Finished at 13:17.56  3rd December   2020                               

