********************************************************************************
*                       GENERAL UTILITY LATTICE PROGRAM                        *
*                                 Julian Gale                                  *
*                       Curtin Institute for Computation                       *
*                    School of Molecular and Life Sciences                     *
*                    Curtin University, Western Australia                      *
********************************************************************************
* Version = 5.2.0 * Last modified =  10th September 2020                       *
********************************************************************************
*  optimise     - perform optimisation run                                     *
*  conp         - constant pressure calculation                                *
*  property     - calculate properties for final geometry                      *
*  defect       - perform defect calculation after bulk run                    *
*  compare      - compare initial and final structures                         *
********************************************************************************

  Job Started  at 16:43.09  5th July       2021                               

  Number of CPUs =     1


  Total number of configurations input =      1

********************************************************************************
*  Input for Configuration =   1                                               *
********************************************************************************

  Formula = ClONa3                                                      

  Number of irreducible atoms/shells =       5


  Total number atoms/shells =       7

  Dimensionality = 3               :  Bulk   


  Symmetry :

  Crystal family                   :  Cubic       
  Crystal class  (Groth - 1921)    :  Cubic Hexakisoctahedral              

  Space group (centrosymmetric)    :  P M 3 M         

  Patterson group                  :  P m -3 m 

  Cartesian lattice vectors (Angstroms) :

        4.504000    0.000000    0.000000
        0.000000    4.504000    0.000000
        0.000000    0.000000    4.504000

  Cell parameters (Angstroms/Degrees):

  a =       4.5040    alpha =  90.0000
  b =       4.5040    beta  =  90.0000
  c =       4.5040    gamma =  90.0000

  Initial cell volume =          91.368216 Angs**3

  Temperature of configuration =   0.00     K 

  Pressure of configuration =         0.000 GPa 

  Fractional coordinates of asymmetric unit :

--------------------------------------------------------------------------------
   No.  Atomic       x           y          z         Charge      Occupancy
        Label      (Frac)      (Frac)     (Frac)        (e)         (Frac)  
--------------------------------------------------------------------------------
      1 Cl    c    0.000000    0.000000    0.000000     0.61500    1.000000    
      2 O     c    0.500000    0.500000    0.500000     0.48900    1.000000    
      3 Na    c    0.500000    0.500000    0.000000     0.67000    1.000000    
      4 Cl    s    0.000000    0.000000    0.000000    -1.28500    1.000000    
      5 O     s    0.500000    0.500000    0.500000    -1.82900    1.000000    
--------------------------------------------------------------------------------


  Constraints : 

--------------------------------------------------------------------------------
  Constraint no.      Unconstrained     Constrained    Coefficient    Offset
                         Variable         Variable
--------------------------------------------------------------------------------
           1              Strain 1        Strain 2       1.00000      0.0000
           2              Strain 1        Strain 3       1.00000      0.0000
--------------------------------------------------------------------------------


********************************************************************************
*  General input information                                                   *
********************************************************************************

  Species output for all configurations : 

--------------------------------------------------------------------------------
  Species    Type    Atomic    Atomic    Charge       Radii (Angs)     Library
                     Number     Mass       (e)     Cova   Ionic  VDW   Symbol
--------------------------------------------------------------------------------
    Na       Core       11      22.99   0.670000   0.970  0.000  2.300          
    O        Core        8      16.00   0.489000   0.730  0.000  1.360          
    O        Shell       8       0.00  -1.829000   0.730  0.000  1.360          
    Cl       Core       17      35.45   0.615000   0.990  0.000  1.650          
    Cl       Shell      17       0.00  -1.285000   0.990  0.000  1.650          
--------------------------------------------------------------------------------


  Lattice summation method               =    Ewald          (3-D)
                                         =    Parry          (2-D)
                                         =    Saunders et al (1-D)
  Accuracy factor for lattice sums       =   12.000


  Analytic derivatives to be used

  Time limit = Infinity

  Maximum range for interatomic potentials =    100000.000000 Angstroms

  General interatomic potentials :

--------------------------------------------------------------------------------
Atom  Types   Potential      Parameter       Value         Units   Cutoffs(Ang)
  1     2                                                            Min /  Max 
--------------------------------------------------------------------------------
O    c O    s Spring (c-s)  Spring k 2       34.450000    eV*Ang^-2 0.000  0.800
                            Spring k 4       0.0000000    eV*Ang^-4 
--------------------------------------------------------------------------------
Cl   c Cl   s Spring (c-s)  Spring k 2       28.250000    eV*Ang^-2 0.000  0.800
                            Spring k 4       0.0000000    eV*Ang^-4 
--------------------------------------------------------------------------------
Na   c Na   c Buckingham    Buckingham A     996.28210    eV        0.000 12.000
                            Buckingham rho  0.28830000    Ang       
                            Buckingham C     0.0000000    eV*Ang^6  
--------------------------------------------------------------------------------
Na   c O    s Buckingham    Buckingham A     12439.222    eV        0.000 12.000
                            Buckingham rho  0.20150000    Ang       
                            Buckingham C     0.0000000    eV*Ang^6  
--------------------------------------------------------------------------------
Na   c Cl   s Buckingham    Buckingham A     20907.738    eV        0.000 12.000
                            Buckingham rho  0.21660000    Ang       
                            Buckingham C     0.0000000    eV*Ang^6  
--------------------------------------------------------------------------------
O    s O    s Buckingham    Buckingham A     35546.853    eV        0.000 12.000
                            Buckingham rho  0.12056000    Ang       
                            Buckingham C     13.190000    eV*Ang^6  
--------------------------------------------------------------------------------
O    s Cl   s Buckingham    Buckingham A     47777.071    eV        0.000 12.000
                            Buckingham rho  0.24370000    Ang       
                            Buckingham C     62.200000    eV*Ang^6  
--------------------------------------------------------------------------------
Cl   s Cl   s Buckingham    Buckingham A     35155.254    eV        0.000 12.000
                            Buckingham rho  0.21360000    Ang       
                            Buckingham C     14.530000    eV*Ang^6  
--------------------------------------------------------------------------------

********************************************************************************
*  Output for configuration   1                                                *
********************************************************************************


  Components of energy : 

--------------------------------------------------------------------------------
  Interatomic potentials     =           1.21745275 eV    
  Monopole - monopole (real) =          -4.50527050 eV    
  Monopole - monopole (recip)=         -13.25862634 eV    
  Monopole - monopole (total)=         -17.76389683 eV    
--------------------------------------------------------------------------------
  Total lattice energy       =         -16.54644409 eV    
--------------------------------------------------------------------------------
  Total lattice energy       =           -1596.4789 kJ/(mole unit cells)
--------------------------------------------------------------------------------


  Number of variables =        1

  Maximum number of calculations  =          1000
  Maximum Hessian update interval =            10
  Maximum step size               =   1.000000000
  Maximum parameter tolerance     =   0.000010000
  Maximum function  tolerance     =   0.000010000
  Maximum gradient  tolerance     =   0.001000000
  Maximum gradient  component     =   0.010000000

  Symmetry constrained optimisation

  Symmetry used for second derivatives

  Cell parameters to be optimised using strains

  Newton-Raphson optimiser to be used

  BFGS hessian update to be used

  Lower half triangular hessian to be used

  Start of bulk optimisation :

  Cycle:      0 Energy:       -16.546444  Gnorm:      2.744113  CPU:    0.009
  ** Hessian calculated **
  Cycle:      1 Energy:       -16.570356  Gnorm:      0.030142  CPU:    0.011
  Cycle:      2 Energy:       -16.570358  Gnorm:      0.003103  CPU:    0.013


  **** Optimisation achieved ****


  Final energy =     -16.57035847 eV
  Final Gnorm  =       0.00000012

  Components of energy : 

--------------------------------------------------------------------------------
  Interatomic potentials     =           1.49654868 eV    
  Monopole - monopole (real) =          -4.58211982 eV    
  Monopole - monopole (recip)=         -13.48478733 eV    
  Monopole - monopole (total)=         -18.06690714 eV    
--------------------------------------------------------------------------------
  Total lattice energy       =         -16.57035847 eV    
--------------------------------------------------------------------------------
  Total lattice energy       =           -1598.7863 kJ/(mole unit cells)
--------------------------------------------------------------------------------

  Final asymmetric unit coordinates :

--------------------------------------------------------------------------------
   No.  Atomic        x           y           z         Radius
        Label       (Frac)      (Frac)      (Frac)       (Angs) 
--------------------------------------------------------------------------------
     1  Cl    c     0.000000    0.000000    0.000000    0.000000
     2  O     c     0.500000    0.500000    0.500000    0.000000
     3  Na    c     0.500000    0.500000    0.000000    0.000000
     4  Cl    s     0.000000    0.000000    0.000000    0.000000
     5  O     s     0.500000    0.500000    0.500000    0.000000
--------------------------------------------------------------------------------

  Final Cartesian lattice vectors (Angstroms) :

        4.428461    0.000000    0.000000
        0.000000    4.428461    0.000000
        0.000000    0.000000    4.428461


  Final cell parameters and derivatives :

--------------------------------------------------------------------------------
       a            4.428461 Angstrom     dE/de1(xx)     0.000000 eV/strain
       b            4.428461 Angstrom     dE/de2(yy)     0.000000 eV/strain
       c            4.428461 Angstrom     dE/de3(zz)     0.000000 eV/strain
       alpha       90.000000 Degrees      dE/de4(yz)     0.000000 eV/strain
       beta        90.000000 Degrees      dE/de5(xz)     0.000000 eV/strain
       gamma       90.000000 Degrees      dE/de6(xy)     0.000000 eV/strain
--------------------------------------------------------------------------------

  Primitive cell volume =            86.847723 Angs**3

  Density of cell =      2.302482 g/cm**3

  Non-primitive cell volume =            86.847723 Angs**3


  Final internal derivatives :

--------------------------------------------------------------------------------
   No.  Atomic          a             b             c           Radius
        Label          (eV)          (eV)          (eV)        (eV/Angs)
--------------------------------------------------------------------------------
      1 Cl    c       0.000000      0.000000      0.000000      0.000000
      2 O     c       0.000000      0.000000      0.000000      0.000000
      3 Na    c       0.000000      0.000000      0.000000      0.000000
      4 Cl    s       0.000000      0.000000      0.000000      0.000000
      5 O     s       0.000000      0.000000      0.000000      0.000000
--------------------------------------------------------------------------------
  Maximum abs         0.000000      0.000000      0.000000      0.000000
--------------------------------------------------------------------------------

  Comparison of initial and final structures : 

--------------------------------------------------------------------------------
  Parameter   Initial value   Final value   Difference    Units      Percent
--------------------------------------------------------------------------------
    Volume        91.368216     86.847723    -4.520493    Angs**3     -4.95
    a              4.504000      4.428461    -0.075539    Angstroms   -1.68
    b              4.504000      4.428461    -0.075539    Angstroms   -1.68
    c              4.504000      4.428461    -0.075539    Angstroms   -1.68
    alpha         90.000000     90.000000     0.000000    Degrees      0.00
    beta          90.000000     90.000000     0.000000    Degrees      0.00
    gamma         90.000000     90.000000     0.000000    Degrees      0.00
      1 x          0.000000      0.000000     0.000000    Fractional   0.00
      1 y          0.000000      0.000000     0.000000    Fractional   0.00
      1 z          0.000000      0.000000     0.000000    Fractional   0.00
      2 x          0.500000      0.500000     0.000000    Fractional   0.00
      2 y          0.500000      0.500000     0.000000    Fractional   0.00
      2 z          0.500000      0.500000     0.000000    Fractional   0.00
      3 x          0.500000      0.500000     0.000000    Fractional   0.00
      3 y          0.500000      0.500000     0.000000    Fractional   0.00
      3 z          0.000000      0.000000     0.000000    Fractional   0.00
      4 x          0.000000      0.000000     0.000000    Fractional   0.00
      4 y          0.000000      0.000000     0.000000    Fractional   0.00
      4 z          0.000000      0.000000     0.000000    Fractional   0.00
      5 x          0.500000      0.500000     0.000000    Fractional   0.00
      5 y          0.500000      0.500000     0.000000    Fractional   0.00
      5 z          0.500000      0.500000     0.000000    Fractional   0.00
--------------------------------------------------------------------------------


  Born effective charge tensors : 

-------------------------------------------------------------------------------
  Atom             x           y             z
-------------------------------------------------------------------------------
    1 Cl    x      -0.6995     -0.0000     -0.0000
            y      -0.0000     -0.6995     -0.0000
            z      -0.0000     -0.0000     -0.6995
-------------------------------------------------------------------------------
    2 O     x      -1.0805      0.0000      0.0000
            y       0.0000     -1.0805      0.0000
            z       0.0000      0.0000     -1.0805
-------------------------------------------------------------------------------
    3 Na    x       0.6486      0.0000     -0.0000
            y       0.0000      0.6486      0.0000
            z      -0.0000      0.0000      0.4827
-------------------------------------------------------------------------------




  Elastic Constant Matrix: (Units=GPa)

-------------------------------------------------------------------------------
  Indices      1         2         3         4         5         6    
-------------------------------------------------------------------------------
       1     77.0757   16.0262   16.0262   -0.0000   -0.0000   -0.0000
       2     16.0262   77.0757   16.0262   -0.0000   -0.0000    0.0000
       3     16.0262   16.0262   77.0757    0.0000    0.0000    0.0000
       4     -0.0000   -0.0000    0.0000   16.0262    0.0000   -0.0000
       5     -0.0000   -0.0000    0.0000    0.0000   16.0262   -0.0000
       6     -0.0000    0.0000    0.0000   -0.0000   -0.0000   16.0262
-------------------------------------------------------------------------------


  Elastic Compliance Matrix: (Units=1/GPa)

-------------------------------------------------------------------------------
  Indices      1         2         3         4         5         6    
-------------------------------------------------------------------------------
       1    0.013975 -0.002406 -0.002406  0.000000  0.000000  0.000000
       2   -0.002406  0.013975 -0.002406  0.000000  0.000000 -0.000000
       3   -0.002406 -0.002406  0.013975 -0.000000 -0.000000 -0.000000
       4    0.000000  0.000000 -0.000000  0.062398 -0.000000  0.000000
       5    0.000000  0.000000 -0.000000 -0.000000  0.062398  0.000000
       6    0.000000 -0.000000 -0.000000  0.000000  0.000000  0.062398
-------------------------------------------------------------------------------

  Mechanical properties :

-------------------------------------------------------------------------------
  Convention :                    Reuss         Voigt         Hill
-------------------------------------------------------------------------------
  Bulk  Modulus (GPa)     =      36.37603      36.37603      36.37603
  Shear Modulus (GPa)     =      19.78520      21.82562      20.80541
-------------------------------------------------------------------------------
  Velocity S-wave (km/s)  =       2.93138       3.07883       3.00601
  Velocity P-wave (km/s)  =       5.22072       5.33268       5.27700
-------------------------------------------------------------------------------
  Compressibility (1/GPa) =    0.02749063
-------------------------------------------------------------------------------
  Stress axis :                     x             y             z
-------------------------------------------------------------------------------
  Youngs Moduli (GPa)     =      71.55833      71.55833      71.55833
-------------------------------------------------------------------------------
  Poissons Ratio (x)      =                     0.17214       0.17214
  Poissons Ratio (y)      =       0.17214                     0.17214
  Poissons Ratio (z)      =       0.17214       0.17214
-------------------------------------------------------------------------------


  Piezoelectric Strain Matrix: (Units=C/m**2)

-------------------------------------------------------------------------------
  Indices      1         2         3         4         5         6    
-------------------------------------------------------------------------------
       x    -0.00000  -0.00000  -0.00000  -0.00000  -0.00000   0.00000
       y     0.00000   0.00000   0.00000  -0.00000  -0.00000  -0.00000
       z     0.00000   0.00000  -0.00000   0.00000  -0.00000  -0.00000
-------------------------------------------------------------------------------


  Piezoelectric Stress Matrix: (Units=10**-11 C/N)

-------------------------------------------------------------------------------
  Indices      1         2         3         4         5         6    
-------------------------------------------------------------------------------
       x    -0.00000  -0.00000  -0.00000  -0.00000  -0.00000   0.00000
       y     0.00000   0.00000   0.00000  -0.00000  -0.00000  -0.00000
       z     0.00000   0.00000  -0.00000   0.00000  -0.00000  -0.00000
-------------------------------------------------------------------------------


  Static dielectric constant tensor : 

-------------------------------------------------------------------------------
              x         y         z
-------------------------------------------------------------------------------
       x     5.77918   0.00000   0.00000
       y     0.00000   5.77918   0.00000
       z     0.00000   0.00000   5.77918
--------------------------------------------------------------------------------

  High frequency dielectric constant tensor : 

-------------------------------------------------------------------------------
              x         y         z
-------------------------------------------------------------------------------
       x     1.30980  -0.00000  -0.00000
       y    -0.00000   1.30980  -0.00000
       z    -0.00000  -0.00000   1.30980
-------------------------------------------------------------------------------

  Static refractive indices : 

-------------------------------------------------------------------------------
    1 =    2.40399      2 =    2.40399      3 =    2.40399
-------------------------------------------------------------------------------

  High frequency refractive indices : 

-------------------------------------------------------------------------------
    1 =    1.14447      2 =    1.14447      3 =    1.14447
-------------------------------------------------------------------------------


  Time to end of optimisation =       0.0186 seconds

********************************************************************************
*  Defect calculation for configuration   1 :                                  *
********************************************************************************

  Total number of defects =      1

  Total charge on defect  =  -0.67

  Defect centre is at   0.5000   0.5000   0.0000  Frac

  Region 1 radius =  16.0000      Number of ions =   1370

  Number of symmetry inequivalent region 1 ions  =    139

  Region 2 radius =  24.0000      Number of ions =   3308

  Number of symmetry inequivalent region 2a ions =    267

  Region 2a mode = 4 : screened electrostatics due to region 1 
                       neglect correction to region 1 forces from 2a
                       region 2a displacements based on defects only

  Region 2a ions will only interact with defects in region 1

  Vacancies:

--------------------------------------------------------------------------------
    Specification type     Symbol/Number         x          y          z
--------------------------------------------------------------------------------
    Fractional                               0.500000   0.500000   0.000000
--------------------------------------------------------------------------------


  Symmetry reduced region 1 (Relative to defect centre) :

--------------------------------------------------------------------------------
   No.   Atomic       x            y             z       Radius  Multiplicity   
         Label      (Angs)       (Angs)        (Angs)    (Angs)     
--------------------------------------------------------------------------------
     1  O     c      0.0000       0.0000      -2.2142 *  0.0000     2          
     2  Cl    c      2.2142 *     2.2142       0.0000    0.0000     4          
     3  Na    c      2.2142 *     0.0000      -2.2142 *  0.0000     8          
     4  Na    c      0.0000       0.0000       4.4285 *  0.0000     2          
     5  Na    c      0.0000       4.4285 *     0.0000    0.0000     4          
     6  O     c      0.0000       4.4285 *    -2.2142 *  0.0000     8          
     7  Cl    c      2.2142 *     2.2142       4.4285 *  0.0000     8          
     8  Na    c      2.2142 *     4.4285 *    -2.2142 *  0.0000    16          
     9  Na    c      0.0000       4.4285 *     4.4285 *  0.0000     8          
    10  Na    c      4.4285 *     4.4285       0.0000    0.0000     4          
    11  O     c      4.4285 *     4.4285      -2.2142 *  0.0000     8          
    12  O     c      0.0000       0.0000       6.6427 *  0.0000     2          
    13  Cl    c      2.2142 *     6.6427 *     0.0000    0.0000     8          
    14  Na    c      2.2142 *     0.0000       6.6427 *  0.0000     8          
    15  Na    c      6.6427 *     0.0000      -2.2142 *  0.0000     8          
    16  Na    c      4.4285 *     4.4285       4.4285 *  0.0000     8          
    17  O     c      0.0000       4.4285 *     6.6427 *  0.0000     8          
    18  Cl    c      2.2142 *     6.6427 *     4.4285 *  0.0000    16          
    19  Na    c      2.2142 *     4.4285 *     6.6427 *  0.0000    16          
    20  Na    c      6.6427 *     4.4285 *    -2.2142 *  0.0000    16          
    21  Na    c      0.0000       0.0000       8.8569 *  0.0000     2          
    22  Na    c      0.0000       8.8569 *     0.0000    0.0000     4          
    23  O     c      0.0000       8.8569 *    -2.2142 *  0.0000     8          
    24  O     c      4.4285 *     4.4285       6.6427 *  0.0000     8          
    25  Cl    c      2.2142 *     2.2142       8.8569 *  0.0000     8          
    26  Na    c      2.2142 *     8.8569 *    -2.2142 *  0.0000    16          
    27  Cl    c      6.6427 *     6.6427       0.0000    0.0000     4          
    28  Na    c      6.6427 *     0.0000       6.6427 *  0.0000     8          
    29  Na    c      0.0000       4.4285 *     8.8569 *  0.0000     8          
    30  Na    c      0.0000       8.8569 *     4.4285 *  0.0000     8          
    31  Na    c      4.4285 *     8.8569 *     0.0000    0.0000     8          
    32  O     c      4.4285 *     8.8569 *    -2.2142 *  0.0000    16          
    33  Cl    c      6.6427 *     6.6427       4.4285 *  0.0000     8          
    34  Na    c      6.6427 *     4.4285 *     6.6427 *  0.0000    16          
    35  Na    c      4.4285 *     4.4285       8.8569 *  0.0000     8          
    36  Na    c      4.4285 *     8.8569 *     4.4285 *  0.0000    16          
    37  O     c      0.0000       8.8569 *     6.6427 *  0.0000     8          
    38  O     c      0.0000       0.0000      11.0712 *  0.0000     2          
    39  Cl    c      2.2142 *     6.6427 *     8.8569 *  0.0000    16          
    40  Na    c      2.2142 *     8.8569 *     6.6427 *  0.0000    16          
    41  Na    c      6.6427 *     8.8569 *    -2.2142 *  0.0000    16          
    42  Cl    c      2.2142 *    11.0712 *     0.0000    0.0000     8          
    43  Na    c      2.2142 *     0.0000      11.0712 *  0.0000     8          
    44  Na    c     11.0712 *     0.0000      -2.2142 *  0.0000     8          
    45  O     c      4.4285 *     8.8569 *     6.6427 *  0.0000    16          
    46  O     c      0.0000       4.4285 *    11.0712 *  0.0000     8          
    47  Cl    c      2.2142 *    11.0712 *     4.4285 *  0.0000    16          
    48  Na    c      2.2142 *     4.4285 *    11.0712 *  0.0000    16          
    49  Na    c     11.0712 *     4.4285 *    -2.2142 *  0.0000    16          
    50  Na    c      0.0000       8.8569 *     8.8569 *  0.0000     8          
    51  Na    c      8.8569 *     8.8569       0.0000    0.0000     4          
    52  O     c      8.8569 *     8.8569      -2.2142 *  0.0000     8          
    53  O     c      4.4285 *     4.4285      11.0712 *  0.0000     8          
    54  Cl    c      6.6427 *     6.6427       8.8569 *  0.0000     8          
    55  Cl    c      6.6427 *    11.0712 *     0.0000    0.0000     8          
    56  Na    c      6.6427 *     0.0000      11.0712 *  0.0000     8          
    57  Na    c      6.6427 *     8.8569 *     6.6427 *  0.0000    16          
    58  Na    c     11.0712 *     0.0000       6.6427 *  0.0000     8          
    59  Na    c      0.0000      13.2854 *     0.0000    0.0000     4          
    60  Na    c      4.4285 *     8.8569 *     8.8569 *  0.0000    16          
    61  Na    c      8.8569 *     8.8569       4.4285 *  0.0000     8          
    62  Na    c      0.0000       0.0000      13.2854 *  0.0000     2          
    63  O     c      0.0000      13.2854 *    -2.2142 *  0.0000     8          
    64  Na    c      2.2142 *    13.2854 *    -2.2142 *  0.0000    16          
    65  Cl    c      2.2142 *     2.2142      13.2854 *  0.0000     8          
    66  Cl    c      6.6427 *    11.0712 *     4.4285 *  0.0000    16          
    67  Na    c      6.6427 *     4.4285 *    11.0712 *  0.0000    16          
    68  Na    c     11.0712 *     4.4285 *     6.6427 *  0.0000    16          
    69  Na    c      0.0000      13.2854 *     4.4285 *  0.0000     8          
    70  Na    c      4.4285 *    13.2854 *     0.0000    0.0000     8          
    71  Na    c      0.0000       4.4285 *    13.2854 *  0.0000     8          
    72  O     c      4.4285 *    13.2854 *    -2.2142 *  0.0000    16          
    73  O     c      8.8569 *     8.8569       6.6427 *  0.0000     8          
    74  O     c      0.0000       8.8569 *    11.0712 *  0.0000     8          
    75  Cl    c      2.2142 *    11.0712 *     8.8569 *  0.0000    16          
    76  Na    c      2.2142 *     8.8569 *    11.0712 *  0.0000    16          
    77  Na    c     11.0712 *     8.8569 *    -2.2142 *  0.0000    16          
    78  Na    c      4.4285 *    13.2854 *     4.4285 *  0.0000    16          
    79  Na    c      4.4285 *     4.4285      13.2854 *  0.0000     8          
    80  O     c      0.0000      13.2854 *     6.6427 *  0.0000     8          
    81  O     c      4.4285 *     8.8569 *    11.0712 *  0.0000    16          
    82  Na    c      6.6427 *    13.2854 *    -2.2142 *  0.0000    16          
    83  Na    c      2.2142 *    13.2854 *     6.6427 *  0.0000    16          
    84  Cl    c      2.2142 *     6.6427 *    13.2854 *  0.0000    16          
    85  Na    c      8.8569 *     8.8569       8.8569 *  0.0000     8          
    86  O     c      4.4285 *    13.2854 *     6.6427 *  0.0000    16          
    87  O     c      0.0000       0.0000      15.4996 *  0.0000     2          
    88  Cl    c      2.2142 *    15.4996 *     0.0000    0.0000     8          
    89  Na    c     15.4996 *     0.0000      -2.2142 *  0.0000     8          
    90  Cl    c      6.6427 *    11.0712 *     8.8569 *  0.0000    16          
    91  Na    c      2.2142 *     0.0000      15.4996 *  0.0000     8          
    92  Na    c      6.6427 *     8.8569 *    11.0712 *  0.0000    16          
    93  Cl    c     11.0712 *    11.0712       0.0000    0.0000     4          
    94  Na    c     11.0712 *     0.0000      11.0712 *  0.0000     8          
    95  Na    c     11.0712 *     8.8569 *     6.6427 *  0.0000    16          
    96  Na    c      0.0000      13.2854 *     8.8569 *  0.0000     8          
    97  Na    c      8.8569 *    13.2854 *     0.0000    0.0000     8          
    98  Na    c      0.0000       8.8569 *    13.2854 *  0.0000     8          
    99  O     s      0.0000       0.0000      -2.2142 *  0.0000     2          
   100  Cl    s      2.2142 *     2.2142       0.0000    0.0000     4          
   101  O     s      0.0000       4.4285 *    -2.2142 *  0.0000     8          
   102  Cl    s      2.2142 *     2.2142       4.4285 *  0.0000     8          
   103  O     s      4.4285 *     4.4285      -2.2142 *  0.0000     8          
   104  O     s      0.0000       0.0000       6.6427 *  0.0000     2          
   105  Cl    s      2.2142 *     6.6427 *     0.0000    0.0000     8          
   106  O     s      0.0000       4.4285 *     6.6427 *  0.0000     8          
   107  Cl    s      2.2142 *     6.6427 *     4.4285 *  0.0000    16          
   108  O     s      0.0000       8.8569 *    -2.2142 *  0.0000     8          
   109  O     s      4.4285 *     4.4285       6.6427 *  0.0000     8          
   110  Cl    s      2.2142 *     2.2142       8.8569 *  0.0000     8          
   111  Cl    s      6.6427 *     6.6427       0.0000    0.0000     4          
   112  O     s      4.4285 *     8.8569 *    -2.2142 *  0.0000    16          
   113  Cl    s      6.6427 *     6.6427       4.4285 *  0.0000     8          
   114  O     s      0.0000       8.8569 *     6.6427 *  0.0000     8          
   115  O     s      0.0000       0.0000      11.0712 *  0.0000     2          
   116  Cl    s      2.2142 *     6.6427 *     8.8569 *  0.0000    16          
   117  Cl    s      2.2142 *    11.0712 *     0.0000    0.0000     8          
   118  O     s      4.4285 *     8.8569 *     6.6427 *  0.0000    16          
   119  O     s      0.0000       4.4285 *    11.0712 *  0.0000     8          
   120  Cl    s      2.2142 *    11.0712 *     4.4285 *  0.0000    16          
   121  O     s      8.8569 *     8.8569      -2.2142 *  0.0000     8          
   122  O     s      4.4285 *     4.4285      11.0712 *  0.0000     8          
   123  Cl    s      6.6427 *     6.6427       8.8569 *  0.0000     8          
   124  Cl    s      6.6427 *    11.0712 *     0.0000    0.0000     8          
   125  O     s      0.0000      13.2854 *    -2.2142 *  0.0000     8          
   126  Cl    s      2.2142 *     2.2142      13.2854 *  0.0000     8          
   127  Cl    s      6.6427 *    11.0712 *     4.4285 *  0.0000    16          
   128  O     s      4.4285 *    13.2854 *    -2.2142 *  0.0000    16          
   129  O     s      8.8569 *     8.8569       6.6427 *  0.0000     8          
   130  O     s      0.0000       8.8569 *    11.0712 *  0.0000     8          
   131  Cl    s      2.2142 *    11.0712 *     8.8569 *  0.0000    16          
   132  O     s      0.0000      13.2854 *     6.6427 *  0.0000     8          
   133  O     s      4.4285 *     8.8569 *    11.0712 *  0.0000    16          
   134  Cl    s      2.2142 *     6.6427 *    13.2854 *  0.0000    16          
   135  O     s      4.4285 *    13.2854 *     6.6427 *  0.0000    16          
   136  O     s      0.0000       0.0000      15.4996 *  0.0000     2          
   137  Cl    s      2.2142 *    15.4996 *     0.0000    0.0000     8          
   138  Cl    s      6.6427 *    11.0712 *     8.8569 *  0.0000    16          
   139  Cl    s     11.0712 *    11.0712       0.0000    0.0000     4          
--------------------------------------------------------------------------------


  Constraints on symmetry reduced coordinates :

--------------------------------------------------------------------------------
  Constraint no.      Unconstrained     Constrained    Coefficient    
                         Variable         Variable
--------------------------------------------------------------------------------
           1                 2 x             2 y         1.00000
           2                 7 x             7 y         1.00000
           3                10 x            10 y         1.00000
           4                11 x            11 y         1.00000
           5                16 x            16 y         1.00000
           6                24 x            24 y         1.00000
           7                25 x            25 y         1.00000
           8                27 x            27 y         1.00000
           9                33 x            33 y         1.00000
          10                35 x            35 y         1.00000
          11                51 x            51 y         1.00000
          12                52 x            52 y         1.00000
          13                53 x            53 y         1.00000
          14                54 x            54 y         1.00000
          15                61 x            61 y         1.00000
          16                65 x            65 y         1.00000
          17                73 x            73 y         1.00000
          18                79 x            79 y         1.00000
          19                85 x            85 y         1.00000
          20                93 x            93 y         1.00000
          21               100 x           100 y         1.00000
          22               102 x           102 y         1.00000
          23               103 x           103 y         1.00000
          24               109 x           109 y         1.00000
          25               110 x           110 y         1.00000
          26               111 x           111 y         1.00000
          27               113 x           113 y         1.00000
          28               121 x           121 y         1.00000
          29               122 x           122 y         1.00000
          30               123 x           123 y         1.00000
          31               126 x           126 y         1.00000
          32               129 x           129 y         1.00000
          33               139 x           139 y         1.00000
--------------------------------------------------------------------------------


  Components of defect energy : 

--------------------------------------------------------------------------------
  Region 1 - region 1                   =     -1.81740914 eV
  Region 1 - region 2a (unrelaxed)      =      5.91060855 eV
  Region 1 - 2a (relaxed - correction)  =     -0.11131307 eV
  Region 1 (Total)                      =      3.98188634 eV
  Region 2a                             =      0.05564985 eV
  Region 2b                             =     -0.11154786 eV
--------------------------------------------------------------------------------
  Total defect energy                   =      3.92598833 eV
--------------------------------------------------------------------------------

  Largest displacement in region 2 =   0.0096 Angstroms


  Number of variables =      302

  Maximum number of calculations  =        1000
  Maximum Hessian update interval =          10
  Maximum step size               =   1.0000000
  Maximum parameter tolerance     =   0.0000100
  Maximum function  tolerance     =   0.0000100
  Maximum gradient  tolerance     =   0.0010000

  Symmetry adapted optimisation

  Symmetry to be used for second derivatives

  Newton-Raphson optimiser to be used

  BFGS hessian update to be used

  Lower half triangular hessian to be used

  Start of defect optimisation :

  Cycle:      0 Defect Energy:   3.925988  Gnorm:     0.057798  CPU:    5.974
  ** Hessian calculated **
  Cycle:      1 Defect Energy:   3.124794  Gnorm:     0.036210  CPU:   11.794
  ** Hessian calculated **
  Cycle:      2 Defect Energy:   2.782637  Gnorm:     0.017928  CPU:   20.591
  Cycle:      3 Defect Energy:   2.690428  Gnorm:     0.008563  CPU:   24.504
  Cycle:      4 Defect Energy:   2.672068  Gnorm:     0.006024  CPU:   25.538
  Cycle:      5 Defect Energy:   2.650860  Gnorm:     0.005261  CPU:   26.637
  Cycle:      6 Defect Energy:   2.628615  Gnorm:     0.004601  CPU:   27.744
  Cycle:      7 Defect Energy:   2.609339  Gnorm:     0.004163  CPU:   28.938
  Cycle:      8 Defect Energy:   2.591798  Gnorm:     0.004049  CPU:   29.998
  Cycle:      9 Defect Energy:   2.574421  Gnorm:     0.004127  CPU:   31.063
  Cycle:     10 Defect Energy:   2.556345  Gnorm:     0.004245  CPU:   32.138
  Cycle:     11 Defect Energy:   2.536518  Gnorm:     0.004329  CPU:   32.781
  ** Hessian calculated **
  Cycle:     12 Defect Energy:   2.506744  Gnorm:     0.004296  CPU:   34.324
  Cycle:     13 Defect Energy:   2.462585  Gnorm:     0.004205  CPU:   34.859
  Cycle:     14 Defect Energy:   2.397602  Gnorm:     0.003526  CPU:   35.396
  Cycle:     15 Defect Energy:   2.366414  Gnorm:     0.002086  CPU:   35.933
  Cycle:     16 Defect Energy:   2.357546  Gnorm:     0.001460  CPU:   36.493
  Cycle:     17 Defect Energy:   2.353275  Gnorm:     0.000972  CPU:   37.034
  Cycle:     18 Defect Energy:   2.351207  Gnorm:     0.000693  CPU:   37.569
  Cycle:     19 Defect Energy:   2.350270  Gnorm:     0.000449  CPU:   38.103
  Cycle:     20 Defect Energy:   2.349822  Gnorm:     0.000320  CPU:   38.739
  Cycle:     21 Defect Energy:   2.349638  Gnorm:     0.000213  CPU:   39.273
  ** Hessian calculated **
  Cycle:     22 Defect Energy:   2.349554  Gnorm:     0.000149  CPU:   40.487
  Cycle:     23 Defect Energy:   2.349516  Gnorm:     0.000105  CPU:   40.955
  Cycle:     24 Defect Energy:   2.349500  Gnorm:     0.000073  CPU:   41.424


  **** Optimisation achieved ****


  Final defect energy  =        2.34949358
  Final defect Gnorm   =        0.00005128

  Components of defect energy : 

--------------------------------------------------------------------------------
  Region 1 - region 1                   =     -2.57654293 eV
  Region 1 - region 2a (unrelaxed)      =      5.08901641 eV
  Region 1 - 2a (relaxed - correction)  =     -0.10289006 eV
  Region 1 (Total)                      =      2.40958342 eV
  Region 2a                             =      0.05145801 eV
  Region 2b                             =     -0.11154786 eV
--------------------------------------------------------------------------------
  Total defect energy                   =      2.34949358 eV
--------------------------------------------------------------------------------

  Largest displacement in region 2 =   0.0096 Angstroms

  Final coordinates of region 1 :

--------------------------------------------------------------------------------
   No.  Atomic        x           y           z          Radius      Charge
        Label       (Angs)      (Angs)      (Angs)       (Angs)       (e) 
--------------------------------------------------------------------------------
     1  O     c     2.214230    2.214230   -2.291661    0.000000    0.489000
     2  O     c     2.214230    2.214230    2.291661    0.000000    0.489000
     3  Cl    c     4.553197    4.553197    0.000000    0.000000    0.615000
     4  Cl    c     4.553197   -0.124736    0.000000    0.000000    0.615000
     5  Cl    c    -0.124736    4.553197    0.000000    0.000000    0.615000
     6  Cl    c    -0.124736   -0.124736    0.000000    0.000000    0.615000
     7  Na    c     4.363733    2.214230   -1.874782    0.000000    0.670000
     8  Na    c     4.363733    2.214230    1.874782    0.000000    0.670000
     9  Na    c     0.064728    2.214230   -1.874782    0.000000    0.670000
    10  Na    c     0.064728    2.214230    1.874782    0.000000    0.670000
    11  Na    c     2.214230    4.363733   -1.874782    0.000000    0.670000
    12  Na    c     2.214230    4.363733    1.874782    0.000000    0.670000
    13  Na    c     2.214230    0.064728   -1.874782    0.000000    0.670000
    14  Na    c     2.214230    0.064728    1.874782    0.000000    0.670000
    15  Na    c     2.214230    2.214230    4.447459    0.000000    0.670000
    16  Na    c     2.214230    2.214230   -4.447459    0.000000    0.670000
    17  Na    c     2.214230    6.887522    0.000000    0.000000    0.670000
    18  Na    c     2.214230   -2.459061    0.000000    0.000000    0.670000
    19  Na    c     6.887522    2.214230    0.000000    0.000000    0.670000
    20  Na    c    -2.459061    2.214230    0.000000    0.000000    0.670000
    21  O     c     2.214230    6.616821   -2.200182    0.000000    0.489000
    22  O     c     2.214230    6.616821    2.200182    0.000000    0.489000
    23  O     c     2.214230   -2.188361   -2.200182    0.000000    0.489000
    24  O     c     2.214230   -2.188361    2.200182    0.000000    0.489000
    25  O     c     6.616821    2.214230   -2.200182    0.000000    0.489000
    26  O     c     6.616821    2.214230    2.200182    0.000000    0.489000
    27  O     c    -2.188361    2.214230   -2.200182    0.000000    0.489000
    28  O     c    -2.188361    2.214230    2.200182    0.000000    0.489000
    29  Cl    c     4.504095    4.504095    4.528929    0.000000    0.615000
    30  Cl    c     4.504095    4.504095   -4.528929    0.000000    0.615000
    31  Cl    c     4.504095   -0.075634    4.528929    0.000000    0.615000
    32  Cl    c     4.504095   -0.075634   -4.528929    0.000000    0.615000
    33  Cl    c    -0.075634    4.504095    4.528929    0.000000    0.615000
    34  Cl    c    -0.075634    4.504095   -4.528929    0.000000    0.615000
    35  Cl    c    -0.075634   -0.075634    4.528929    0.000000    0.615000
    36  Cl    c    -0.075634   -0.075634   -4.528929    0.000000    0.615000
    37  Na    c     4.426203    6.604477   -2.197658    0.000000    0.670000
    38  Na    c     4.426203    6.604477    2.197658    0.000000    0.670000
    39  Na    c     4.426203   -2.176016   -2.197658    0.000000    0.670000
    40  Na    c     4.426203   -2.176016    2.197658    0.000000    0.670000
    41  Na    c     0.002258    6.604477   -2.197658    0.000000    0.670000
    42  Na    c     0.002258    6.604477    2.197658    0.000000    0.670000
    43  Na    c     0.002258   -2.176016   -2.197658    0.000000    0.670000
    44  Na    c     0.002258   -2.176016    2.197658    0.000000    0.670000
    45  Na    c     6.604477    4.426203   -2.197658    0.000000    0.670000
    46  Na    c     6.604477    4.426203    2.197658    0.000000    0.670000
    47  Na    c     6.604477    0.002258   -2.197658    0.000000    0.670000
    48  Na    c     6.604477    0.002258    2.197658    0.000000    0.670000
    49  Na    c    -2.176016    4.426203   -2.197658    0.000000    0.670000
    50  Na    c    -2.176016    4.426203    2.197658    0.000000    0.670000
    51  Na    c    -2.176016    0.002258   -2.197658    0.000000    0.670000
    52  Na    c    -2.176016    0.002258    2.197658    0.000000    0.670000
    53  Na    c     2.214230    6.343341    4.400365    0.000000    0.670000
    54  Na    c     2.214230    6.343341   -4.400365    0.000000    0.670000
    55  Na    c     2.214230   -1.914880    4.400365    0.000000    0.670000
    56  Na    c     2.214230   -1.914880   -4.400365    0.000000    0.670000
    57  Na    c     6.343341    2.214230    4.400365    0.000000    0.670000
    58  Na    c     6.343341    2.214230   -4.400365    0.000000    0.670000
    59  Na    c    -1.914880    2.214230    4.400365    0.000000    0.670000
    60  Na    c    -1.914880    2.214230   -4.400365    0.000000    0.670000
    61  Na    c     6.650288    6.650288    0.000000    0.000000    0.670000
    62  Na    c     6.650288   -2.221827    0.000000    0.000000    0.670000
    63  Na    c    -2.221827    6.650288    0.000000    0.000000    0.670000
    64  Na    c    -2.221827   -2.221827    0.000000    0.000000    0.670000
    65  O     c     6.646882    6.646882   -2.220658    0.000000    0.489000
    66  O     c     6.646882    6.646882    2.220658    0.000000    0.489000
    67  O     c     6.646882   -2.218421   -2.220658    0.000000    0.489000
    68  O     c     6.646882   -2.218421    2.220658    0.000000    0.489000
    69  O     c    -2.218421    6.646882   -2.220658    0.000000    0.489000
    70  O     c    -2.218421    6.646882    2.220658    0.000000    0.489000
    71  O     c    -2.218421   -2.218421   -2.220658    0.000000    0.489000
    72  O     c    -2.218421   -2.218421    2.220658    0.000000    0.489000
    73  O     c     2.214230    2.214230    6.682976    0.000000    0.489000
    74  O     c     2.214230    2.214230   -6.682976    0.000000    0.489000
    75  Cl    c     4.457170    8.879817    0.000000    0.000000    0.615000
    76  Cl    c     4.457170   -4.451357    0.000000    0.000000    0.615000
    77  Cl    c     8.879817    4.457170    0.000000    0.000000    0.615000
    78  Cl    c     8.879817   -0.028710    0.000000    0.000000    0.615000
    79  Cl    c    -0.028710    8.879817    0.000000    0.000000    0.615000
    80  Cl    c    -0.028710   -4.451357    0.000000    0.000000    0.615000
    81  Cl    c    -4.451357    4.457170    0.000000    0.000000    0.615000
    82  Cl    c    -4.451357   -0.028710    0.000000    0.000000    0.615000
    83  Na    c     4.424612    2.214230    6.728060    0.000000    0.670000
    84  Na    c     4.424612    2.214230   -6.728060    0.000000    0.670000
    85  Na    c     0.003849    2.214230    6.728060    0.000000    0.670000
    86  Na    c     0.003849    2.214230   -6.728060    0.000000    0.670000
    87  Na    c     2.214230    4.424612    6.728060    0.000000    0.670000
    88  Na    c     2.214230    4.424612   -6.728060    0.000000    0.670000
    89  Na    c     2.214230    0.003849    6.728060    0.000000    0.670000
    90  Na    c     2.214230    0.003849   -6.728060    0.000000    0.670000
    91  Na    c     8.831205    2.214230   -2.470376    0.000000    0.670000
    92  Na    c     8.831205    2.214230    2.470376    0.000000    0.670000
    93  Na    c    -4.402744    2.214230   -2.470376    0.000000    0.670000
    94  Na    c    -4.402744    2.214230    2.470376    0.000000    0.670000
    95  Na    c     2.214230    8.831205   -2.470376    0.000000    0.670000
    96  Na    c     2.214230    8.831205    2.470376    0.000000    0.670000
    97  Na    c     2.214230   -4.402744   -2.470376    0.000000    0.670000
    98  Na    c     2.214230   -4.402744    2.470376    0.000000    0.670000
    99  Na    c     6.627397    6.627397    4.431006    0.000000    0.670000
   100  Na    c     6.627397    6.627397   -4.431006    0.000000    0.670000
   101  Na    c     6.627397   -2.198936    4.431006    0.000000    0.670000
   102  Na    c     6.627397   -2.198936   -4.431006    0.000000    0.670000
   103  Na    c    -2.198936    6.627397    4.431006    0.000000    0.670000
   104  Na    c    -2.198936    6.627397   -4.431006    0.000000    0.670000
   105  Na    c    -2.198936   -2.198936    4.431006    0.000000    0.670000
   106  Na    c    -2.198936   -2.198936   -4.431006    0.000000    0.670000
   107  O     c     2.214230    6.640349    6.619395    0.000000    0.489000
   108  O     c     2.214230    6.640349   -6.619395    0.000000    0.489000
   109  O     c     2.214230   -2.211888    6.619395    0.000000    0.489000
   110  O     c     2.214230   -2.211888   -6.619395    0.000000    0.489000
   111  O     c     6.640349    2.214230    6.619395    0.000000    0.489000
   112  O     c     6.640349    2.214230   -6.619395    0.000000    0.489000
   113  O     c    -2.211888    2.214230    6.619395    0.000000    0.489000
   114  O     c    -2.211888    2.214230   -6.619395    0.000000    0.489000
   115  Cl    c     4.458277    8.892665    4.433647    0.000000    0.615000
   116  Cl    c     4.458277    8.892665   -4.433647    0.000000    0.615000
   117  Cl    c     4.458277   -4.464205    4.433647    0.000000    0.615000
   118  Cl    c     4.458277   -4.464205   -4.433647    0.000000    0.615000
   119  Cl    c     8.892665    4.458277    4.433647    0.000000    0.615000
   120  Cl    c     8.892665    4.458277   -4.433647    0.000000    0.615000
   121  Cl    c     8.892665   -0.029816    4.433647    0.000000    0.615000
   122  Cl    c     8.892665   -0.029816   -4.433647    0.000000    0.615000
   123  Cl    c    -0.029816    8.892665    4.433647    0.000000    0.615000
   124  Cl    c    -0.029816    8.892665   -4.433647    0.000000    0.615000
   125  Cl    c    -0.029816   -4.464205    4.433647    0.000000    0.615000
   126  Cl    c    -0.029816   -4.464205   -4.433647    0.000000    0.615000
   127  Cl    c    -4.464205    4.458277    4.433647    0.000000    0.615000
   128  Cl    c    -4.464205    4.458277   -4.433647    0.000000    0.615000
   129  Cl    c    -4.464205   -0.029816    4.433647    0.000000    0.615000
   130  Cl    c    -4.464205   -0.029816   -4.433647    0.000000    0.615000
   131  Na    c     4.430413    6.642073    6.624801    0.000000    0.670000
   132  Na    c     4.430413    6.642073   -6.624801    0.000000    0.670000
   133  Na    c     4.430413   -2.213612    6.624801    0.000000    0.670000
   134  Na    c     4.430413   -2.213612   -6.624801    0.000000    0.670000
   135  Na    c    -0.001953    6.642073    6.624801    0.000000    0.670000
   136  Na    c    -0.001953    6.642073   -6.624801    0.000000    0.670000
   137  Na    c    -0.001953   -2.213612    6.624801    0.000000    0.670000
   138  Na    c    -0.001953   -2.213612   -6.624801    0.000000    0.670000
   139  Na    c     6.642073    4.430413    6.624801    0.000000    0.670000
   140  Na    c     6.642073    4.430413   -6.624801    0.000000    0.670000
   141  Na    c     6.642073   -0.001953    6.624801    0.000000    0.670000
   142  Na    c     6.642073   -0.001953   -6.624801    0.000000    0.670000
   143  Na    c    -2.213612    4.430413    6.624801    0.000000    0.670000
   144  Na    c    -2.213612    4.430413   -6.624801    0.000000    0.670000
   145  Na    c    -2.213612   -0.001953    6.624801    0.000000    0.670000
   146  Na    c    -2.213612   -0.001953   -6.624801    0.000000    0.670000
   147  Na    c     8.854182    6.631236   -2.229792    0.000000    0.670000
   148  Na    c     8.854182    6.631236    2.229792    0.000000    0.670000
   149  Na    c     8.854182   -2.202775   -2.229792    0.000000    0.670000
   150  Na    c     8.854182   -2.202775    2.229792    0.000000    0.670000
   151  Na    c    -4.425721    6.631236   -2.229792    0.000000    0.670000
   152  Na    c    -4.425721    6.631236    2.229792    0.000000    0.670000
   153  Na    c    -4.425721   -2.202775   -2.229792    0.000000    0.670000
   154  Na    c    -4.425721   -2.202775    2.229792    0.000000    0.670000
   155  Na    c     6.631236    8.854182   -2.229792    0.000000    0.670000
   156  Na    c     6.631236    8.854182    2.229792    0.000000    0.670000
   157  Na    c     6.631236   -4.425721   -2.229792    0.000000    0.670000
   158  Na    c     6.631236   -4.425721    2.229792    0.000000    0.670000
   159  Na    c    -2.202775    8.854182   -2.229792    0.000000    0.670000
   160  Na    c    -2.202775    8.854182    2.229792    0.000000    0.670000
   161  Na    c    -2.202775   -4.425721   -2.229792    0.000000    0.670000
   162  Na    c    -2.202775   -4.425721    2.229792    0.000000    0.670000
   163  Na    c     2.214230    2.214230    8.881727    0.000000    0.670000
   164  Na    c     2.214230    2.214230   -8.881727    0.000000    0.670000
   165  Na    c     2.214230   10.808384    0.000000    0.000000    0.670000
   166  Na    c     2.214230   -6.379923    0.000000    0.000000    0.670000
   167  Na    c    10.808384    2.214230    0.000000    0.000000    0.670000
   168  Na    c    -6.379923    2.214230    0.000000    0.000000    0.670000
   169  O     c     2.214230   11.051791   -2.211754    0.000000    0.489000
   170  O     c     2.214230   11.051791    2.211754    0.000000    0.489000
   171  O     c     2.214230   -6.623330   -2.211754    0.000000    0.489000
   172  O     c     2.214230   -6.623330    2.211754    0.000000    0.489000
   173  O     c    11.051791    2.214230   -2.211754    0.000000    0.489000
   174  O     c    11.051791    2.214230    2.211754    0.000000    0.489000
   175  O     c    -6.623330    2.214230   -2.211754    0.000000    0.489000
   176  O     c    -6.623330    2.214230    2.211754    0.000000    0.489000
   177  O     c     6.651063    6.651063    6.648447    0.000000    0.489000
   178  O     c     6.651063    6.651063   -6.648447    0.000000    0.489000
   179  O     c     6.651063   -2.222602    6.648447    0.000000    0.489000
   180  O     c     6.651063   -2.222602   -6.648447    0.000000    0.489000
   181  O     c    -2.222602    6.651063    6.648447    0.000000    0.489000
   182  O     c    -2.222602    6.651063   -6.648447    0.000000    0.489000
   183  O     c    -2.222602   -2.222602    6.648447    0.000000    0.489000
   184  O     c    -2.222602   -2.222602   -6.648447    0.000000    0.489000
   185  Cl    c     4.425558    4.425558    8.883095    0.000000    0.615000
   186  Cl    c     4.425558    4.425558   -8.883095    0.000000    0.615000
   187  Cl    c     4.425558    0.002903    8.883095    0.000000    0.615000
   188  Cl    c     4.425558    0.002903   -8.883095    0.000000    0.615000
   189  Cl    c     0.002903    4.425558    8.883095    0.000000    0.615000
   190  Cl    c     0.002903    4.425558   -8.883095    0.000000    0.615000
   191  Cl    c     0.002903    0.002903    8.883095    0.000000    0.615000
   192  Cl    c     0.002903    0.002903   -8.883095    0.000000    0.615000
   193  Na    c     4.427762   11.050872   -2.201018    0.000000    0.670000
   194  Na    c     4.427762   11.050872    2.201018    0.000000    0.670000
   195  Na    c     4.427762   -6.622412   -2.201018    0.000000    0.670000
   196  Na    c     4.427762   -6.622412    2.201018    0.000000    0.670000
   197  Na    c     0.000699   11.050872   -2.201018    0.000000    0.670000
   198  Na    c     0.000699   11.050872    2.201018    0.000000    0.670000
   199  Na    c     0.000699   -6.622412   -2.201018    0.000000    0.670000
   200  Na    c     0.000699   -6.622412    2.201018    0.000000    0.670000
   201  Na    c    11.050872    4.427762   -2.201018    0.000000    0.670000
   202  Na    c    11.050872    4.427762    2.201018    0.000000    0.670000
   203  Na    c    11.050872    0.000699   -2.201018    0.000000    0.670000
   204  Na    c    11.050872    0.000699    2.201018    0.000000    0.670000
   205  Na    c    -6.622412    4.427762   -2.201018    0.000000    0.670000
   206  Na    c    -6.622412    4.427762    2.201018    0.000000    0.670000
   207  Na    c    -6.622412    0.000699   -2.201018    0.000000    0.670000
   208  Na    c    -6.622412    0.000699    2.201018    0.000000    0.670000
   209  Cl    c     8.876241    8.876241    0.000000    0.000000    0.615000
   210  Cl    c     8.876241   -4.447780    0.000000    0.000000    0.615000
   211  Cl    c    -4.447780    8.876241    0.000000    0.000000    0.615000
   212  Cl    c    -4.447780   -4.447780    0.000000    0.000000    0.615000
   213  Na    c     8.846415    2.214230    6.417826    0.000000    0.670000
   214  Na    c     8.846415    2.214230   -6.417826    0.000000    0.670000
   215  Na    c    -4.417954    2.214230    6.417826    0.000000    0.670000
   216  Na    c    -4.417954    2.214230   -6.417826    0.000000    0.670000
   217  Na    c     2.214230    8.846415    6.417826    0.000000    0.670000
   218  Na    c     2.214230    8.846415   -6.417826    0.000000    0.670000
   219  Na    c     2.214230   -4.417954    6.417826    0.000000    0.670000
   220  Na    c     2.214230   -4.417954   -6.417826    0.000000    0.670000
   221  Na    c     2.214230    6.754355    8.838676    0.000000    0.670000
   222  Na    c     2.214230    6.754355   -8.838676    0.000000    0.670000
   223  Na    c     2.214230   -2.325894    8.838676    0.000000    0.670000
   224  Na    c     2.214230   -2.325894   -8.838676    0.000000    0.670000
   225  Na    c     6.754355    2.214230    8.838676    0.000000    0.670000
   226  Na    c     6.754355    2.214230   -8.838676    0.000000    0.670000
   227  Na    c    -2.325894    2.214230    8.838676    0.000000    0.670000
   228  Na    c    -2.325894    2.214230   -8.838676    0.000000    0.670000
   229  Na    c     2.214230   11.273996    4.419515    0.000000    0.670000
   230  Na    c     2.214230   11.273996   -4.419515    0.000000    0.670000
   231  Na    c     2.214230   -6.845535    4.419515    0.000000    0.670000
   232  Na    c     2.214230   -6.845535   -4.419515    0.000000    0.670000
   233  Na    c    11.273996    2.214230    4.419515    0.000000    0.670000
   234  Na    c    11.273996    2.214230   -4.419515    0.000000    0.670000
   235  Na    c    -6.845535    2.214230    4.419515    0.000000    0.670000
   236  Na    c    -6.845535    2.214230   -4.419515    0.000000    0.670000
   237  Na    c     6.651703   11.044594    0.000000    0.000000    0.670000
   238  Na    c     6.651703   -6.616134    0.000000    0.000000    0.670000
   239  Na    c    11.044594    6.651703    0.000000    0.000000    0.670000
   240  Na    c    11.044594   -2.223242    0.000000    0.000000    0.670000
   241  Na    c    -2.223242   11.044594    0.000000    0.000000    0.670000
   242  Na    c    -2.223242   -6.616134    0.000000    0.000000    0.670000
   243  Na    c    -6.616134    6.651703    0.000000    0.000000    0.670000
   244  Na    c    -6.616134   -2.223242    0.000000    0.000000    0.670000
   245  O     c     6.644157   11.072124   -2.214051    0.000000    0.489000
   246  O     c     6.644157   11.072124    2.214051    0.000000    0.489000
   247  O     c     6.644157   -6.643663   -2.214051    0.000000    0.489000
   248  O     c     6.644157   -6.643663    2.214051    0.000000    0.489000
   249  O     c    11.072124    6.644157   -2.214051    0.000000    0.489000
   250  O     c    11.072124    6.644157    2.214051    0.000000    0.489000
   251  O     c    11.072124   -2.215696   -2.214051    0.000000    0.489000
   252  O     c    11.072124   -2.215696    2.214051    0.000000    0.489000
   253  O     c    -2.215696   11.072124   -2.214051    0.000000    0.489000
   254  O     c    -2.215696   11.072124    2.214051    0.000000    0.489000
   255  O     c    -2.215696   -6.643663   -2.214051    0.000000    0.489000
   256  O     c    -2.215696   -6.643663    2.214051    0.000000    0.489000
   257  O     c    -6.643663    6.644157   -2.214051    0.000000    0.489000
   258  O     c    -6.643663    6.644157    2.214051    0.000000    0.489000
   259  O     c    -6.643663   -2.215696   -2.214051    0.000000    0.489000
   260  O     c    -6.643663   -2.215696    2.214051    0.000000    0.489000
   261  Cl    c     8.875746    8.875746    4.439239    0.000000    0.615000
   262  Cl    c     8.875746    8.875746   -4.439239    0.000000    0.615000
   263  Cl    c     8.875746   -4.447285    4.439239    0.000000    0.615000
   264  Cl    c     8.875746   -4.447285   -4.439239    0.000000    0.615000
   265  Cl    c    -4.447285    8.875746    4.439239    0.000000    0.615000
   266  Cl    c    -4.447285    8.875746   -4.439239    0.000000    0.615000
   267  Cl    c    -4.447285   -4.447285    4.439239    0.000000    0.615000
   268  Cl    c    -4.447285   -4.447285   -4.439239    0.000000    0.615000
   269  Na    c     8.860028    6.646751    6.629063    0.000000    0.670000
   270  Na    c     8.860028    6.646751   -6.629063    0.000000    0.670000
   271  Na    c     8.860028   -2.218290    6.629063    0.000000    0.670000
   272  Na    c     8.860028   -2.218290   -6.629063    0.000000    0.670000
   273  Na    c    -4.431568    6.646751    6.629063    0.000000    0.670000
   274  Na    c    -4.431568    6.646751   -6.629063    0.000000    0.670000
   275  Na    c    -4.431568   -2.218290    6.629063    0.000000    0.670000
   276  Na    c    -4.431568   -2.218290   -6.629063    0.000000    0.670000
   277  Na    c     6.646751    8.860028    6.629063    0.000000    0.670000
   278  Na    c     6.646751    8.860028   -6.629063    0.000000    0.670000
   279  Na    c     6.646751   -4.431568    6.629063    0.000000    0.670000
   280  Na    c     6.646751   -4.431568   -6.629063    0.000000    0.670000
   281  Na    c    -2.218290    8.860028    6.629063    0.000000    0.670000
   282  Na    c    -2.218290    8.860028   -6.629063    0.000000    0.670000
   283  Na    c    -2.218290   -4.431568    6.629063    0.000000    0.670000
   284  Na    c    -2.218290   -4.431568   -6.629063    0.000000    0.670000
   285  Na    c     6.648736    6.648736    8.854944    0.000000    0.670000
   286  Na    c     6.648736    6.648736   -8.854944    0.000000    0.670000
   287  Na    c     6.648736   -2.220276    8.854944    0.000000    0.670000
   288  Na    c     6.648736   -2.220276   -8.854944    0.000000    0.670000
   289  Na    c    -2.220276    6.648736    8.854944    0.000000    0.670000
   290  Na    c    -2.220276    6.648736   -8.854944    0.000000    0.670000
   291  Na    c    -2.220276   -2.220276    8.854944    0.000000    0.670000
   292  Na    c    -2.220276   -2.220276   -8.854944    0.000000    0.670000
   293  Na    c     6.633422   11.080518    4.427807    0.000000    0.670000
   294  Na    c     6.633422   11.080518   -4.427807    0.000000    0.670000
   295  Na    c     6.633422   -6.652057    4.427807    0.000000    0.670000
   296  Na    c     6.633422   -6.652057   -4.427807    0.000000    0.670000
   297  Na    c    11.080518    6.633422    4.427807    0.000000    0.670000
   298  Na    c    11.080518    6.633422   -4.427807    0.000000    0.670000
   299  Na    c    11.080518   -2.204962    4.427807    0.000000    0.670000
   300  Na    c    11.080518   -2.204962   -4.427807    0.000000    0.670000
   301  Na    c    -2.204962   11.080518    4.427807    0.000000    0.670000
   302  Na    c    -2.204962   11.080518   -4.427807    0.000000    0.670000
   303  Na    c    -2.204962   -6.652057    4.427807    0.000000    0.670000
   304  Na    c    -2.204962   -6.652057   -4.427807    0.000000    0.670000
   305  Na    c    -6.652057    6.633422    4.427807    0.000000    0.670000
   306  Na    c    -6.652057    6.633422   -4.427807    0.000000    0.670000
   307  Na    c    -6.652057   -2.204962    4.427807    0.000000    0.670000
   308  Na    c    -6.652057   -2.204962   -4.427807    0.000000    0.670000
   309  O     c     2.214230   11.065658    6.630374    0.000000    0.489000
   310  O     c     2.214230   11.065658   -6.630374    0.000000    0.489000
   311  O     c     2.214230   -6.637197    6.630374    0.000000    0.489000
   312  O     c     2.214230   -6.637197   -6.630374    0.000000    0.489000
   313  O     c    11.065658    2.214230    6.630374    0.000000    0.489000
   314  O     c    11.065658    2.214230   -6.630374    0.000000    0.489000
   315  O     c    -6.637197    2.214230    6.630374    0.000000    0.489000
   316  O     c    -6.637197    2.214230   -6.630374    0.000000    0.489000
   317  O     c     2.214230    2.214230   11.078353    0.000000    0.489000
   318  O     c     2.214230    2.214230  -11.078353    0.000000    0.489000
   319  Cl    c     4.442428    8.866005    8.875078    0.000000    0.615000
   320  Cl    c     4.442428    8.866005   -8.875078    0.000000    0.615000
   321  Cl    c     4.442428   -4.437544    8.875078    0.000000    0.615000
   322  Cl    c     4.442428   -4.437544   -8.875078    0.000000    0.615000
   323  Cl    c     8.866005    4.442428    8.875078    0.000000    0.615000
   324  Cl    c     8.866005    4.442428   -8.875078    0.000000    0.615000
   325  Cl    c     8.866005   -0.013967    8.875078    0.000000    0.615000
   326  Cl    c     8.866005   -0.013967   -8.875078    0.000000    0.615000
   327  Cl    c    -0.013967    8.866005    8.875078    0.000000    0.615000
   328  Cl    c    -0.013967    8.866005   -8.875078    0.000000    0.615000
   329  Cl    c    -0.013967   -4.437544    8.875078    0.000000    0.615000
   330  Cl    c    -0.013967   -4.437544   -8.875078    0.000000    0.615000
   331  Cl    c    -4.437544    4.442428    8.875078    0.000000    0.615000
   332  Cl    c    -4.437544    4.442428   -8.875078    0.000000    0.615000
   333  Cl    c    -4.437544   -0.013967    8.875078    0.000000    0.615000
   334  Cl    c    -4.437544   -0.013967   -8.875078    0.000000    0.615000
   335  Na    c     4.427794   11.051179    6.637113    0.000000    0.670000
   336  Na    c     4.427794   11.051179   -6.637113    0.000000    0.670000
   337  Na    c     4.427794   -6.622718    6.637113    0.000000    0.670000
   338  Na    c     4.427794   -6.622718   -6.637113    0.000000    0.670000
   339  Na    c     0.000667   11.051179    6.637113    0.000000    0.670000
   340  Na    c     0.000667   11.051179   -6.637113    0.000000    0.670000
   341  Na    c     0.000667   -6.622718    6.637113    0.000000    0.670000
   342  Na    c     0.000667   -6.622718   -6.637113    0.000000    0.670000
   343  Na    c    11.051179    4.427794    6.637113    0.000000    0.670000
   344  Na    c    11.051179    4.427794   -6.637113    0.000000    0.670000
   345  Na    c    11.051179    0.000667    6.637113    0.000000    0.670000
   346  Na    c    11.051179    0.000667   -6.637113    0.000000    0.670000
   347  Na    c    -6.622718    4.427794    6.637113    0.000000    0.670000
   348  Na    c    -6.622718    4.427794   -6.637113    0.000000    0.670000
   349  Na    c    -6.622718    0.000667    6.637113    0.000000    0.670000
   350  Na    c    -6.622718    0.000667   -6.637113    0.000000    0.670000
   351  Na    c     8.856225   11.062419   -2.218994    0.000000    0.670000
   352  Na    c     8.856225   11.062419    2.218994    0.000000    0.670000
   353  Na    c     8.856225   -6.633958   -2.218994    0.000000    0.670000
   354  Na    c     8.856225   -6.633958    2.218994    0.000000    0.670000
   355  Na    c    -4.427764   11.062419   -2.218994    0.000000    0.670000
   356  Na    c    -4.427764   11.062419    2.218994    0.000000    0.670000
   357  Na    c    -4.427764   -6.633958   -2.218994    0.000000    0.670000
   358  Na    c    -4.427764   -6.633958    2.218994    0.000000    0.670000
   359  Na    c    11.062419    8.856225   -2.218994    0.000000    0.670000
   360  Na    c    11.062419    8.856225    2.218994    0.000000    0.670000
   361  Na    c    11.062419   -4.427764   -2.218994    0.000000    0.670000
   362  Na    c    11.062419   -4.427764    2.218994    0.000000    0.670000
   363  Na    c    -6.633958    8.856225   -2.218994    0.000000    0.670000
   364  Na    c    -6.633958    8.856225    2.218994    0.000000    0.670000
   365  Na    c    -6.633958   -4.427764   -2.218994    0.000000    0.670000
   366  Na    c    -6.633958   -4.427764    2.218994    0.000000    0.670000
   367  Cl    c     4.442640   13.301045    0.000000    0.000000    0.615000
   368  Cl    c     4.442640   -8.872584    0.000000    0.000000    0.615000
   369  Cl    c    13.301045    4.442640    0.000000    0.000000    0.615000
   370  Cl    c    13.301045   -0.014179    0.000000    0.000000    0.615000
   371  Cl    c    -0.014179   13.301045    0.000000    0.000000    0.615000
   372  Cl    c    -0.014179   -8.872584    0.000000    0.000000    0.615000
   373  Cl    c    -8.872584    4.442640    0.000000    0.000000    0.615000
   374  Cl    c    -8.872584   -0.014179    0.000000    0.000000    0.615000
   375  Na    c     4.434231    2.214230   11.035219    0.000000    0.670000
   376  Na    c     4.434231    2.214230  -11.035219    0.000000    0.670000
   377  Na    c    -0.005770    2.214230   11.035219    0.000000    0.670000
   378  Na    c    -0.005770    2.214230  -11.035219    0.000000    0.670000
   379  Na    c     2.214230    4.434231   11.035219    0.000000    0.670000
   380  Na    c     2.214230    4.434231  -11.035219    0.000000    0.670000
   381  Na    c     2.214230   -0.005770   11.035219    0.000000    0.670000
   382  Na    c     2.214230   -0.005770  -11.035219    0.000000    0.670000
   383  Na    c    13.269561    2.214230   -2.018327    0.000000    0.670000
   384  Na    c    13.269561    2.214230    2.018327    0.000000    0.670000
   385  Na    c    -8.841101    2.214230   -2.018327    0.000000    0.670000
   386  Na    c    -8.841101    2.214230    2.018327    0.000000    0.670000
   387  Na    c     2.214230   13.269561   -2.018327    0.000000    0.670000
   388  Na    c     2.214230   13.269561    2.018327    0.000000    0.670000
   389  Na    c     2.214230   -8.841101   -2.018327    0.000000    0.670000
   390  Na    c     2.214230   -8.841101    2.018327    0.000000    0.670000
   391  O     c     6.643661   11.075314    6.644682    0.000000    0.489000
   392  O     c     6.643661   11.075314   -6.644682    0.000000    0.489000
   393  O     c     6.643661   -6.646854    6.644682    0.000000    0.489000
   394  O     c     6.643661   -6.646854   -6.644682    0.000000    0.489000
   395  O     c    11.075314    6.643661    6.644682    0.000000    0.489000
   396  O     c    11.075314    6.643661   -6.644682    0.000000    0.489000
   397  O     c    11.075314   -2.215200    6.644682    0.000000    0.489000
   398  O     c    11.075314   -2.215200   -6.644682    0.000000    0.489000
   399  O     c    -2.215200   11.075314    6.644682    0.000000    0.489000
   400  O     c    -2.215200   11.075314   -6.644682    0.000000    0.489000
   401  O     c    -2.215200   -6.646854    6.644682    0.000000    0.489000
   402  O     c    -2.215200   -6.646854   -6.644682    0.000000    0.489000
   403  O     c    -6.646854    6.643661    6.644682    0.000000    0.489000
   404  O     c    -6.646854    6.643661   -6.644682    0.000000    0.489000
   405  O     c    -6.646854   -2.215200    6.644682    0.000000    0.489000
   406  O     c    -6.646854   -2.215200   -6.644682    0.000000    0.489000
   407  O     c     2.214230    6.648790   11.065605    0.000000    0.489000
   408  O     c     2.214230    6.648790  -11.065605    0.000000    0.489000
   409  O     c     2.214230   -2.220330   11.065605    0.000000    0.489000
   410  O     c     2.214230   -2.220330  -11.065605    0.000000    0.489000
   411  O     c     6.648790    2.214230   11.065605    0.000000    0.489000
   412  O     c     6.648790    2.214230  -11.065605    0.000000    0.489000
   413  O     c    -2.220330    2.214230   11.065605    0.000000    0.489000
   414  O     c    -2.220330    2.214230  -11.065605    0.000000    0.489000
   415  Cl    c     4.439060   13.297911    4.435686    0.000000    0.615000
   416  Cl    c     4.439060   13.297911   -4.435686    0.000000    0.615000
   417  Cl    c     4.439060   -8.869450    4.435686    0.000000    0.615000
   418  Cl    c     4.439060   -8.869450   -4.435686    0.000000    0.615000
   419  Cl    c    13.297911    4.439060    4.435686    0.000000    0.615000
   420  Cl    c    13.297911    4.439060   -4.435686    0.000000    0.615000
   421  Cl    c    13.297911   -0.010599    4.435686    0.000000    0.615000
   422  Cl    c    13.297911   -0.010599   -4.435686    0.000000    0.615000
   423  Cl    c    -0.010599   13.297911    4.435686    0.000000    0.615000
   424  Cl    c    -0.010599   13.297911   -4.435686    0.000000    0.615000
   425  Cl    c    -0.010599   -8.869450    4.435686    0.000000    0.615000
   426  Cl    c    -0.010599   -8.869450   -4.435686    0.000000    0.615000
   427  Cl    c    -8.869450    4.439060    4.435686    0.000000    0.615000
   428  Cl    c    -8.869450    4.439060   -4.435686    0.000000    0.615000
   429  Cl    c    -8.869450   -0.010599    4.435686    0.000000    0.615000
   430  Cl    c    -8.869450   -0.010599   -4.435686    0.000000    0.615000
   431  Na    c     4.427450    6.636669   11.048782    0.000000    0.670000
   432  Na    c     4.427450    6.636669  -11.048782    0.000000    0.670000
   433  Na    c     4.427450   -2.208208   11.048782    0.000000    0.670000
   434  Na    c     4.427450   -2.208208  -11.048782    0.000000    0.670000
   435  Na    c     0.001011    6.636669   11.048782    0.000000    0.670000
   436  Na    c     0.001011    6.636669  -11.048782    0.000000    0.670000
   437  Na    c     0.001011   -2.208208   11.048782    0.000000    0.670000
   438  Na    c     0.001011   -2.208208  -11.048782    0.000000    0.670000
   439  Na    c     6.636669    4.427450   11.048782    0.000000    0.670000
   440  Na    c     6.636669    4.427450  -11.048782    0.000000    0.670000
   441  Na    c     6.636669    0.001011   11.048782    0.000000    0.670000
   442  Na    c     6.636669    0.001011  -11.048782    0.000000    0.670000
   443  Na    c    -2.208208    4.427450   11.048782    0.000000    0.670000
   444  Na    c    -2.208208    4.427450  -11.048782    0.000000    0.670000
   445  Na    c    -2.208208    0.001011   11.048782    0.000000    0.670000
   446  Na    c    -2.208208    0.001011  -11.048782    0.000000    0.670000
   447  Na    c    13.283033    6.640043   -2.197994    0.000000    0.670000
   448  Na    c    13.283033    6.640043    2.197994    0.000000    0.670000
   449  Na    c    13.283033   -2.211583   -2.197994    0.000000    0.670000
   450  Na    c    13.283033   -2.211583    2.197994    0.000000    0.670000
   451  Na    c    -8.854572    6.640043   -2.197994    0.000000    0.670000
   452  Na    c    -8.854572    6.640043    2.197994    0.000000    0.670000
   453  Na    c    -8.854572   -2.211583   -2.197994    0.000000    0.670000
   454  Na    c    -8.854572   -2.211583    2.197994    0.000000    0.670000
   455  Na    c     6.640043   13.283033   -2.197994    0.000000    0.670000
   456  Na    c     6.640043   13.283033    2.197994    0.000000    0.670000
   457  Na    c     6.640043   -8.854572   -2.197994    0.000000    0.670000
   458  Na    c     6.640043   -8.854572    2.197994    0.000000    0.670000
   459  Na    c    -2.211583   13.283033   -2.197994    0.000000    0.670000
   460  Na    c    -2.211583   13.283033    2.197994    0.000000    0.670000
   461  Na    c    -2.211583   -8.854572   -2.197994    0.000000    0.670000
   462  Na    c    -2.211583   -8.854572    2.197994    0.000000    0.670000
   463  Na    c     2.214230   10.916400    8.845146    0.000000    0.670000
   464  Na    c     2.214230   10.916400   -8.845146    0.000000    0.670000
   465  Na    c     2.214230   -6.487939    8.845146    0.000000    0.670000
   466  Na    c     2.214230   -6.487939   -8.845146    0.000000    0.670000
   467  Na    c    10.916400    2.214230    8.845146    0.000000    0.670000
   468  Na    c    10.916400    2.214230   -8.845146    0.000000    0.670000
   469  Na    c    -6.487939    2.214230    8.845146    0.000000    0.670000
   470  Na    c    -6.487939    2.214230   -8.845146    0.000000    0.670000
   471  Na    c    11.063053   11.063053    0.000000    0.000000    0.670000
   472  Na    c    11.063053   -6.634592    0.000000    0.000000    0.670000
   473  Na    c    -6.634592   11.063053    0.000000    0.000000    0.670000
   474  Na    c    -6.634592   -6.634592    0.000000    0.000000    0.670000
   475  O     c    11.071928   11.071928   -2.214858    0.000000    0.489000
   476  O     c    11.071928   11.071928    2.214858    0.000000    0.489000
   477  O     c    11.071928   -6.643467   -2.214858    0.000000    0.489000
   478  O     c    11.071928   -6.643467    2.214858    0.000000    0.489000
   479  O     c    -6.643467   11.071928   -2.214858    0.000000    0.489000
   480  O     c    -6.643467   11.071928    2.214858    0.000000    0.489000
   481  O     c    -6.643467   -6.643467   -2.214858    0.000000    0.489000
   482  O     c    -6.643467   -6.643467    2.214858    0.000000    0.489000
   483  O     c     6.642091    6.642091   11.071249    0.000000    0.489000
   484  O     c     6.642091    6.642091  -11.071249    0.000000    0.489000
   485  O     c     6.642091   -2.213631   11.071249    0.000000    0.489000
   486  O     c     6.642091   -2.213631  -11.071249    0.000000    0.489000
   487  O     c    -2.213631    6.642091   11.071249    0.000000    0.489000
   488  O     c    -2.213631    6.642091  -11.071249    0.000000    0.489000
   489  O     c    -2.213631   -2.213631   11.071249    0.000000    0.489000
   490  O     c    -2.213631   -2.213631  -11.071249    0.000000    0.489000
   491  Cl    c     8.869429    8.869429    8.868283    0.000000    0.615000
   492  Cl    c     8.869429    8.869429   -8.868283    0.000000    0.615000
   493  Cl    c     8.869429   -4.440968    8.868283    0.000000    0.615000
[...]
     59 y         15.499613     15.635124     0.135511    Cartesian    0.87
     59 z          0.000000      0.000000     0.000000    Cartesian    0.00
     60 x          6.642691      6.643595     0.000904    Cartesian    0.01
     60 y         11.071152     11.061685    -0.009467    Cartesian   -0.09
     60 z          8.856922      8.856880    -0.000042    Cartesian   -0.00
     61 x         11.071152     11.069417    -0.001735    Cartesian   -0.02
     61 y         11.071152     11.069417    -0.001735    Cartesian   -0.02
     61 z          4.428461      4.428566     0.000105    Cartesian    0.00
     62 x          2.214230      2.214230     0.000000    Cartesian    0.00
     62 y          2.214230      2.214230     0.000000    Cartesian    0.00
     62 z         13.285383     13.282081    -0.003302    Cartesian   -0.02
     63 x          2.214230      2.214230     0.000000    Cartesian    0.00
     63 y         15.499613     15.488833    -0.010780    Cartesian   -0.07
     63 z         -2.214230     -2.208849     0.005382    Cartesian   -0.24
     64 x          4.428461      4.427452    -0.001009    Cartesian   -0.02
     64 y         15.499613     15.484153    -0.015460    Cartesian   -0.10
     64 z         -2.214230     -2.231113    -0.016883    Cartesian    0.76
     65 x          4.428461      4.431478     0.003017    Cartesian    0.07
     65 y          4.428461      4.431478     0.003017    Cartesian    0.07
     65 z         13.285383     13.301534     0.016152    Cartesian    0.12
     66 x          8.856922      8.863807     0.006885    Cartesian    0.08
     66 y         13.285383     13.296246     0.010863    Cartesian    0.08
     66 z          4.428461      4.432969     0.004509    Cartesian    0.10
     67 x          8.856922      8.856062    -0.000859    Cartesian   -0.01
     67 y          6.642691      6.637174    -0.005518    Cartesian   -0.08
     67 z         11.071152     11.073510     0.002358    Cartesian    0.02
     68 x         13.285383     13.286423     0.001040    Cartesian    0.01
     68 y          6.642691      6.635786    -0.006906    Cartesian   -0.10
     68 z          6.642691      6.649234     0.006543    Cartesian    0.10
     69 x          2.214230      2.214230     0.000000    Cartesian    0.00
     69 y         15.499613     15.383804    -0.115809    Cartesian   -0.75
     69 z          4.428461      4.428583     0.000122    Cartesian    0.00
     70 x          6.642691      6.626118    -0.016573    Cartesian   -0.25
     70 y         15.499613     15.504069     0.004456    Cartesian    0.03
     70 z          0.000000      0.000000     0.000000    Cartesian    0.00
     71 x          2.214230      2.214230     0.000000    Cartesian    0.00
     71 y          6.642691      6.609716    -0.032975    Cartesian   -0.50
     71 z         13.285383     13.283390    -0.001993    Cartesian   -0.02
     72 x          6.642691      6.642376    -0.000315    Cartesian   -0.00
     72 y         15.499613     15.500089     0.000476    Cartesian    0.00
     72 z         -2.214230     -2.214141     0.000089    Cartesian   -0.00
     73 x         11.071152     11.072178     0.001026    Cartesian    0.01
     73 y         11.071152     11.072178     0.001026    Cartesian    0.01
     73 z          6.642691      6.643265     0.000574    Cartesian    0.01
     74 x          2.214230      2.214230     0.000000    Cartesian    0.00
     74 y         11.071152     11.064616    -0.006536    Cartesian   -0.06
     74 z         11.071152     11.064256    -0.006896    Cartesian   -0.06
     75 x          4.428461      4.430394     0.001933    Cartesian    0.04
     75 y         13.285383     13.300293     0.014910    Cartesian    0.11
     75 z          8.856922      8.862382     0.005460    Cartesian    0.06
     76 x          4.428461      4.428022    -0.000439    Cartesian   -0.01
     76 y         11.071152     11.074762     0.003610    Cartesian    0.03
     76 z         11.071152     11.058782    -0.012370    Cartesian   -0.11
     77 x         13.285383     13.283943    -0.001440    Cartesian   -0.01
     77 y         11.071152     11.067197    -0.003955    Cartesian   -0.04
     77 z         -2.214230     -2.215229    -0.000998    Cartesian    0.05
     78 x          6.642691      6.653198     0.010507    Cartesian    0.16
     78 y         15.499613     15.488532    -0.011081    Cartesian   -0.07
     78 z          4.428461      4.427661    -0.000799    Cartesian   -0.02
     79 x          6.642691      6.634234    -0.008457    Cartesian   -0.13
     79 y          6.642691      6.634234    -0.008457    Cartesian   -0.13
     79 z         13.285383     13.283268    -0.002115    Cartesian   -0.02
     80 x          2.214230      2.214230     0.000000    Cartesian    0.00
     80 y         15.499613     15.493917    -0.005696    Cartesian   -0.04
     80 z          6.642691      6.648817     0.006126    Cartesian    0.09
     81 x          6.642691      6.642980     0.000289    Cartesian    0.00
     81 y         11.071152     11.072595     0.001442    Cartesian    0.01
     81 z         11.071152     11.072513     0.001361    Cartesian    0.01
     82 x          8.856922      8.855845    -0.001077    Cartesian   -0.01
     82 y         15.499613     15.492894    -0.006719    Cartesian   -0.04
     82 z         -2.214230     -2.206579     0.007651    Cartesian   -0.35
     83 x          4.428461      4.428409    -0.000052    Cartesian   -0.00
     83 y         15.499613     15.497410    -0.002203    Cartesian   -0.01
     83 z          6.642691      6.624771    -0.017921    Cartesian   -0.27
     84 x          4.428461      4.427260    -0.001201    Cartesian   -0.03
     84 y          8.856922      8.862576     0.005654    Cartesian    0.06
     84 z         13.285383     13.295460     0.010078    Cartesian    0.08
     85 x         11.071152     11.067545    -0.003607    Cartesian   -0.03
     85 y         11.071152     11.067545    -0.003607    Cartesian   -0.03
     85 z          8.856922      8.855846    -0.001076    Cartesian   -0.01
     86 x          6.642691      6.643819     0.001127    Cartesian    0.02
     86 y         15.499613     15.502451     0.002838    Cartesian    0.02
     86 z          6.642691      6.643419     0.000727    Cartesian    0.01
     87 x          2.214230      2.214230     0.000000    Cartesian    0.00
     87 y          2.214230      2.214230     0.000000    Cartesian    0.00
     87 z         15.499613     15.501903     0.002290    Cartesian    0.01
     88 x          4.428461      4.431321     0.002860    Cartesian    0.06
     88 y         17.713843     17.724349     0.010505    Cartesian    0.06
     88 z          0.000000      0.000000     0.000000    Cartesian    0.00
     89 x         17.713843     17.707859    -0.005985    Cartesian   -0.03
     89 y          2.214230      2.214230     0.000000    Cartesian    0.00
     89 z         -2.214230     -2.281777    -0.067547    Cartesian    3.05
     90 x          8.856922      8.863019     0.006098    Cartesian    0.07
     90 y         13.285383     13.297814     0.012431    Cartesian    0.09
     90 z          8.856922      8.865118     0.008196    Cartesian    0.09
     91 x          4.428461      4.427224    -0.001237    Cartesian   -0.03
     91 y          2.214230      2.214230     0.000000    Cartesian    0.00
     91 z         15.499613     15.497298    -0.002315    Cartesian   -0.01
     92 x          8.856922      8.856234    -0.000688    Cartesian   -0.01
     92 y         11.071152     11.065962    -0.005190    Cartesian   -0.05
     92 z         11.071152     11.065568    -0.005585    Cartesian   -0.05
     93 x         13.285383     13.297066     0.011683    Cartesian    0.09
     93 y         13.285383     13.297066     0.011683    Cartesian    0.09
     93 z          0.000000      0.000000     0.000000    Cartesian    0.00
     94 x         13.285383     13.279083    -0.006300    Cartesian   -0.05
     94 y          2.214230      2.214230     0.000000    Cartesian    0.00
     94 z         11.071152     11.006281    -0.064871    Cartesian   -0.59
     95 x         13.285383     13.284611    -0.000771    Cartesian   -0.01
     95 y         11.071152     11.066861    -0.004292    Cartesian   -0.04
     95 z          6.642691      6.640488    -0.002203    Cartesian   -0.03
     96 x          2.214230      2.214230     0.000000    Cartesian    0.00
     96 y         15.499613     15.539992     0.040379    Cartesian    0.26
     96 z          8.856922      8.859721     0.002799    Cartesian    0.03
     97 x         11.071152     11.069196    -0.001956    Cartesian   -0.02
     97 y         15.499613     15.490379    -0.009234    Cartesian   -0.06
     97 z          0.000000      0.000000     0.000000    Cartesian    0.00
     98 x          2.214230      2.214230     0.000000    Cartesian    0.00
     98 y         11.071152     11.105967     0.034815    Cartesian    0.31
     98 z         13.285383     13.281684    -0.003699    Cartesian   -0.03
     99 x          2.214230      2.214230     0.000000    Cartesian    0.00
     99 y          2.214230      2.214230     0.000000    Cartesian    0.00
     99 z         -2.214230     -2.297383    -0.083152    Cartesian    3.76
    100 x          4.428461      4.555193     0.126732    Cartesian    2.86
    100 y          4.428461      4.555193     0.126732    Cartesian    2.86
    100 z          0.000000      0.000000     0.000000    Cartesian    0.00
    101 x          2.214230      2.214230     0.000000    Cartesian    0.00
    101 y          6.642691      6.618864    -0.023827    Cartesian   -0.36
    101 z         -2.214230     -2.200133     0.014097    Cartesian   -0.64
    102 x          4.428461      4.507374     0.078913    Cartesian    1.78
    102 y          4.428461      4.507374     0.078913    Cartesian    1.78
    102 z          4.428461      4.532553     0.104093    Cartesian    2.35
    103 x          6.642691      6.647203     0.004512    Cartesian    0.07
    103 y          6.642691      6.647203     0.004512    Cartesian    0.07
    103 z         -2.214230     -2.221057    -0.006827    Cartesian    0.31
    104 x          2.214230      2.214230     0.000000    Cartesian    0.00
    104 y          2.214230      2.214230     0.000000    Cartesian    0.00
    104 z          6.642691      6.686294     0.043602    Cartesian    0.66
    105 x          4.428461      4.456432     0.027971    Cartesian    0.63
    105 y          8.856922      8.881390     0.024469    Cartesian    0.28
    105 z          0.000000      0.000000     0.000000    Cartesian    0.00
    106 x          2.214230      2.214230     0.000000    Cartesian    0.00
    106 y          6.642691      6.639585    -0.003106    Cartesian   -0.05
    106 z          6.642691      6.619824    -0.022867    Cartesian   -0.34
    107 x          4.428461      4.457913     0.029452    Cartesian    0.67
    107 y          8.856922      8.894059     0.037138    Cartesian    0.42
    107 z          4.428461      4.433915     0.005454    Cartesian    0.12
    108 x          2.214230      2.214230     0.000000    Cartesian    0.00
    108 y         11.071152     11.052201    -0.018951    Cartesian   -0.17
    108 z         -2.214230     -2.212283     0.001948    Cartesian   -0.09
    109 x          6.642691      6.651475     0.008784    Cartesian    0.13
    109 y          6.642691      6.651475     0.008784    Cartesian    0.13
    109 z          6.642691      6.648568     0.005877    Cartesian    0.09
    110 x          4.428461      4.424931    -0.003529    Cartesian   -0.08
    110 y          4.428461      4.424931    -0.003529    Cartesian   -0.08
    110 z          8.856922      8.883961     0.027040    Cartesian    0.31
    111 x          8.856922      8.877101     0.020179    Cartesian    0.23
    111 y          8.856922      8.877101     0.020179    Cartesian    0.23
    111 z          0.000000      0.000000     0.000000    Cartesian    0.00
    112 x          6.642691      6.644278     0.001587    Cartesian    0.02
    112 y         11.071152     11.072239     0.001087    Cartesian    0.01
    112 z         -2.214230     -2.214029     0.000202    Cartesian   -0.01
    113 x          8.856922      8.876468     0.019546    Cartesian    0.22
    113 y          8.856922      8.876468     0.019546    Cartesian    0.22
    113 z          4.428461      4.439663     0.011202    Cartesian    0.25
    114 x          2.214230      2.214230     0.000000    Cartesian    0.00
    114 y         11.071152     11.066519    -0.004633    Cartesian   -0.04
    114 z          6.642691      6.630218    -0.012473    Cartesian   -0.19
    115 x          2.214230      2.214230     0.000000    Cartesian    0.00
    115 y          2.214230      2.214230     0.000000    Cartesian    0.00
    115 z         11.071152     11.076929     0.005777    Cartesian    0.05
    116 x          4.428461      4.442436     0.013975    Cartesian    0.32
    116 y          8.856922      8.866670     0.009748    Cartesian    0.11
    116 z          8.856922      8.876120     0.019198    Cartesian    0.22
    117 x          4.428461      4.442130     0.013669    Cartesian    0.31
    117 y         13.285383     13.301958     0.016575    Cartesian    0.12
    117 z          0.000000      0.000000     0.000000    Cartesian    0.00
    118 x          6.642691      6.643729     0.001038    Cartesian    0.02
    118 y         11.071152     11.075337     0.004184    Cartesian    0.04
    118 z          6.642691      6.644784     0.002093    Cartesian    0.03
    119 x          2.214230      2.214230     0.000000    Cartesian    0.00
    119 y          6.642691      6.649386     0.006695    Cartesian    0.10
    119 z         11.071152     11.066381    -0.004771    Cartesian   -0.04
    120 x          4.428461      4.438760     0.010299    Cartesian    0.23
    120 y         13.285383     13.298225     0.012842    Cartesian    0.10
    120 z          4.428461      4.436084     0.007624    Cartesian    0.17
    121 x         11.071152     11.071991     0.000838    Cartesian    0.01
    121 y         11.071152     11.071991     0.000838    Cartesian    0.01
    121 z         -2.214230     -2.214979    -0.000749    Cartesian    0.03
    122 x          6.642691      6.642069    -0.000622    Cartesian   -0.01
    122 y          6.642691      6.642069    -0.000622    Cartesian   -0.01
    122 z         11.071152     11.071262     0.000110    Cartesian    0.00
    123 x          8.856922      8.869901     0.012980    Cartesian    0.15
    123 y          8.856922      8.869901     0.012980    Cartesian    0.15
    123 z          8.856922      8.868766     0.011844    Cartesian    0.13
    124 x          8.856922      8.866088     0.009167    Cartesian    0.10
    124 y         13.285383     13.298326     0.012943    Cartesian    0.10
    124 z          0.000000      0.000000     0.000000    Cartesian    0.00
    125 x          2.214230      2.214230     0.000000    Cartesian    0.00
    125 y         15.499613     15.489452    -0.010161    Cartesian   -0.07
    125 z         -2.214230     -2.208005     0.006226    Cartesian   -0.28
    126 x          4.428461      4.431683     0.003222    Cartesian    0.07
    126 y          4.428461      4.431683     0.003222    Cartesian    0.07
    126 z         13.285383     13.302428     0.017046    Cartesian    0.13
    127 x          8.856922      8.864107     0.007185    Cartesian    0.08
    127 y         13.285383     13.296668     0.011286    Cartesian    0.08
    127 z          4.428461      4.433174     0.004713    Cartesian    0.11
    128 x          6.642691      6.642421    -0.000271    Cartesian   -0.00
    128 y         15.499613     15.500109     0.000496    Cartesian    0.00
    128 z         -2.214230     -2.214139     0.000091    Cartesian   -0.00
    129 x         11.071152     11.072260     0.001108    Cartesian    0.01
    129 y         11.071152     11.072260     0.001108    Cartesian    0.01
    129 z          6.642691      6.643264     0.000573    Cartesian    0.01
    130 x          2.214230      2.214230     0.000000    Cartesian    0.00
    130 y         11.071152     11.063931    -0.007221    Cartesian   -0.07
    130 z         11.071152     11.064752    -0.006400    Cartesian   -0.06
    131 x          4.428461      4.430097     0.001636    Cartesian    0.04
    131 y         13.285383     13.301064     0.015682    Cartesian    0.12
    131 z          8.856922      8.862378     0.005456    Cartesian    0.06
    132 x          2.214230      2.214230     0.000000    Cartesian    0.00
    132 y         15.499613     15.493657    -0.005956    Cartesian   -0.04
    132 z          6.642691      6.649935     0.007244    Cartesian    0.11
    133 x          6.642691      6.643046     0.000354    Cartesian    0.01
    133 y         11.071152     11.072713     0.001561    Cartesian    0.01
    133 z         11.071152     11.072558     0.001405    Cartesian    0.01
    134 x          4.428461      4.427120    -0.001341    Cartesian   -0.03
    134 y          8.856922      8.862786     0.005864    Cartesian    0.07
    134 z         13.285383     13.295576     0.010194    Cartesian    0.08
    135 x          6.642691      6.643951     0.001260    Cartesian    0.02
    135 y         15.499613     15.502591     0.002978    Cartesian    0.02
    135 z          6.642691      6.643475     0.000783    Cartesian    0.01
    136 x          2.214230      2.214230     0.000000    Cartesian    0.00
    136 y          2.214230      2.214230     0.000000    Cartesian    0.00
    136 z         15.499613     15.502267     0.002654    Cartesian    0.02
    137 x          4.428461      4.431322     0.002862    Cartesian    0.06
    137 y         17.713843     17.724271     0.010428    Cartesian    0.06
    137 z          0.000000      0.000000     0.000000    Cartesian    0.00
    138 x          8.856922      8.863251     0.006329    Cartesian    0.07
    138 y         13.285383     13.298271     0.012889    Cartesian    0.10
    138 z          8.856922      8.865405     0.008483    Cartesian    0.10
    139 x         13.285383     13.297533     0.012150    Cartesian    0.09
    139 y         13.285383     13.297533     0.012150    Cartesian    0.09
    139 z          0.000000      0.000000     0.000000    Cartesian    0.00
--------------------------------------------------------------------------------


  Time to end of optimisation  =       41.9038 seconds


  Peak dynamic memory used =     318.61 MB 


  Timing analysis for GULP :

--------------------------------------------------------------------------------
  Task / Subroutine                                          Time (Seconds)
--------------------------------------------------------------------------------
  Calculation of reciprocal space energy and derivatives          0.0004
  Calculation of reciprocal space energy using symmetry           0.0007
  Calculation of real space energy and derivatives                0.0022
  Calculation of real space energy using symmetry                 0.0072
  Calculation for region 1 energy and derivatives (2-b)          22.2187
  Calculation for region 2a energy                               18.4257
  Calculation for region 2b energy                                0.0003
  Calculation and manipulation of Hessian matrix                  0.8743
  Calculation of matrix inversion                                 0.0433
  Symmetry generation of equivalent positions                     0.0029
--------------------------------------------------------------------------------
  Total CPU time                                                 41.9038
--------------------------------------------------------------------------------


  Dump file written as Na3OCl.grs


  Job Finished at 16:43.53  5th July       2021                               

