********************************************************************************
*                       GENERAL UTILITY LATTICE PROGRAM                        *
*                                 Julian Gale                                  *
*                       Curtin Institute for Computation                       *
*                    School of Molecular and Life Sciences                     *
*                    Curtin University, Western Australia                      *
********************************************************************************
* Version = 5.2.0 * Last modified =  10th September 2020                       *
********************************************************************************
*  optimise     - perform optimisation run                                     *
*  conp         - constant pressure calculation                                *
*  property     - calculate properties for final geometry                      *
*  defect       - perform defect calculation after bulk run                    *
*  compare      - compare initial and final structures                         *
********************************************************************************

  Job Started  at 16:43.09  5th July       2021                               

  Number of CPUs =     1


  Total number of configurations input =      1

********************************************************************************
*  Input for Configuration =   1                                               *
********************************************************************************

  Formula = ClONa3                                                      

  Number of irreducible atoms/shells =       5


  Total number atoms/shells =       7

  Dimensionality = 3               :  Bulk   


  Symmetry :

  Crystal family                   :  Cubic       
  Crystal class  (Groth - 1921)    :  Cubic Hexakisoctahedral              

  Space group (centrosymmetric)    :  P M 3 M         

  Patterson group                  :  P m -3 m 

  Cartesian lattice vectors (Angstroms) :

        4.504000    0.000000    0.000000
        0.000000    4.504000    0.000000
        0.000000    0.000000    4.504000

  Cell parameters (Angstroms/Degrees):

  a =       4.5040    alpha =  90.0000
  b =       4.5040    beta  =  90.0000
  c =       4.5040    gamma =  90.0000

  Initial cell volume =          91.368216 Angs**3

  Temperature of configuration =   0.00     K 

  Pressure of configuration =         0.000 GPa 

  Fractional coordinates of asymmetric unit :

--------------------------------------------------------------------------------
   No.  Atomic       x           y          z         Charge      Occupancy
        Label      (Frac)      (Frac)     (Frac)        (e)         (Frac)  
--------------------------------------------------------------------------------
      1 Cl    c    0.000000    0.000000    0.000000     0.61500    1.000000    
      2 O     c    0.500000    0.500000    0.500000     0.48900    1.000000    
      3 Na    c    0.500000    0.500000    0.000000     0.67000    1.000000    
      4 Cl    s    0.000000    0.000000    0.000000    -1.28500    1.000000    
      5 O     s    0.500000    0.500000    0.500000    -1.82900    1.000000    
--------------------------------------------------------------------------------


  Constraints : 

--------------------------------------------------------------------------------
  Constraint no.      Unconstrained     Constrained    Coefficient    Offset
                         Variable         Variable
--------------------------------------------------------------------------------
           1              Strain 1        Strain 2       1.00000      0.0000
           2              Strain 1        Strain 3       1.00000      0.0000
--------------------------------------------------------------------------------


********************************************************************************
*  General input information                                                   *
********************************************************************************

  Species output for all configurations : 

--------------------------------------------------------------------------------
  Species    Type    Atomic    Atomic    Charge       Radii (Angs)     Library
                     Number     Mass       (e)     Cova   Ionic  VDW   Symbol
--------------------------------------------------------------------------------
    Na       Core       11      22.99   0.670000   0.970  0.000  2.300          
    O        Core        8      16.00   0.489000   0.730  0.000  1.360          
    O        Shell       8       0.00  -1.829000   0.730  0.000  1.360          
    Cl       Core       17      35.45   0.615000   0.990  0.000  1.650          
    Cl       Shell      17       0.00  -1.285000   0.990  0.000  1.650          
--------------------------------------------------------------------------------


  Lattice summation method               =    Ewald          (3-D)
                                         =    Parry          (2-D)
                                         =    Saunders et al (1-D)
  Accuracy factor for lattice sums       =   12.000


  Analytic derivatives to be used

  Time limit = Infinity

  Maximum range for interatomic potentials =    100000.000000 Angstroms

  General interatomic potentials :

--------------------------------------------------------------------------------
Atom  Types   Potential      Parameter       Value         Units   Cutoffs(Ang)
  1     2                                                            Min /  Max 
--------------------------------------------------------------------------------
O    c O    s Spring (c-s)  Spring k 2       34.450000    eV*Ang^-2 0.000  0.800
                            Spring k 4       0.0000000    eV*Ang^-4 
--------------------------------------------------------------------------------
Cl   c Cl   s Spring (c-s)  Spring k 2       28.250000    eV*Ang^-2 0.000  0.800
                            Spring k 4       0.0000000    eV*Ang^-4 
--------------------------------------------------------------------------------
Na   c Na   c Buckingham    Buckingham A     996.28210    eV        0.000 12.000
                            Buckingham rho  0.28830000    Ang       
                            Buckingham C     0.0000000    eV*Ang^6  
--------------------------------------------------------------------------------
Na   c O    s Buckingham    Buckingham A     12439.222    eV        0.000 12.000
                            Buckingham rho  0.20150000    Ang       
                            Buckingham C     0.0000000    eV*Ang^6  
--------------------------------------------------------------------------------
Na   c Cl   s Buckingham    Buckingham A     20907.738    eV        0.000 12.000
                            Buckingham rho  0.21660000    Ang       
                            Buckingham C     0.0000000    eV*Ang^6  
--------------------------------------------------------------------------------
O    s O    s Buckingham    Buckingham A     35546.853    eV        0.000 12.000
                            Buckingham rho  0.12056000    Ang       
                            Buckingham C     13.190000    eV*Ang^6  
--------------------------------------------------------------------------------
O    s Cl   s Buckingham    Buckingham A     47777.071    eV        0.000 12.000
                            Buckingham rho  0.24370000    Ang       
                            Buckingham C     62.200000    eV*Ang^6  
--------------------------------------------------------------------------------
Cl   s Cl   s Buckingham    Buckingham A     35155.254    eV        0.000 12.000
                            Buckingham rho  0.21360000    Ang       
                            Buckingham C     14.530000    eV*Ang^6  
--------------------------------------------------------------------------------

********************************************************************************
*  Output for configuration   1                                                *
********************************************************************************


  Components of energy : 

--------------------------------------------------------------------------------
  Interatomic potentials     =           1.21745275 eV    
  Monopole - monopole (real) =          -4.50527050 eV    
  Monopole - monopole (recip)=         -13.25862634 eV    
  Monopole - monopole (total)=         -17.76389683 eV    
--------------------------------------------------------------------------------
  Total lattice energy       =         -16.54644409 eV    
--------------------------------------------------------------------------------
  Total lattice energy       =           -1596.4789 kJ/(mole unit cells)
--------------------------------------------------------------------------------


  Number of variables =        1

  Maximum number of calculations  =          1000
  Maximum Hessian update interval =            10
  Maximum step size               =   1.000000000
  Maximum parameter tolerance     =   0.000010000
  Maximum function  tolerance     =   0.000010000
  Maximum gradient  tolerance     =   0.001000000
  Maximum gradient  component     =   0.010000000

  Symmetry constrained optimisation

  Symmetry used for second derivatives

  Cell parameters to be optimised using strains

  Newton-Raphson optimiser to be used

  BFGS hessian update to be used

  Lower half triangular hessian to be used

  Start of bulk optimisation :

  Cycle:      0 Energy:       -16.546444  Gnorm:      2.744113  CPU:    0.014
  ** Hessian calculated **
  Cycle:      1 Energy:       -16.570356  Gnorm:      0.030142  CPU:    0.016
  Cycle:      2 Energy:       -16.570358  Gnorm:      0.003103  CPU:    0.018


  **** Optimisation achieved ****


  Final energy =     -16.57035847 eV
  Final Gnorm  =       0.00000012

  Components of energy : 

--------------------------------------------------------------------------------
  Interatomic potentials     =           1.49654868 eV    
  Monopole - monopole (real) =          -4.58211982 eV    
  Monopole - monopole (recip)=         -13.48478733 eV    
  Monopole - monopole (total)=         -18.06690714 eV    
--------------------------------------------------------------------------------
  Total lattice energy       =         -16.57035847 eV    
--------------------------------------------------------------------------------
  Total lattice energy       =           -1598.7863 kJ/(mole unit cells)
--------------------------------------------------------------------------------

  Final asymmetric unit coordinates :

--------------------------------------------------------------------------------
   No.  Atomic        x           y           z         Radius
        Label       (Frac)      (Frac)      (Frac)       (Angs) 
--------------------------------------------------------------------------------
     1  Cl    c     0.000000    0.000000    0.000000    0.000000
     2  O     c     0.500000    0.500000    0.500000    0.000000
     3  Na    c     0.500000    0.500000    0.000000    0.000000
     4  Cl    s     0.000000    0.000000    0.000000    0.000000
     5  O     s     0.500000    0.500000    0.500000    0.000000
--------------------------------------------------------------------------------

  Final Cartesian lattice vectors (Angstroms) :

        4.428461    0.000000    0.000000
        0.000000    4.428461    0.000000
        0.000000    0.000000    4.428461


  Final cell parameters and derivatives :

--------------------------------------------------------------------------------
       a            4.428461 Angstrom     dE/de1(xx)     0.000000 eV/strain
       b            4.428461 Angstrom     dE/de2(yy)     0.000000 eV/strain
       c            4.428461 Angstrom     dE/de3(zz)     0.000000 eV/strain
       alpha       90.000000 Degrees      dE/de4(yz)     0.000000 eV/strain
       beta        90.000000 Degrees      dE/de5(xz)     0.000000 eV/strain
       gamma       90.000000 Degrees      dE/de6(xy)     0.000000 eV/strain
--------------------------------------------------------------------------------

  Primitive cell volume =            86.847723 Angs**3

  Density of cell =      2.302482 g/cm**3

  Non-primitive cell volume =            86.847723 Angs**3


  Final internal derivatives :

--------------------------------------------------------------------------------
   No.  Atomic          a             b             c           Radius
        Label          (eV)          (eV)          (eV)        (eV/Angs)
--------------------------------------------------------------------------------
      1 Cl    c       0.000000      0.000000      0.000000      0.000000
      2 O     c       0.000000      0.000000      0.000000      0.000000
      3 Na    c       0.000000      0.000000      0.000000      0.000000
      4 Cl    s       0.000000      0.000000      0.000000      0.000000
      5 O     s       0.000000      0.000000      0.000000      0.000000
--------------------------------------------------------------------------------
  Maximum abs         0.000000      0.000000      0.000000      0.000000
--------------------------------------------------------------------------------

  Comparison of initial and final structures : 

--------------------------------------------------------------------------------
  Parameter   Initial value   Final value   Difference    Units      Percent
--------------------------------------------------------------------------------
    Volume        91.368216     86.847723    -4.520493    Angs**3     -4.95
    a              4.504000      4.428461    -0.075539    Angstroms   -1.68
    b              4.504000      4.428461    -0.075539    Angstroms   -1.68
    c              4.504000      4.428461    -0.075539    Angstroms   -1.68
    alpha         90.000000     90.000000     0.000000    Degrees      0.00
    beta          90.000000     90.000000     0.000000    Degrees      0.00
    gamma         90.000000     90.000000     0.000000    Degrees      0.00
      1 x          0.000000      0.000000     0.000000    Fractional   0.00
      1 y          0.000000      0.000000     0.000000    Fractional   0.00
      1 z          0.000000      0.000000     0.000000    Fractional   0.00
      2 x          0.500000      0.500000     0.000000    Fractional   0.00
      2 y          0.500000      0.500000     0.000000    Fractional   0.00
      2 z          0.500000      0.500000     0.000000    Fractional   0.00
      3 x          0.500000      0.500000     0.000000    Fractional   0.00
      3 y          0.500000      0.500000     0.000000    Fractional   0.00
      3 z          0.000000      0.000000     0.000000    Fractional   0.00
      4 x          0.000000      0.000000     0.000000    Fractional   0.00
      4 y          0.000000      0.000000     0.000000    Fractional   0.00
      4 z          0.000000      0.000000     0.000000    Fractional   0.00
      5 x          0.500000      0.500000     0.000000    Fractional   0.00
      5 y          0.500000      0.500000     0.000000    Fractional   0.00
      5 z          0.500000      0.500000     0.000000    Fractional   0.00
--------------------------------------------------------------------------------


  Born effective charge tensors : 

-------------------------------------------------------------------------------
  Atom             x           y             z
-------------------------------------------------------------------------------
    1 Cl    x      -0.6995     -0.0000     -0.0000
            y      -0.0000     -0.6995     -0.0000
            z      -0.0000     -0.0000     -0.6995
-------------------------------------------------------------------------------
    2 O     x      -1.0805      0.0000      0.0000
            y       0.0000     -1.0805      0.0000
            z       0.0000      0.0000     -1.0805
-------------------------------------------------------------------------------
    3 Na    x       0.6486      0.0000     -0.0000
            y       0.0000      0.6486      0.0000
            z      -0.0000      0.0000      0.4827
-------------------------------------------------------------------------------




  Elastic Constant Matrix: (Units=GPa)

-------------------------------------------------------------------------------
  Indices      1         2         3         4         5         6    
-------------------------------------------------------------------------------
       1     77.0757   16.0262   16.0262   -0.0000   -0.0000   -0.0000
       2     16.0262   77.0757   16.0262   -0.0000   -0.0000    0.0000
       3     16.0262   16.0262   77.0757    0.0000    0.0000    0.0000
       4     -0.0000   -0.0000    0.0000   16.0262    0.0000   -0.0000
       5     -0.0000   -0.0000    0.0000    0.0000   16.0262   -0.0000
       6     -0.0000    0.0000    0.0000   -0.0000   -0.0000   16.0262
-------------------------------------------------------------------------------


  Elastic Compliance Matrix: (Units=1/GPa)

-------------------------------------------------------------------------------
  Indices      1         2         3         4         5         6    
-------------------------------------------------------------------------------
       1    0.013975 -0.002406 -0.002406  0.000000  0.000000  0.000000
       2   -0.002406  0.013975 -0.002406  0.000000  0.000000 -0.000000
       3   -0.002406 -0.002406  0.013975 -0.000000 -0.000000 -0.000000
       4    0.000000  0.000000 -0.000000  0.062398 -0.000000  0.000000
       5    0.000000  0.000000 -0.000000 -0.000000  0.062398  0.000000
       6    0.000000 -0.000000 -0.000000  0.000000  0.000000  0.062398
-------------------------------------------------------------------------------

  Mechanical properties :

-------------------------------------------------------------------------------
  Convention :                    Reuss         Voigt         Hill
-------------------------------------------------------------------------------
  Bulk  Modulus (GPa)     =      36.37603      36.37603      36.37603
  Shear Modulus (GPa)     =      19.78520      21.82562      20.80541
-------------------------------------------------------------------------------
  Velocity S-wave (km/s)  =       2.93138       3.07883       3.00601
  Velocity P-wave (km/s)  =       5.22072       5.33268       5.27700
-------------------------------------------------------------------------------
  Compressibility (1/GPa) =    0.02749063
-------------------------------------------------------------------------------
  Stress axis :                     x             y             z
-------------------------------------------------------------------------------
  Youngs Moduli (GPa)     =      71.55833      71.55833      71.55833
-------------------------------------------------------------------------------
  Poissons Ratio (x)      =                     0.17214       0.17214
  Poissons Ratio (y)      =       0.17214                     0.17214
  Poissons Ratio (z)      =       0.17214       0.17214
-------------------------------------------------------------------------------


  Piezoelectric Strain Matrix: (Units=C/m**2)

-------------------------------------------------------------------------------
  Indices      1         2         3         4         5         6    
-------------------------------------------------------------------------------
       x    -0.00000  -0.00000  -0.00000  -0.00000  -0.00000   0.00000
       y     0.00000   0.00000   0.00000  -0.00000  -0.00000  -0.00000
       z     0.00000   0.00000  -0.00000   0.00000  -0.00000  -0.00000
-------------------------------------------------------------------------------


  Piezoelectric Stress Matrix: (Units=10**-11 C/N)

-------------------------------------------------------------------------------
  Indices      1         2         3         4         5         6    
-------------------------------------------------------------------------------
       x    -0.00000  -0.00000  -0.00000  -0.00000  -0.00000   0.00000
       y     0.00000   0.00000   0.00000  -0.00000  -0.00000  -0.00000
       z     0.00000   0.00000  -0.00000   0.00000  -0.00000  -0.00000
-------------------------------------------------------------------------------


  Static dielectric constant tensor : 

-------------------------------------------------------------------------------
              x         y         z
-------------------------------------------------------------------------------
       x     5.77918   0.00000   0.00000
       y     0.00000   5.77918   0.00000
       z     0.00000   0.00000   5.77918
--------------------------------------------------------------------------------

  High frequency dielectric constant tensor : 

-------------------------------------------------------------------------------
              x         y         z
-------------------------------------------------------------------------------
       x     1.30980  -0.00000  -0.00000
       y    -0.00000   1.30980  -0.00000
       z    -0.00000  -0.00000   1.30980
-------------------------------------------------------------------------------

  Static refractive indices : 

-------------------------------------------------------------------------------
    1 =    2.40399      2 =    2.40399      3 =    2.40399
-------------------------------------------------------------------------------

  High frequency refractive indices : 

-------------------------------------------------------------------------------
    1 =    1.14447      2 =    1.14447      3 =    1.14447
-------------------------------------------------------------------------------


  Time to end of optimisation =       0.0228 seconds

********************************************************************************
*  Defect calculation for configuration   1 :                                  *
********************************************************************************

  Total number of defects =      1

  Total charge on defect  =   0.67

  Defect centre is at   0.5000   0.0000   0.0000  Frac

  Region 1 radius =  16.0000      Number of ions =   1369

  Number of symmetry inequivalent region 1 ions  =    135

  Region 2 radius =  24.0000      Number of ions =   3344

  Number of symmetry inequivalent region 2a ions =    266

  Region 2a mode = 4 : screened electrostatics due to region 1 
                       neglect correction to region 1 forces from 2a
                       region 2a displacements based on defects only

  Region 2a ions will only interact with defects in region 1

  Interstitials:

--------------------------------------------------------------------------------
    Specification type     Symbol/Number         x          y          z
--------------------------------------------------------------------------------
    Atom/Fractional         Na               0.500000   0.000000   0.000000
--------------------------------------------------------------------------------


  Symmetry reduced region 1 (Relative to defect centre) :

--------------------------------------------------------------------------------
   No.   Atomic       x            y             z       Radius  Multiplicity   
         Label      (Angs)       (Angs)        (Angs)    (Angs)     
--------------------------------------------------------------------------------
     1  Na    c      0.0000       0.0000       0.0000    0.0000     1    Defect
     2  Cl    c      2.2142 *     0.0000       0.0000    0.0000     2          
     3  Na    c      0.0000      -2.2142 *     0.0000    0.0000     4          
     4  O     c      0.0000      -2.2142 *    -2.2142    0.0000     4          
     5  Na    c      2.2142 *    -2.2142 *    -2.2142    0.0000     8          
     6  Cl    c      2.2142 *     0.0000       4.4285 *  0.0000     8          
     7  Na    c      0.0000      -2.2142 *     4.4285 *  0.0000     8          
     8  Na    c      4.4285 *    -2.2142 *     0.0000    0.0000     8          
     9  O     c      4.4285 *    -2.2142 *    -2.2142    0.0000     8          
    10  Cl    c      2.2142 *     4.4285 *     4.4285    0.0000     8          
    11  Na    c      4.4285 *    -2.2142 *     4.4285 *  0.0000    16          
    12  Cl    c      6.6427 *     0.0000       0.0000    0.0000     2          
    13  Na    c      0.0000       6.6427 *     0.0000    0.0000     4          
    14  O     c      0.0000      -2.2142 *     6.6427 *  0.0000     8          
    15  Na    c      2.2142 *    -2.2142 *     6.6427 *  0.0000    16          
    16  Na    c      6.6427 *    -2.2142 *    -2.2142    0.0000     8          
    17  Cl    c      6.6427 *     0.0000       4.4285 *  0.0000     8          
    18  Na    c      0.0000       6.6427 *     4.4285 *  0.0000     8          
    19  Na    c      4.4285 *     6.6427 *     0.0000    0.0000     8          
    20  O     c      4.4285 *    -2.2142 *     6.6427 *  0.0000    16          
    21  Cl    c      2.2142 *     0.0000       8.8569 *  0.0000     8          
    22  Na    c      0.0000      -2.2142 *     8.8569 *  0.0000     8          
    23  Na    c      8.8569 *    -2.2142 *     0.0000    0.0000     8          
    24  Cl    c      6.6427 *     4.4285 *     4.4285    0.0000     8          
    25  Na    c      4.4285 *     6.6427 *     4.4285 *  0.0000    16          
    26  O     c      8.8569 *    -2.2142 *    -2.2142    0.0000     8          
    27  O     c      0.0000       6.6427 *     6.6427    0.0000     4          
    28  Na    c      2.2142 *     6.6427 *     6.6427    0.0000     8          
    29  Na    c      6.6427 *    -2.2142 *     6.6427 *  0.0000    16          
    30  Cl    c      2.2142 *     4.4285 *     8.8569 *  0.0000    16          
    31  Na    c      4.4285 *    -2.2142 *     8.8569 *  0.0000    16          
    32  Na    c      8.8569 *    -2.2142 *     4.4285 *  0.0000    16          
    33  O     c      4.4285 *     6.6427 *     6.6427    0.0000     8          
    34  Cl    c      6.6427 *     0.0000       8.8569 *  0.0000     8          
    35  Na    c      0.0000       6.6427 *     8.8569 *  0.0000     8          
    36  Na    c      8.8569 *     6.6427 *     0.0000    0.0000     8          
    37  Cl    c     11.0712 *     0.0000       0.0000    0.0000     2          
    38  Na    c      0.0000      11.0712 *     0.0000    0.0000     4          
    39  O     c      8.8569 *    -2.2142 *     6.6427 *  0.0000    16          
    40  O     c      0.0000      -2.2142 *    11.0712 *  0.0000     8          
    41  Na    c      2.2142 *    -2.2142 *    11.0712 *  0.0000    16          
    42  Na    c      6.6427 *     6.6427 *     6.6427    0.0000     8          
    43  Na    c     11.0712 *    -2.2142 *    -2.2142    0.0000     8          
    44  Cl    c      6.6427 *     4.4285 *     8.8569 *  0.0000    16          
    45  Na    c      4.4285 *     6.6427 *     8.8569 *  0.0000    16          
    46  Na    c      8.8569 *     6.6427 *     4.4285 *  0.0000    16          
    47  Cl    c     11.0712 *     0.0000       4.4285 *  0.0000     8          
    48  Na    c      0.0000      11.0712 *     4.4285 *  0.0000     8          
    49  Na    c      4.4285 *    11.0712 *     0.0000    0.0000     8          
    50  O     c      4.4285 *    -2.2142 *    11.0712 *  0.0000    16          
    51  Cl    c      2.2142 *     8.8569 *     8.8569    0.0000     8          
    52  Na    c      8.8569 *    -2.2142 *     8.8569 *  0.0000    16          
    53  Cl    c     11.0712 *     4.4285 *     4.4285    0.0000     8          
    54  Na    c      4.4285 *    11.0712 *     4.4285 *  0.0000    16          
    55  O     c      0.0000       6.6427 *    11.0712 *  0.0000     8          
    56  O     c      8.8569 *     6.6427 *     6.6427    0.0000     8          
    57  Na    c      6.6427 *    11.0712 *    -2.2142 *  0.0000    16          
    58  Na    c     11.0712 *     6.6427 *    -2.2142 *  0.0000    16          
    59  Na    c      2.2142 *     6.6427 *    11.0712 *  0.0000    16          
    60  Na    c     13.2854 *    -2.2142 *     0.0000    0.0000     8          
    61  Cl    c      2.2142 *     0.0000      13.2854 *  0.0000     8          
    62  Na    c      0.0000      -2.2142 *    13.2854 *  0.0000     8          
    63  O     c     13.2854 *    -2.2142 *    -2.2142    0.0000     8          
    64  O     c      4.4285 *     6.6427 *    11.0712 *  0.0000    16          
    65  Na    c     13.2854 *    -2.2142 *     4.4285 *  0.0000    16          
    66  Cl    c      6.6427 *     8.8569 *     8.8569    0.0000     8          
    67  Na    c      8.8569 *     6.6427 *     8.8569 *  0.0000    16          
    68  Cl    c      2.2142 *     4.4285 *    13.2854 *  0.0000    16          
    69  Cl    c     11.0712 *     0.0000       8.8569 *  0.0000     8          
    70  Na    c      0.0000      11.0712 *     8.8569 *  0.0000     8          
    71  Na    c      4.4285 *    -2.2142 *    13.2854 *  0.0000    16          
    72  Na    c      8.8569 *    11.0712 *     0.0000    0.0000     8          
    73  O     c      8.8569 *    -2.2142 *    11.0712 *  0.0000    16          
    74  Na    c      6.6427 *     6.6427 *    11.0712 *  0.0000    16          
    75  Na    c     11.0712 *     6.6427 *     6.6427    0.0000     8          
    76  Na    c     13.2854 *     6.6427 *     0.0000    0.0000     8          
    77  Cl    c      6.6427 *     0.0000      13.2854 *  0.0000     8          
    78  Cl    c     11.0712 *     4.4285 *     8.8569 *  0.0000    16          
    79  Na    c      0.0000       6.6427 *    13.2854 *  0.0000     8          
    80  Na    c      4.4285 *    11.0712 *     8.8569 *  0.0000    16          
    81  Na    c      8.8569 *    11.0712 *     4.4285 *  0.0000    16          
    82  O     c     13.2854 *     6.6427 *    -2.2142 *  0.0000    16          
    83  Cl    c     15.4996 *     0.0000       0.0000    0.0000     2          
    84  Na    c     13.2854 *     6.6427 *     4.4285 *  0.0000    16          
    85  Cl    c      6.6427 *     4.4285 *    13.2854 *  0.0000    16          
    86  Na    c      0.0000      15.4996 *     0.0000    0.0000     4          
    87  Na    c      4.4285 *     6.6427 *    13.2854 *  0.0000    16          
    88  O     c      0.0000      -2.2142 *    15.4996 *  0.0000     8          
    89  O     c      8.8569 *     6.6427 *    11.0712 *  0.0000    16          
    90  O     c      0.0000      11.0712 *    11.0712    0.0000     4          
    91  Na    c     15.4996 *    -2.2142 *    -2.2142    0.0000     8          
    92  Na    c      2.2142 *    15.4996 *    -2.2142 *  0.0000    16          
    93  Na    c      2.2142 *    11.0712 *    11.0712    0.0000     8          
    94  Na    c     11.0712 *    -2.2142 *    11.0712 *  0.0000    16          
    95  Cl    s      2.2142 *     0.0000       0.0000    0.0000     2          
    96  O     s      0.0000      -2.2142 *    -2.2142    0.0000     4          
    97  Cl    s      2.2142 *     0.0000       4.4285 *  0.0000     8          
    98  O     s      4.4285 *    -2.2142 *    -2.2142    0.0000     8          
    99  Cl    s      2.2142 *     4.4285 *     4.4285    0.0000     8          
   100  Cl    s      6.6427 *     0.0000       0.0000    0.0000     2          
   101  O     s      0.0000      -2.2142 *     6.6427 *  0.0000     8          
   102  Cl    s      6.6427 *     0.0000       4.4285 *  0.0000     8          
   103  O     s      4.4285 *    -2.2142 *     6.6427 *  0.0000    16          
   104  Cl    s      2.2142 *     0.0000       8.8569 *  0.0000     8          
   105  Cl    s      6.6427 *     4.4285 *     4.4285    0.0000     8          
   106  O     s      8.8569 *    -2.2142 *    -2.2142    0.0000     8          
   107  O     s      0.0000       6.6427 *     6.6427    0.0000     4          
   108  Cl    s      2.2142 *     4.4285 *     8.8569 *  0.0000    16          
   109  O     s      4.4285 *     6.6427 *     6.6427    0.0000     8          
   110  Cl    s      6.6427 *     0.0000       8.8569 *  0.0000     8          
   111  Cl    s     11.0712 *     0.0000       0.0000    0.0000     2          
   112  O     s      8.8569 *    -2.2142 *     6.6427 *  0.0000    16          
   113  O     s      0.0000      -2.2142 *    11.0712 *  0.0000     8          
   114  Cl    s      6.6427 *     4.4285 *     8.8569 *  0.0000    16          
   115  Cl    s     11.0712 *     0.0000       4.4285 *  0.0000     8          
   116  O     s      4.4285 *    -2.2142 *    11.0712 *  0.0000    16          
   117  Cl    s      2.2142 *     8.8569 *     8.8569    0.0000     8          
   118  Cl    s     11.0712 *     4.4285 *     4.4285    0.0000     8          
   119  O     s      0.0000       6.6427 *    11.0712 *  0.0000     8          
   120  O     s      8.8569 *     6.6427 *     6.6427    0.0000     8          
   121  Cl    s      2.2142 *     0.0000      13.2854 *  0.0000     8          
   122  O     s     13.2854 *    -2.2142 *    -2.2142    0.0000     8          
   123  O     s      4.4285 *     6.6427 *    11.0712 *  0.0000    16          
   124  Cl    s      6.6427 *     8.8569 *     8.8569    0.0000     8          
   125  Cl    s      2.2142 *     4.4285 *    13.2854 *  0.0000    16          
   126  Cl    s     11.0712 *     0.0000       8.8569 *  0.0000     8          
   127  O     s      8.8569 *    -2.2142 *    11.0712 *  0.0000    16          
   128  Cl    s      6.6427 *     0.0000      13.2854 *  0.0000     8          
   129  Cl    s     11.0712 *     4.4285 *     8.8569 *  0.0000    16          
   130  O     s     13.2854 *     6.6427 *    -2.2142 *  0.0000    16          
   131  Cl    s     15.4996 *     0.0000       0.0000    0.0000     2          
   132  Cl    s      6.6427 *     4.4285 *    13.2854 *  0.0000    16          
   133  O     s      0.0000      -2.2142 *    15.4996 *  0.0000     8          
   134  O     s      8.8569 *     6.6427 *    11.0712 *  0.0000    16          
   135  O     s      0.0000      11.0712 *    11.0712    0.0000     4          
--------------------------------------------------------------------------------


  Constraints on symmetry reduced coordinates :

--------------------------------------------------------------------------------
  Constraint no.      Unconstrained     Constrained    Coefficient    
                         Variable         Variable
--------------------------------------------------------------------------------
           1                 4 y             4 z         1.00000
           2                 5 y             5 z         1.00000
           3                 9 y             9 z         1.00000
           4                10 y            10 z         1.00000
           5                16 y            16 z         1.00000
           6                24 y            24 z         1.00000
           7                26 y            26 z         1.00000
           8                27 y            27 z         1.00000
           9                28 y            28 z         1.00000
          10                33 y            33 z         1.00000
          11                42 y            42 z         1.00000
          12                43 y            43 z         1.00000
          13                51 y            51 z         1.00000
          14                53 y            53 z         1.00000
          15                56 y            56 z         1.00000
          16                63 y            63 z         1.00000
          17                66 y            66 z         1.00000
          18                75 y            75 z         1.00000
          19                90 y            90 z         1.00000
          20                91 y            91 z         1.00000
          21                93 y            93 z         1.00000
          22                96 y            96 z         1.00000
          23                98 y            98 z         1.00000
          24                99 y            99 z         1.00000
          25               105 y           105 z         1.00000
          26               106 y           106 z         1.00000
          27               107 y           107 z         1.00000
          28               109 y           109 z         1.00000
          29               117 y           117 z         1.00000
          30               118 y           118 z         1.00000
          31               120 y           120 z         1.00000
          32               122 y           122 z         1.00000
          33               124 y           124 z         1.00000
          34               135 y           135 z         1.00000
--------------------------------------------------------------------------------


  Components of defect energy : 

--------------------------------------------------------------------------------
  Region 1 - region 1                   =      7.01750836 eV
  Region 1 - region 2a (unrelaxed)      =     -3.24483827 eV
  Region 1 - 2a (relaxed - correction)  =     -0.11430585 eV
  Region 1 (Total)                      =      3.65836424 eV
  Region 2a                             =      0.05715991 eV
  Region 2b                             =     -0.11074622 eV
--------------------------------------------------------------------------------
  Total defect energy                   =      3.60477793 eV
--------------------------------------------------------------------------------

  Largest displacement in region 2 =   0.0098 Angstroms


  Number of variables =      298

  Maximum number of calculations  =        1000
  Maximum Hessian update interval =          10
  Maximum step size               =   1.0000000
  Maximum parameter tolerance     =   0.0000100
  Maximum function  tolerance     =   0.0000100
  Maximum gradient  tolerance     =   0.0010000

  Symmetry adapted optimisation

  Symmetry to be used for second derivatives

  Newton-Raphson optimiser to be used

  BFGS hessian update to be used

  Lower half triangular hessian to be used

  Start of defect optimisation :

  Cycle:      0 Defect Energy:   3.604778  Gnorm:     0.071481  CPU:    4.634
  ** Hessian calculated **
  Cycle:      1 Defect Energy:   0.512260  Gnorm:     0.020908  CPU:   10.371
  Cycle:      2 Defect Energy:   0.060378  Gnorm:     0.012368  CPU:   18.494
  ** Hessian calculated **
  Cycle:      3 Defect Energy:  -0.158346  Gnorm:     0.008838  CPU:   21.301
  Cycle:      4 Defect Energy:  -0.278429  Gnorm:     0.006419  CPU:   22.461
  Cycle:      5 Defect Energy:  -0.349622  Gnorm:     0.004641  CPU:   23.732
  Cycle:      6 Defect Energy:  -0.390853  Gnorm:     0.003349  CPU:   24.848
  Cycle:      7 Defect Energy:  -0.414488  Gnorm:     0.002411  CPU:   26.004
  Cycle:      8 Defect Energy:  -0.427944  Gnorm:     0.001732  CPU:   27.020
  Cycle:      9 Defect Energy:  -0.435575  Gnorm:     0.001242  CPU:   28.098
  Cycle:     10 Defect Energy:  -0.439892  Gnorm:     0.000889  CPU:   29.270
  Cycle:     11 Defect Energy:  -0.442329  Gnorm:     0.000634  CPU:   30.320
  Cycle:     12 Defect Energy:  -0.443701  Gnorm:     0.000451  CPU:   31.367
  ** Hessian calculated **
  Cycle:     13 Defect Energy:  -0.444507  Gnorm:     0.000319  CPU:   33.956
  Cycle:     14 Defect Energy:  -0.444922  Gnorm:     0.000228  CPU:   34.968
  Cycle:     15 Defect Energy:  -0.445144  Gnorm:     0.000162  CPU:   35.963
  Cycle:     16 Defect Energy:  -0.445259  Gnorm:     0.000114  CPU:   36.823
  Cycle:     17 Defect Energy:  -0.445317  Gnorm:     0.000081  CPU:   37.356
  Cycle:     18 Defect Energy:  -0.445346  Gnorm:     0.000057  CPU:   37.888
  Cycle:     19 Defect Energy:  -0.445360  Gnorm:     0.000040  CPU:   38.431


  **** Optimisation achieved ****


  Final defect energy  =       -0.44536610
  Final defect Gnorm   =        0.00002818

  Components of defect energy : 

--------------------------------------------------------------------------------
  Region 1 - region 1                   =      2.22936725 eV
  Region 1 - region 2a (unrelaxed)      =     -2.51222701 eV
  Region 1 - 2a (relaxed - correction)  =     -0.10350196 eV
  Region 1 (Total)                      =     -0.38636171 eV
  Region 2a                             =      0.05174183 eV
  Region 2b                             =     -0.11074622 eV
--------------------------------------------------------------------------------
  Total defect energy                   =     -0.44536610 eV
--------------------------------------------------------------------------------

  Largest displacement in region 2 =   0.0098 Angstroms

  Final coordinates of region 1 :

--------------------------------------------------------------------------------
   No.  Atomic        x           y           z          Radius      Charge
        Label       (Angs)      (Angs)      (Angs)       (Angs)       (e) 
--------------------------------------------------------------------------------
     1  Na    c     2.214230    0.000000    0.000000    0.000000    0.670000
     2  Cl    c     4.806277    0.000000    0.000000    0.000000    0.615000
     3  Cl    c    -0.377816    0.000000    0.000000    0.000000    0.615000
     4  Na    c     2.214230   -2.796013    0.000000    0.000000    0.670000
     5  Na    c     2.214230    2.796013    0.000000    0.000000    0.670000
     6  Na    c     2.214230    0.000000   -2.796013    0.000000    0.670000
     7  Na    c     2.214230    0.000000    2.796013    0.000000    0.670000
     8  O     c     2.214230   -2.115685   -2.115685    0.000000    0.489000
     9  O     c     2.214230   -2.115685    2.115685    0.000000    0.489000
    10  O     c     2.214230    2.115685   -2.115685    0.000000    0.489000
    11  O     c     2.214230    2.115685    2.115685    0.000000    0.489000
    12  Na    c     4.460705   -2.125270   -2.125270    0.000000    0.670000
    13  Na    c     4.460705   -2.125270    2.125270    0.000000    0.670000
    14  Na    c     4.460705    2.125270   -2.125270    0.000000    0.670000
    15  Na    c     4.460705    2.125270    2.125270    0.000000    0.670000
    16  Na    c    -0.032244   -2.125270   -2.125270    0.000000    0.670000
    17  Na    c    -0.032244   -2.125270    2.125270    0.000000    0.670000
    18  Na    c    -0.032244    2.125270   -2.125270    0.000000    0.670000
    19  Na    c    -0.032244    2.125270    2.125270    0.000000    0.670000
    20  Cl    c     4.420553    0.000000    4.440372    0.000000    0.615000
    21  Cl    c     4.420553    0.000000   -4.440372    0.000000    0.615000
    22  Cl    c     4.420553    4.440372    0.000000    0.000000    0.615000
    23  Cl    c     4.420553   -4.440372    0.000000    0.000000    0.615000
    24  Cl    c     0.007908    0.000000    4.440372    0.000000    0.615000
    25  Cl    c     0.007908    0.000000   -4.440372    0.000000    0.615000
    26  Cl    c     0.007908    4.440372    0.000000    0.000000    0.615000
    27  Cl    c     0.007908   -4.440372    0.000000    0.000000    0.615000
    28  Na    c     2.214230   -2.373254    4.434423    0.000000    0.670000
    29  Na    c     2.214230   -2.373254   -4.434423    0.000000    0.670000
    30  Na    c     2.214230    2.373254    4.434423    0.000000    0.670000
    31  Na    c     2.214230    2.373254   -4.434423    0.000000    0.670000
    32  Na    c     2.214230    4.434423   -2.373254    0.000000    0.670000
    33  Na    c     2.214230    4.434423    2.373254    0.000000    0.670000
    34  Na    c     2.214230   -4.434423   -2.373254    0.000000    0.670000
    35  Na    c     2.214230   -4.434423    2.373254    0.000000    0.670000
    36  Na    c     6.823425   -2.197546    0.000000    0.000000    0.670000
    37  Na    c     6.823425    2.197546    0.000000    0.000000    0.670000
    38  Na    c    -2.394965   -2.197546    0.000000    0.000000    0.670000
    39  Na    c    -2.394965    2.197546    0.000000    0.000000    0.670000
    40  Na    c     6.823425    0.000000   -2.197546    0.000000    0.670000
    41  Na    c     6.823425    0.000000    2.197546    0.000000    0.670000
    42  Na    c    -2.394965    0.000000   -2.197546    0.000000    0.670000
    43  Na    c    -2.394965    0.000000    2.197546    0.000000    0.670000
    44  O     c     6.666294   -2.219820   -2.219820    0.000000    0.489000
    45  O     c     6.666294   -2.219820    2.219820    0.000000    0.489000
    46  O     c     6.666294    2.219820   -2.219820    0.000000    0.489000
    47  O     c     6.666294    2.219820    2.219820    0.000000    0.489000
    48  O     c    -2.237833   -2.219820   -2.219820    0.000000    0.489000
    49  O     c    -2.237833   -2.219820    2.219820    0.000000    0.489000
    50  O     c    -2.237833    2.219820   -2.219820    0.000000    0.489000
    51  O     c    -2.237833    2.219820    2.219820    0.000000    0.489000
    52  Cl    c     4.362087    4.361307    4.361307    0.000000    0.615000
    53  Cl    c     4.362087    4.361307   -4.361307    0.000000    0.615000
    54  Cl    c     4.362087   -4.361307    4.361307    0.000000    0.615000
    55  Cl    c     4.362087   -4.361307   -4.361307    0.000000    0.615000
    56  Cl    c     0.066374    4.361307    4.361307    0.000000    0.615000
    57  Cl    c     0.066374    4.361307   -4.361307    0.000000    0.615000
    58  Cl    c     0.066374   -4.361307    4.361307    0.000000    0.615000
    59  Cl    c     0.066374   -4.361307   -4.361307    0.000000    0.615000
    60  Na    c     6.568053   -2.201910    4.430699    0.000000    0.670000
    61  Na    c     6.568053   -2.201910   -4.430699    0.000000    0.670000
    62  Na    c     6.568053    2.201910    4.430699    0.000000    0.670000
    63  Na    c     6.568053    2.201910   -4.430699    0.000000    0.670000
    64  Na    c    -2.139592   -2.201910    4.430699    0.000000    0.670000
    65  Na    c    -2.139592   -2.201910   -4.430699    0.000000    0.670000
    66  Na    c    -2.139592    2.201910    4.430699    0.000000    0.670000
    67  Na    c    -2.139592    2.201910   -4.430699    0.000000    0.670000
    68  Na    c     6.568053    4.430699   -2.201910    0.000000    0.670000
    69  Na    c     6.568053    4.430699    2.201910    0.000000    0.670000
    70  Na    c     6.568053   -4.430699   -2.201910    0.000000    0.670000
    71  Na    c     6.568053   -4.430699    2.201910    0.000000    0.670000
    72  Na    c    -2.139592    4.430699   -2.201910    0.000000    0.670000
    73  Na    c    -2.139592    4.430699    2.201910    0.000000    0.670000
    74  Na    c    -2.139592   -4.430699   -2.201910    0.000000    0.670000
    75  Na    c    -2.139592   -4.430699    2.201910    0.000000    0.670000
    76  Cl    c     8.885478    0.000000    0.000000    0.000000    0.615000
    77  Cl    c    -4.457017    0.000000    0.000000    0.000000    0.615000
    78  Na    c     2.214230    6.609953    0.000000    0.000000    0.670000
    79  Na    c     2.214230   -6.609953    0.000000    0.000000    0.670000
    80  Na    c     2.214230    0.000000    6.609953    0.000000    0.670000
    81  Na    c     2.214230    0.000000   -6.609953    0.000000    0.670000
    82  O     c     2.214230   -2.218214    6.633433    0.000000    0.489000
    83  O     c     2.214230   -2.218214   -6.633433    0.000000    0.489000
    84  O     c     2.214230    2.218214    6.633433    0.000000    0.489000
    85  O     c     2.214230    2.218214   -6.633433    0.000000    0.489000
    86  O     c     2.214230    6.633433   -2.218214    0.000000    0.489000
    87  O     c     2.214230    6.633433    2.218214    0.000000    0.489000
    88  O     c     2.214230   -6.633433   -2.218214    0.000000    0.489000
    89  O     c     2.214230   -6.633433    2.218214    0.000000    0.489000
    90  Na    c     4.430885   -2.215515    6.700454    0.000000    0.670000
    91  Na    c     4.430885   -2.215515   -6.700454    0.000000    0.670000
    92  Na    c     4.430885    2.215515    6.700454    0.000000    0.670000
    93  Na    c     4.430885    2.215515   -6.700454    0.000000    0.670000
    94  Na    c     4.430885    6.700454   -2.215515    0.000000    0.670000
    95  Na    c     4.430885    6.700454    2.215515    0.000000    0.670000
    96  Na    c     4.430885   -6.700454   -2.215515    0.000000    0.670000
    97  Na    c     4.430885   -6.700454    2.215515    0.000000    0.670000
    98  Na    c    -0.002424   -2.215515    6.700454    0.000000    0.670000
    99  Na    c    -0.002424   -2.215515   -6.700454    0.000000    0.670000
   100  Na    c    -0.002424    2.215515    6.700454    0.000000    0.670000
   101  Na    c    -0.002424    2.215515   -6.700454    0.000000    0.670000
   102  Na    c    -0.002424    6.700454   -2.215515    0.000000    0.670000
   103  Na    c    -0.002424    6.700454    2.215515    0.000000    0.670000
   104  Na    c    -0.002424   -6.700454   -2.215515    0.000000    0.670000
   105  Na    c    -0.002424   -6.700454    2.215515    0.000000    0.670000
   106  Na    c     8.876444   -2.355847   -2.355847    0.000000    0.670000
   107  Na    c     8.876444   -2.355847    2.355847    0.000000    0.670000
   108  Na    c     8.876444    2.355847   -2.355847    0.000000    0.670000
   109  Na    c     8.876444    2.355847    2.355847    0.000000    0.670000
   110  Na    c    -4.447983   -2.355847   -2.355847    0.000000    0.670000
   111  Na    c    -4.447983   -2.355847    2.355847    0.000000    0.670000
   112  Na    c    -4.447983    2.355847   -2.355847    0.000000    0.670000
   113  Na    c    -4.447983    2.355847    2.355847    0.000000    0.670000
   114  Cl    c     8.844419    0.000000    4.425241    0.000000    0.615000
   115  Cl    c     8.844419    0.000000   -4.425241    0.000000    0.615000
   116  Cl    c     8.844419    4.425241    0.000000    0.000000    0.615000
   117  Cl    c     8.844419   -4.425241    0.000000    0.000000    0.615000
   118  Cl    c    -4.415958    0.000000    4.425241    0.000000    0.615000
   119  Cl    c    -4.415958    0.000000   -4.425241    0.000000    0.615000
   120  Cl    c    -4.415958    4.425241    0.000000    0.000000    0.615000
   121  Cl    c    -4.415958   -4.425241    0.000000    0.000000    0.615000
   122  Na    c     2.214230    6.719726    4.439529    0.000000    0.670000
   123  Na    c     2.214230    6.719726   -4.439529    0.000000    0.670000
   124  Na    c     2.214230   -6.719726    4.439529    0.000000    0.670000
   125  Na    c     2.214230   -6.719726   -4.439529    0.000000    0.670000
   126  Na    c     2.214230    4.439529    6.719726    0.000000    0.670000
   127  Na    c     2.214230    4.439529   -6.719726    0.000000    0.670000
   128  Na    c     2.214230   -4.439529    6.719726    0.000000    0.670000
   129  Na    c     2.214230   -4.439529   -6.719726    0.000000    0.670000
   130  Na    c     6.656081    6.673292    0.000000    0.000000    0.670000
   131  Na    c     6.656081   -6.673292    0.000000    0.000000    0.670000
   132  Na    c    -2.227620    6.673292    0.000000    0.000000    0.670000
   133  Na    c    -2.227620   -6.673292    0.000000    0.000000    0.670000
   134  Na    c     6.656081    0.000000    6.673292    0.000000    0.670000
   135  Na    c     6.656081    0.000000   -6.673292    0.000000    0.670000
   136  Na    c    -2.227620    0.000000    6.673292    0.000000    0.670000
   137  Na    c    -2.227620    0.000000   -6.673292    0.000000    0.670000
   138  O     c     6.642355   -2.214667    6.639245    0.000000    0.489000
   139  O     c     6.642355   -2.214667   -6.639245    0.000000    0.489000
   140  O     c     6.642355    2.214667    6.639245    0.000000    0.489000
   141  O     c     6.642355    2.214667   -6.639245    0.000000    0.489000
   142  O     c     6.642355    6.639245   -2.214667    0.000000    0.489000
   143  O     c     6.642355    6.639245    2.214667    0.000000    0.489000
   144  O     c     6.642355   -6.639245   -2.214667    0.000000    0.489000
   145  O     c     6.642355   -6.639245    2.214667    0.000000    0.489000
   146  O     c    -2.213894   -2.214667    6.639245    0.000000    0.489000
   147  O     c    -2.213894   -2.214667   -6.639245    0.000000    0.489000
   148  O     c    -2.213894    2.214667    6.639245    0.000000    0.489000
   149  O     c    -2.213894    2.214667   -6.639245    0.000000    0.489000
   150  O     c    -2.213894    6.639245   -2.214667    0.000000    0.489000
   151  O     c    -2.213894    6.639245    2.214667    0.000000    0.489000
   152  O     c    -2.213894   -6.639245   -2.214667    0.000000    0.489000
   153  O     c    -2.213894   -6.639245    2.214667    0.000000    0.489000
   154  Cl    c     4.408545    0.000000    8.828201    0.000000    0.615000
   155  Cl    c     4.408545    0.000000   -8.828201    0.000000    0.615000
   156  Cl    c     4.408545    8.828201    0.000000    0.000000    0.615000
   157  Cl    c     4.408545   -8.828201    0.000000    0.000000    0.615000
   158  Cl    c     0.019916    0.000000    8.828201    0.000000    0.615000
   159  Cl    c     0.019916    0.000000   -8.828201    0.000000    0.615000
   160  Cl    c     0.019916    8.828201    0.000000    0.000000    0.615000
   161  Cl    c     0.019916   -8.828201    0.000000    0.000000    0.615000
   162  Na    c     2.214230   -2.166094    8.858396    0.000000    0.670000
   163  Na    c     2.214230   -2.166094   -8.858396    0.000000    0.670000
   164  Na    c     2.214230    2.166094    8.858396    0.000000    0.670000
   165  Na    c     2.214230    2.166094   -8.858396    0.000000    0.670000
   166  Na    c     2.214230    8.858396   -2.166094    0.000000    0.670000
   167  Na    c     2.214230    8.858396    2.166094    0.000000    0.670000
   168  Na    c     2.214230   -8.858396   -2.166094    0.000000    0.670000
   169  Na    c     2.214230   -8.858396    2.166094    0.000000    0.670000
   170  Na    c    10.958900   -2.212673    0.000000    0.000000    0.670000
   171  Na    c    10.958900    2.212673    0.000000    0.000000    0.670000
   172  Na    c    -6.530439   -2.212673    0.000000    0.000000    0.670000
   173  Na    c    -6.530439    2.212673    0.000000    0.000000    0.670000
   174  Na    c    10.958900    0.000000   -2.212673    0.000000    0.670000
   175  Na    c    10.958900    0.000000    2.212673    0.000000    0.670000
   176  Na    c    -6.530439    0.000000   -2.212673    0.000000    0.670000
   177  Na    c    -6.530439    0.000000    2.212673    0.000000    0.670000
   178  Cl    c     8.835064    4.440707    4.440707    0.000000    0.615000
   179  Cl    c     8.835064    4.440707   -4.440707    0.000000    0.615000
   180  Cl    c     8.835064   -4.440707    4.440707    0.000000    0.615000
   181  Cl    c     8.835064   -4.440707   -4.440707    0.000000    0.615000
   182  Cl    c    -4.406603    4.440707    4.440707    0.000000    0.615000
   183  Cl    c    -4.406603    4.440707   -4.440707    0.000000    0.615000
   184  Cl    c    -4.406603   -4.440707    4.440707    0.000000    0.615000
   185  Cl    c    -4.406603   -4.440707   -4.440707    0.000000    0.615000
   186  Na    c     6.670676    6.650958    4.428794    0.000000    0.670000
   187  Na    c     6.670676    6.650958   -4.428794    0.000000    0.670000
   188  Na    c     6.670676   -6.650958    4.428794    0.000000    0.670000
   189  Na    c     6.670676   -6.650958   -4.428794    0.000000    0.670000
   190  Na    c    -2.242215    6.650958    4.428794    0.000000    0.670000
   191  Na    c    -2.242215    6.650958   -4.428794    0.000000    0.670000
   192  Na    c    -2.242215   -6.650958    4.428794    0.000000    0.670000
   193  Na    c    -2.242215   -6.650958   -4.428794    0.000000    0.670000
   194  Na    c     6.670676    4.428794    6.650958    0.000000    0.670000
   195  Na    c     6.670676    4.428794   -6.650958    0.000000    0.670000
   196  Na    c     6.670676   -4.428794    6.650958    0.000000    0.670000
   197  Na    c     6.670676   -4.428794   -6.650958    0.000000    0.670000
   198  Na    c    -2.242215    4.428794    6.650958    0.000000    0.670000
   199  Na    c    -2.242215    4.428794   -6.650958    0.000000    0.670000
   200  Na    c    -2.242215   -4.428794    6.650958    0.000000    0.670000
   201  Na    c    -2.242215   -4.428794   -6.650958    0.000000    0.670000
   202  O     c    11.077398   -2.216097   -2.216097    0.000000    0.489000
   203  O     c    11.077398   -2.216097    2.216097    0.000000    0.489000
   204  O     c    11.077398    2.216097   -2.216097    0.000000    0.489000
   205  O     c    11.077398    2.216097    2.216097    0.000000    0.489000
   206  O     c    -6.648937   -2.216097   -2.216097    0.000000    0.489000
   207  O     c    -6.648937   -2.216097    2.216097    0.000000    0.489000
   208  O     c    -6.648937    2.216097   -2.216097    0.000000    0.489000
   209  O     c    -6.648937    2.216097    2.216097    0.000000    0.489000
   210  O     c     2.214230    6.648291    6.648291    0.000000    0.489000
   211  O     c     2.214230    6.648291   -6.648291    0.000000    0.489000
   212  O     c     2.214230   -6.648291    6.648291    0.000000    0.489000
   213  O     c     2.214230   -6.648291   -6.648291    0.000000    0.489000
   214  Na    c     4.428547    6.649458    6.649458    0.000000    0.670000
   215  Na    c     4.428547    6.649458   -6.649458    0.000000    0.670000
   216  Na    c     4.428547   -6.649458    6.649458    0.000000    0.670000
   217  Na    c     4.428547   -6.649458   -6.649458    0.000000    0.670000
   218  Na    c    -0.000086    6.649458    6.649458    0.000000    0.670000
   219  Na    c    -0.000086    6.649458   -6.649458    0.000000    0.670000
   220  Na    c    -0.000086   -6.649458    6.649458    0.000000    0.670000
   221  Na    c    -0.000086   -6.649458   -6.649458    0.000000    0.670000
   222  Na    c     8.861942   -2.207824    6.555860    0.000000    0.670000
   223  Na    c     8.861942   -2.207824   -6.555860    0.000000    0.670000
   224  Na    c     8.861942    2.207824    6.555860    0.000000    0.670000
   225  Na    c     8.861942    2.207824   -6.555860    0.000000    0.670000
   226  Na    c     8.861942    6.555860   -2.207824    0.000000    0.670000
   227  Na    c     8.861942    6.555860    2.207824    0.000000    0.670000
   228  Na    c     8.861942   -6.555860   -2.207824    0.000000    0.670000
   229  Na    c     8.861942   -6.555860    2.207824    0.000000    0.670000
   230  Na    c    -4.433481   -2.207824    6.555860    0.000000    0.670000
   231  Na    c    -4.433481   -2.207824   -6.555860    0.000000    0.670000
   232  Na    c    -4.433481    2.207824    6.555860    0.000000    0.670000
   233  Na    c    -4.433481    2.207824   -6.555860    0.000000    0.670000
   234  Na    c    -4.433481    6.555860   -2.207824    0.000000    0.670000
   235  Na    c    -4.433481    6.555860    2.207824    0.000000    0.670000
   236  Na    c    -4.433481   -6.555860   -2.207824    0.000000    0.670000
   237  Na    c    -4.433481   -6.555860    2.207824    0.000000    0.670000
   238  Cl    c     4.415131    4.421590    8.834716    0.000000    0.615000
   239  Cl    c     4.415131    4.421590   -8.834716    0.000000    0.615000
   240  Cl    c     4.415131    8.834716    4.421590    0.000000    0.615000
   241  Cl    c     4.415131    8.834716   -4.421590    0.000000    0.615000
   242  Cl    c     4.415131   -4.421590    8.834716    0.000000    0.615000
   243  Cl    c     4.415131   -4.421590   -8.834716    0.000000    0.615000
   244  Cl    c     4.415131   -8.834716    4.421590    0.000000    0.615000
   245  Cl    c     4.415131   -8.834716   -4.421590    0.000000    0.615000
   246  Cl    c     0.013330    4.421590    8.834716    0.000000    0.615000
   247  Cl    c     0.013330    4.421590   -8.834716    0.000000    0.615000
   248  Cl    c     0.013330    8.834716    4.421590    0.000000    0.615000
   249  Cl    c     0.013330    8.834716   -4.421590    0.000000    0.615000
   250  Cl    c     0.013330   -4.421590    8.834716    0.000000    0.615000
   251  Cl    c     0.013330   -4.421590   -8.834716    0.000000    0.615000
   252  Cl    c     0.013330   -8.834716    4.421590    0.000000    0.615000
   253  Cl    c     0.013330   -8.834716   -4.421590    0.000000    0.615000
   254  Na    c     6.707599   -2.228828    8.856272    0.000000    0.670000
   255  Na    c     6.707599   -2.228828   -8.856272    0.000000    0.670000
   256  Na    c     6.707599    2.228828    8.856272    0.000000    0.670000
   257  Na    c     6.707599    2.228828   -8.856272    0.000000    0.670000
   258  Na    c    -2.279138   -2.228828    8.856272    0.000000    0.670000
   259  Na    c    -2.279138   -2.228828   -8.856272    0.000000    0.670000
   260  Na    c    -2.279138    2.228828    8.856272    0.000000    0.670000
   261  Na    c    -2.279138    2.228828   -8.856272    0.000000    0.670000
   262  Na    c     6.707599    8.856272   -2.228828    0.000000    0.670000
   263  Na    c     6.707599    8.856272    2.228828    0.000000    0.670000
   264  Na    c     6.707599   -8.856272   -2.228828    0.000000    0.670000
   265  Na    c     6.707599   -8.856272    2.228828    0.000000    0.670000
   266  Na    c    -2.279138    8.856272   -2.228828    0.000000    0.670000
   267  Na    c    -2.279138    8.856272    2.228828    0.000000    0.670000
   268  Na    c    -2.279138   -8.856272   -2.228828    0.000000    0.670000
   269  Na    c    -2.279138   -8.856272    2.228828    0.000000    0.670000
   270  Na    c    11.204702   -2.204803    4.428398    0.000000    0.670000
   271  Na    c    11.204702   -2.204803   -4.428398    0.000000    0.670000
   272  Na    c    11.204702    2.204803    4.428398    0.000000    0.670000
   273  Na    c    11.204702    2.204803   -4.428398    0.000000    0.670000
   274  Na    c    -6.776241   -2.204803    4.428398    0.000000    0.670000
   275  Na    c    -6.776241   -2.204803   -4.428398    0.000000    0.670000
   276  Na    c    -6.776241    2.204803    4.428398    0.000000    0.670000
   277  Na    c    -6.776241    2.204803   -4.428398    0.000000    0.670000
   278  Na    c    11.204702    4.428398   -2.204803    0.000000    0.670000
   279  Na    c    11.204702    4.428398    2.204803    0.000000    0.670000
   280  Na    c    11.204702   -4.428398   -2.204803    0.000000    0.670000
   281  Na    c    11.204702   -4.428398    2.204803    0.000000    0.670000
   282  Na    c    -6.776241    4.428398   -2.204803    0.000000    0.670000
   283  Na    c    -6.776241    4.428398    2.204803    0.000000    0.670000
   284  Na    c    -6.776241   -4.428398   -2.204803    0.000000    0.670000
   285  Na    c    -6.776241   -4.428398    2.204803    0.000000    0.670000
   286  O     c     6.638313    6.640500    6.640500    0.000000    0.489000
   287  O     c     6.638313    6.640500   -6.640500    0.000000    0.489000
   288  O     c     6.638313   -6.640500    6.640500    0.000000    0.489000
   289  O     c     6.638313   -6.640500   -6.640500    0.000000    0.489000
   290  O     c    -2.209852    6.640500    6.640500    0.000000    0.489000
   291  O     c    -2.209852    6.640500   -6.640500    0.000000    0.489000
   292  O     c    -2.209852   -6.640500    6.640500    0.000000    0.489000
   293  O     c    -2.209852   -6.640500   -6.640500    0.000000    0.489000
   294  Cl    c     8.844178    0.000000    8.845092    0.000000    0.615000
   295  Cl    c     8.844178    0.000000   -8.845092    0.000000    0.615000
   296  Cl    c     8.844178    8.845092    0.000000    0.000000    0.615000
   297  Cl    c     8.844178   -8.845092    0.000000    0.000000    0.615000
   298  Cl    c    -4.415717    0.000000    8.845092    0.000000    0.615000
   299  Cl    c    -4.415717    0.000000   -8.845092    0.000000    0.615000
   300  Cl    c    -4.415717    8.845092    0.000000    0.000000    0.615000
   301  Cl    c    -4.415717   -8.845092    0.000000    0.000000    0.615000
   302  Na    c     2.214230    6.675464    8.865907    0.000000    0.670000
   303  Na    c     2.214230    6.675464   -8.865907    0.000000    0.670000
   304  Na    c     2.214230   -6.675464    8.865907    0.000000    0.670000
   305  Na    c     2.214230   -6.675464   -8.865907    0.000000    0.670000
   306  Na    c     2.214230    8.865907    6.675464    0.000000    0.670000
   307  Na    c     2.214230    8.865907   -6.675464    0.000000    0.670000
   308  Na    c     2.214230   -8.865907    6.675464    0.000000    0.670000
   309  Na    c     2.214230   -8.865907   -6.675464    0.000000    0.670000
   310  Na    c    11.076907    6.658022    0.000000    0.000000    0.670000
   311  Na    c    11.076907   -6.658022    0.000000    0.000000    0.670000
   312  Na    c    -6.648446    6.658022    0.000000    0.000000    0.670000
   313  Na    c    -6.648446   -6.658022    0.000000    0.000000    0.670000
   314  Na    c    11.076907    0.000000    6.658022    0.000000    0.670000
   315  Na    c    11.076907    0.000000   -6.658022    0.000000    0.670000
   316  Na    c    -6.648446    0.000000    6.658022    0.000000    0.670000
   317  Na    c    -6.648446    0.000000   -6.658022    0.000000    0.670000
   318  Cl    c    13.276135    0.000000    0.000000    0.000000    0.615000
   319  Cl    c    -8.847674    0.000000    0.000000    0.000000    0.615000
   320  Na    c     2.214230   11.124666    0.000000    0.000000    0.670000
   321  Na    c     2.214230  -11.124666    0.000000    0.000000    0.670000
   322  Na    c     2.214230    0.000000   11.124666    0.000000    0.670000
   323  Na    c     2.214230    0.000000  -11.124666    0.000000    0.670000
   324  O     c    11.073216   -2.213906    6.639055    0.000000    0.489000
   325  O     c    11.073216   -2.213906   -6.639055    0.000000    0.489000
   326  O     c    11.073216    2.213906    6.639055    0.000000    0.489000
   327  O     c    11.073216    2.213906   -6.639055    0.000000    0.489000
   328  O     c    -6.644755   -2.213906    6.639055    0.000000    0.489000
   329  O     c    -6.644755   -2.213906   -6.639055    0.000000    0.489000
   330  O     c    -6.644755    2.213906    6.639055    0.000000    0.489000
   331  O     c    -6.644755    2.213906   -6.639055    0.000000    0.489000
   332  O     c    11.073216    6.639055   -2.213906    0.000000    0.489000
   333  O     c    11.073216    6.639055    2.213906    0.000000    0.489000
   334  O     c    11.073216   -6.639055   -2.213906    0.000000    0.489000
   335  O     c    11.073216   -6.639055    2.213906    0.000000    0.489000
   336  O     c    -6.644755    6.639055   -2.213906    0.000000    0.489000
   337  O     c    -6.644755    6.639055    2.213906    0.000000    0.489000
   338  O     c    -6.644755   -6.639055   -2.213906    0.000000    0.489000
   339  O     c    -6.644755   -6.639055    2.213906    0.000000    0.489000
   340  O     c     2.214230   -2.213686   11.067104    0.000000    0.489000
   341  O     c     2.214230   -2.213686  -11.067104    0.000000    0.489000
   342  O     c     2.214230    2.213686   11.067104    0.000000    0.489000
   343  O     c     2.214230    2.213686  -11.067104    0.000000    0.489000
   344  O     c     2.214230   11.067104   -2.213686    0.000000    0.489000
   345  O     c     2.214230   11.067104    2.213686    0.000000    0.489000
   346  O     c     2.214230  -11.067104   -2.213686    0.000000    0.489000
   347  O     c     2.214230  -11.067104    2.213686    0.000000    0.489000
   348  Na    c     4.429754   -2.225495   11.055649    0.000000    0.670000
   349  Na    c     4.429754   -2.225495  -11.055649    0.000000    0.670000
   350  Na    c     4.429754    2.225495   11.055649    0.000000    0.670000
   351  Na    c     4.429754    2.225495  -11.055649    0.000000    0.670000
   352  Na    c     4.429754   11.055649   -2.225495    0.000000    0.670000
   353  Na    c     4.429754   11.055649    2.225495    0.000000    0.670000
   354  Na    c     4.429754  -11.055649   -2.225495    0.000000    0.670000
   355  Na    c     4.429754  -11.055649    2.225495    0.000000    0.670000
   356  Na    c    -0.001293   -2.225495   11.055649    0.000000    0.670000
   357  Na    c    -0.001293   -2.225495  -11.055649    0.000000    0.670000
   358  Na    c    -0.001293    2.225495   11.055649    0.000000    0.670000
   359  Na    c    -0.001293    2.225495  -11.055649    0.000000    0.670000
   360  Na    c    -0.001293   11.055649   -2.225495    0.000000    0.670000
   361  Na    c    -0.001293   11.055649    2.225495    0.000000    0.670000
   362  Na    c    -0.001293  -11.055649   -2.225495    0.000000    0.670000
   363  Na    c    -0.001293  -11.055649    2.225495    0.000000    0.670000
   364  Na    c     8.857302    6.660204    6.660204    0.000000    0.670000
   365  Na    c     8.857302    6.660204   -6.660204    0.000000    0.670000
   366  Na    c     8.857302   -6.660204    6.660204    0.000000    0.670000
   367  Na    c     8.857302   -6.660204   -6.660204    0.000000    0.670000
   368  Na    c    -4.428842    6.660204    6.660204    0.000000    0.670000
   369  Na    c    -4.428842    6.660204   -6.660204    0.000000    0.670000
   370  Na    c    -4.428842   -6.660204    6.660204    0.000000    0.670000
   371  Na    c    -4.428842   -6.660204   -6.660204    0.000000    0.670000
   372  Na    c    13.292205   -2.107515   -2.107515    0.000000    0.670000
   373  Na    c    13.292205   -2.107515    2.107515    0.000000    0.670000
   374  Na    c    13.292205    2.107515   -2.107515    0.000000    0.670000
   375  Na    c    13.292205    2.107515    2.107515    0.000000    0.670000
   376  Na    c    -8.863744   -2.107515   -2.107515    0.000000    0.670000
   377  Na    c    -8.863744   -2.107515    2.107515    0.000000    0.670000
   378  Na    c    -8.863744    2.107515   -2.107515    0.000000    0.670000
   379  Na    c    -8.863744    2.107515    2.107515    0.000000    0.670000
   380  Cl    c     8.843899    4.427769    8.846398    0.000000    0.615000
   381  Cl    c     8.843899    4.427769   -8.846398    0.000000    0.615000
   382  Cl    c     8.843899    8.846398    4.427769    0.000000    0.615000
   383  Cl    c     8.843899    8.846398   -4.427769    0.000000    0.615000
   384  Cl    c     8.843899   -4.427769    8.846398    0.000000    0.615000
   385  Cl    c     8.843899   -4.427769   -8.846398    0.000000    0.615000
   386  Cl    c     8.843899   -8.846398    4.427769    0.000000    0.615000
   387  Cl    c     8.843899   -8.846398   -4.427769    0.000000    0.615000
   388  Cl    c    -4.415439    4.427769    8.846398    0.000000    0.615000
   389  Cl    c    -4.415439    4.427769   -8.846398    0.000000    0.615000
   390  Cl    c    -4.415439    8.846398    4.427769    0.000000    0.615000
   391  Cl    c    -4.415439    8.846398   -4.427769    0.000000    0.615000
   392  Cl    c    -4.415439   -4.427769    8.846398    0.000000    0.615000
   393  Cl    c    -4.415439   -4.427769   -8.846398    0.000000    0.615000
   394  Cl    c    -4.415439   -8.846398    4.427769    0.000000    0.615000
   395  Cl    c    -4.415439   -8.846398   -4.427769    0.000000    0.615000
   396  Na    c     6.636987    6.645489    8.858624    0.000000    0.670000
   397  Na    c     6.636987    6.645489   -8.858624    0.000000    0.670000
   398  Na    c     6.636987   -6.645489    8.858624    0.000000    0.670000
   399  Na    c     6.636987   -6.645489   -8.858624    0.000000    0.670000
   400  Na    c    -2.208526    6.645489    8.858624    0.000000    0.670000
   401  Na    c    -2.208526    6.645489   -8.858624    0.000000    0.670000
   402  Na    c    -2.208526   -6.645489    8.858624    0.000000    0.670000
   403  Na    c    -2.208526   -6.645489   -8.858624    0.000000    0.670000
   404  Na    c     6.636987    8.858624    6.645489    0.000000    0.670000
   405  Na    c     6.636987    8.858624   -6.645489    0.000000    0.670000
   406  Na    c     6.636987   -8.858624    6.645489    0.000000    0.670000
   407  Na    c     6.636987   -8.858624   -6.645489    0.000000    0.670000
   408  Na    c    -2.208526    8.858624    6.645489    0.000000    0.670000
   409  Na    c    -2.208526    8.858624   -6.645489    0.000000    0.670000
   410  Na    c    -2.208526   -8.858624    6.645489    0.000000    0.670000
   411  Na    c    -2.208526   -8.858624   -6.645489    0.000000    0.670000
   412  Na    c    11.063007    6.640180    4.428895    0.000000    0.670000
   413  Na    c    11.063007    6.640180   -4.428895    0.000000    0.670000
   414  Na    c    11.063007   -6.640180    4.428895    0.000000    0.670000
   415  Na    c    11.063007   -6.640180   -4.428895    0.000000    0.670000
   416  Na    c    -6.634546    6.640180    4.428895    0.000000    0.670000
   417  Na    c    -6.634546    6.640180   -4.428895    0.000000    0.670000
   418  Na    c    -6.634546   -6.640180    4.428895    0.000000    0.670000
   419  Na    c    -6.634546   -6.640180   -4.428895    0.000000    0.670000
   420  Na    c    11.063007    4.428895    6.640180    0.000000    0.670000
   421  Na    c    11.063007    4.428895   -6.640180    0.000000    0.670000
   422  Na    c    11.063007   -4.428895    6.640180    0.000000    0.670000
   423  Na    c    11.063007   -4.428895   -6.640180    0.000000    0.670000
   424  Na    c    -6.634546    4.428895    6.640180    0.000000    0.670000
   425  Na    c    -6.634546    4.428895   -6.640180    0.000000    0.670000
   426  Na    c    -6.634546   -4.428895    6.640180    0.000000    0.670000
   427  Na    c    -6.634546   -4.428895   -6.640180    0.000000    0.670000
   428  Cl    c    13.279607    0.000000    4.426183    0.000000    0.615000
   429  Cl    c    13.279607    0.000000   -4.426183    0.000000    0.615000
   430  Cl    c    13.279607    4.426183    0.000000    0.000000    0.615000
   431  Cl    c    13.279607   -4.426183    0.000000    0.000000    0.615000
   432  Cl    c    -8.851146    0.000000    4.426183    0.000000    0.615000
   433  Cl    c    -8.851146    0.000000   -4.426183    0.000000    0.615000
   434  Cl    c    -8.851146    4.426183    0.000000    0.000000    0.615000
   435  Cl    c    -8.851146   -4.426183    0.000000    0.000000    0.615000
   436  Na    c     2.214230   11.054237    4.429517    0.000000    0.670000
   437  Na    c     2.214230   11.054237   -4.429517    0.000000    0.670000
   438  Na    c     2.214230  -11.054237    4.429517    0.000000    0.670000
   439  Na    c     2.214230  -11.054237   -4.429517    0.000000    0.670000
   440  Na    c     2.214230    4.429517   11.054237    0.000000    0.670000
   441  Na    c     2.214230    4.429517  -11.054237    0.000000    0.670000
   442  Na    c     2.214230   -4.429517   11.054237    0.000000    0.670000
   443  Na    c     2.214230   -4.429517  -11.054237    0.000000    0.670000
   444  Na    c     6.626205   11.065192    0.000000    0.000000    0.670000
   445  Na    c     6.626205  -11.065192    0.000000    0.000000    0.670000
   446  Na    c    -2.197744   11.065192    0.000000    0.000000    0.670000
   447  Na    c    -2.197744  -11.065192    0.000000    0.000000    0.670000
   448  Na    c     6.626205    0.000000   11.065192    0.000000    0.670000
   449  Na    c     6.626205    0.000000  -11.065192    0.000000    0.670000
   450  Na    c    -2.197744    0.000000   11.065192    0.000000    0.670000
   451  Na    c    -2.197744    0.000000  -11.065192    0.000000    0.670000
   452  O     c     6.641962   -2.214114   11.068656    0.000000    0.489000
   453  O     c     6.641962   -2.214114  -11.068656    0.000000    0.489000
   454  O     c     6.641962    2.214114   11.068656    0.000000    0.489000
   455  O     c     6.641962    2.214114  -11.068656    0.000000    0.489000
   456  O     c     6.641962   11.068656   -2.214114    0.000000    0.489000
   457  O     c     6.641962   11.068656    2.214114    0.000000    0.489000
   458  O     c     6.641962  -11.068656   -2.214114    0.000000    0.489000
   459  O     c     6.641962  -11.068656    2.214114    0.000000    0.489000
   460  O     c    -2.213501   -2.214114   11.068656    0.000000    0.489000
   461  O     c    -2.213501   -2.214114  -11.068656    0.000000    0.489000
   462  O     c    -2.213501    2.214114   11.068656    0.000000    0.489000
   463  O     c    -2.213501    2.214114  -11.068656    0.000000    0.489000
   464  O     c    -2.213501   11.068656   -2.214114    0.000000    0.489000
   465  O     c    -2.213501   11.068656    2.214114    0.000000    0.489000
   466  O     c    -2.213501  -11.068656   -2.214114    0.000000    0.489000
   467  O     c    -2.213501  -11.068656    2.214114    0.000000    0.489000
   468  Cl    c     4.421584    8.846164    8.846164    0.000000    0.615000
   469  Cl    c     4.421584    8.846164   -8.846164    0.000000    0.615000
   470  Cl    c     4.421584   -8.846164    8.846164    0.000000    0.615000
   471  Cl    c     4.421584   -8.846164   -8.846164    0.000000    0.615000
   472  Cl    c     0.006877    8.846164    8.846164    0.000000    0.615000
   473  Cl    c     0.006877    8.846164   -8.846164    0.000000    0.615000
   474  Cl    c     0.006877   -8.846164    8.846164    0.000000    0.615000
   475  Cl    c     0.006877   -8.846164   -8.846164    0.000000    0.615000
   476  Na    c    11.016767   -2.224236    8.856406    0.000000    0.670000
   477  Na    c    11.016767   -2.224236   -8.856406    0.000000    0.670000
   478  Na    c    11.016767    2.224236    8.856406    0.000000    0.670000
   479  Na    c    11.016767    2.224236   -8.856406    0.000000    0.670000
   480  Na    c    -6.588306   -2.224236    8.856406    0.000000    0.670000
   481  Na    c    -6.588306   -2.224236   -8.856406    0.000000    0.670000
   482  Na    c    -6.588306    2.224236    8.856406    0.000000    0.670000
   483  Na    c    -6.588306    2.224236   -8.856406    0.000000    0.670000
   484  Na    c    11.016767    8.856406   -2.224236    0.000000    0.670000
   485  Na    c    11.016767    8.856406    2.224236    0.000000    0.670000
   486  Na    c    11.016767   -8.856406   -2.224236    0.000000    0.670000
   487  Na    c    11.016767   -8.856406    2.224236    0.000000    0.670000
   488  Na    c    -6.588306    8.856406   -2.224236    0.000000    0.670000
   489  Na    c    -6.588306    8.856406    2.224236    0.000000    0.670000
   490  Na    c    -6.588306   -8.856406   -2.224236    0.000000    0.670000
   491  Na    c    -6.588306   -8.856406    2.224236    0.000000    0.670000
   492  Cl    c    13.277670    4.433328    4.433328    0.000000    0.615000
   493  Cl    c    13.277670    4.433328   -4.433328    0.000000    0.615000
   494  Cl    c    13.277670   -4.433328    4.433328    0.000000    0.615000
   495  Cl    c    13.277670   -4.433328   -4.433328    0.000000    0.615000
   496  Cl    c    -8.849209    4.433328    4.433328    0.000000    0.615000
   497  Cl    c    -8.849209    4.433328   -4.433328    0.000000    0.615000
   498  Cl    c    -8.849209   -4.433328    4.433328    0.000000    0.615000
   499  Cl    c    -8.849209   -4.433328   -4.433328    0.000000    0.615000
   500  Na    c     6.653725   11.083355    4.429339    0.000000    0.670000
   501  Na    c     6.653725   11.083355   -4.429339    0.000000    0.670000
   502  Na    c     6.653725  -11.083355    4.429339    0.000000    0.670000
[...]
     55 y          6.642691      6.644111     0.001420    Cartesian    0.02
     55 z         11.071152     11.074164     0.003012    Cartesian    0.03
     56 x         11.071152     11.070415    -0.000737    Cartesian   -0.01
     56 y          6.642691      6.642548    -0.000144    Cartesian   -0.00
     56 z          6.642691      6.642548    -0.000144    Cartesian   -0.00
     57 x          8.856922      8.855334    -0.001588    Cartesian   -0.02
     57 y         11.071152     11.114091     0.042938    Cartesian    0.39
     57 z         -2.214230     -2.198807     0.015423    Cartesian   -0.70
     58 x         13.285383     13.286566     0.001183    Cartesian    0.01
     58 y          6.642691      6.713118     0.070427    Cartesian    1.06
     58 z         -2.214230     -2.219692    -0.005462    Cartesian    0.25
     59 x          4.428461      4.428761     0.000300    Cartesian    0.01
     59 y          6.642691      6.642612    -0.000080    Cartesian   -0.00
     59 z         11.071152     11.085998     0.014845    Cartesian    0.13
     60 x         15.499613     15.590973     0.091360    Cartesian    0.59
     60 y         -2.214230     -2.224271    -0.010040    Cartesian    0.45
     60 z          0.000000      0.000000     0.000000    Cartesian    0.00
     61 x          4.428461      4.428467     0.000007    Cartesian    0.00
     61 y          0.000000      0.000000     0.000000    Cartesian    0.00
     61 z         13.285383     13.272597    -0.012786    Cartesian   -0.10
     62 x          2.214230      2.214230     0.000000    Cartesian    0.00
     62 y         -2.214230     -2.236882    -0.022652    Cartesian    1.02
     62 z         13.285383     13.283943    -0.001440    Cartesian   -0.01
     63 x         15.499613     15.501956     0.002343    Cartesian    0.02
     63 y         -2.214230     -2.212101     0.002129    Cartesian   -0.10
     63 z         -2.214230     -2.212101     0.002129    Cartesian   -0.10
     64 x          6.642691      6.641489    -0.001202    Cartesian   -0.02
     64 y          6.642691      6.643057     0.000366    Cartesian    0.01
     64 z         11.071152     11.071317     0.000165    Cartesian    0.00
     65 x         15.499613     15.445481    -0.054132    Cartesian   -0.35
     65 y         -2.214230     -2.221317    -0.007087    Cartesian    0.32
     65 z          4.428461      4.428163    -0.000297    Cartesian   -0.01
     66 x          8.856922      8.846024    -0.010898    Cartesian   -0.12
     66 y          8.856922      8.849356    -0.007566    Cartesian   -0.09
     66 z          8.856922      8.849356    -0.007566    Cartesian   -0.09
     67 x         11.071152     11.084889     0.013736    Cartesian    0.12
     67 y          6.642691      6.641953    -0.000738    Cartesian   -0.01
     67 z          8.856922      8.856461    -0.000460    Cartesian   -0.01
     68 x          4.428461      4.425519    -0.002942    Cartesian   -0.07
     68 y          4.428461      4.425797    -0.002664    Cartesian   -0.06
     68 z         13.285383     13.273156    -0.012227    Cartesian   -0.09
     69 x         13.285383     13.275655    -0.009728    Cartesian   -0.07
     69 y          0.000000      0.000000     0.000000    Cartesian    0.00
     69 z          8.856922      8.851383    -0.005538    Cartesian   -0.06
     70 x          2.214230      2.214230     0.000000    Cartesian    0.00
     70 y         11.071152     11.085567     0.014414    Cartesian    0.13
     70 z          8.856922      8.859876     0.002955    Cartesian    0.03
     71 x          6.642691      6.623694    -0.018997    Cartesian   -0.29
     71 y         -2.214230     -2.210789     0.003441    Cartesian   -0.16
     71 z         13.285383     13.286668     0.001285    Cartesian    0.01
     72 x         11.071152     11.094800     0.023648    Cartesian    0.21
     72 y         11.071152     11.063630    -0.007522    Cartesian   -0.07
     72 z          0.000000      0.000000     0.000000    Cartesian    0.00
     73 x         11.071152     11.066547    -0.004605    Cartesian   -0.04
     73 y         -2.214230     -2.213673     0.000557    Cartesian   -0.03
     73 z         11.071152     11.070096    -0.001056    Cartesian   -0.01
     74 x          8.856922      8.857172     0.000250    Cartesian    0.00
     74 y          6.642691      6.647588     0.004896    Cartesian    0.07
     74 z         11.071152     11.066888    -0.004264    Cartesian   -0.04
     75 x         13.285383     13.287032     0.001649    Cartesian    0.01
     75 y          6.642691      6.634009    -0.008683    Cartesian   -0.13
     75 z          6.642691      6.634009    -0.008683    Cartesian   -0.13
     76 x         15.499613     15.512343     0.012730    Cartesian    0.08
     76 y          6.642691      6.629067    -0.013624    Cartesian   -0.21
     76 z          0.000000      0.000000     0.000000    Cartesian    0.00
     77 x          8.856922      8.849155    -0.007766    Cartesian   -0.09
     77 y          0.000000      0.000000     0.000000    Cartesian    0.00
     77 z         13.285383     13.273596    -0.011787    Cartesian   -0.09
     78 x         13.285383     13.276079    -0.009303    Cartesian   -0.07
     78 y          4.428461      4.421882    -0.006578    Cartesian   -0.15
     78 z          8.856922      8.852844    -0.004077    Cartesian   -0.05
     79 x          2.214230      2.214230     0.000000    Cartesian    0.00
     79 y          6.642691      6.638817    -0.003874    Cartesian   -0.06
     79 z         13.285383     13.288238     0.002855    Cartesian    0.02
     80 x          6.642691      6.642819     0.000127    Cartesian    0.00
     80 y         11.071152     11.075036     0.003884    Cartesian    0.04
     80 z          8.856922      8.858385     0.001463    Cartesian    0.02
     81 x         11.071152     11.070036    -0.001117    Cartesian   -0.01
     81 y         11.071152     11.075691     0.004539    Cartesian    0.04
     81 z          4.428461      4.428214    -0.000247    Cartesian   -0.01
     82 x         15.499613     15.495958    -0.003655    Cartesian   -0.02
     82 y          6.642691      6.643727     0.001035    Cartesian    0.02
     82 z         -2.214230     -2.214828    -0.000598    Cartesian    0.03
     83 x         17.713843     17.692991    -0.020852    Cartesian   -0.12
     83 y          0.000000      0.000000     0.000000    Cartesian    0.00
     83 z          0.000000      0.000000     0.000000    Cartesian    0.00
     84 x         15.499613     15.513825     0.014212    Cartesian    0.09
     84 y          6.642691      6.642366    -0.000326    Cartesian   -0.00
     84 z          4.428461      4.428966     0.000506    Cartesian    0.01
     85 x          8.856922      8.849930    -0.006991    Cartesian   -0.08
     85 y          4.428461      4.422565    -0.005896    Cartesian   -0.13
     85 z         13.285383     13.272498    -0.012884    Cartesian   -0.10
     86 x          2.214230      2.214230     0.000000    Cartesian    0.00
     86 y         15.499613     15.489996    -0.009617    Cartesian   -0.06
     86 z          0.000000      0.000000     0.000000    Cartesian    0.00
     87 x          6.642691      6.650128     0.007436    Cartesian    0.11
     87 y          6.642691      6.649115     0.006424    Cartesian    0.10
     87 z         13.285383     13.287294     0.001912    Cartesian    0.01
     88 x          2.214230      2.214230     0.000000    Cartesian    0.00
     88 y         -2.214230     -2.214646    -0.000416    Cartesian    0.02
     88 z         15.499613     15.497009    -0.002604    Cartesian   -0.02
     89 x         11.071152     11.069586    -0.001566    Cartesian   -0.01
     89 y          6.642691      6.641520    -0.001172    Cartesian   -0.02
     89 z         11.071152     11.068902    -0.002250    Cartesian   -0.02
     90 x          2.214230      2.214230     0.000000    Cartesian    0.00
     90 y         11.071152     11.070894    -0.000258    Cartesian   -0.00
     90 z         11.071152     11.070894    -0.000258    Cartesian   -0.00
     91 x         17.713843     17.717951     0.004108    Cartesian    0.02
     91 y         -2.214230     -2.254994    -0.040763    Cartesian    1.84
     91 z         -2.214230     -2.254994    -0.040763    Cartesian    1.84
     92 x          4.428461      4.427971    -0.000490    Cartesian   -0.01
     92 y         15.499613     15.513838     0.014225    Cartesian    0.09
     92 z         -2.214230     -2.214251    -0.000020    Cartesian    0.00
     93 x          4.428461      4.428896     0.000435    Cartesian    0.01
     93 y         11.071152     11.079230     0.008078    Cartesian    0.07
     93 z         11.071152     11.079230     0.008078    Cartesian    0.07
     94 x         13.285383     13.283697    -0.001686    Cartesian   -0.01
     94 y         -2.214230     -2.221272    -0.007042    Cartesian    0.32
     94 z         11.071152     11.066024    -0.005128    Cartesian   -0.05
     95 x          4.428461      4.794343     0.365882    Cartesian    8.26
     95 y          0.000000      0.000000     0.000000    Cartesian    0.00
     95 z          0.000000      0.000000     0.000000    Cartesian    0.00
     96 x          2.214230      2.214230     0.000000    Cartesian    0.00
     96 y         -2.214230     -2.115581     0.098649    Cartesian   -4.46
     96 z         -2.214230     -2.115581     0.098649    Cartesian   -4.46
     97 x          4.428461      4.414422    -0.014039    Cartesian   -0.32
     97 y          0.000000      0.000000     0.000000    Cartesian    0.00
     97 z          4.428461      4.436103     0.007642    Cartesian    0.17
     98 x          6.642691      6.666194     0.023502    Cartesian    0.35
     98 y         -2.214230     -2.220439    -0.006208    Cartesian    0.28
     98 z         -2.214230     -2.220439    -0.006208    Cartesian    0.28
     99 x          4.428461      4.358218    -0.070243    Cartesian   -1.59
     99 y          4.428461      4.358350    -0.070111    Cartesian   -1.58
     99 z          4.428461      4.358350    -0.070111    Cartesian   -1.58
    100 x          8.856922      8.884933     0.028011    Cartesian    0.32
    100 y          0.000000      0.000000     0.000000    Cartesian    0.00
    100 z          0.000000      0.000000     0.000000    Cartesian    0.00
    101 x          2.214230      2.214230     0.000000    Cartesian    0.00
    101 y         -2.214230     -2.218564    -0.004334    Cartesian    0.20
    101 z          6.642691      6.633216    -0.009475    Cartesian   -0.14
    102 x          8.856922      8.843386    -0.013536    Cartesian   -0.15
    102 y          0.000000      0.000000     0.000000    Cartesian    0.00
    102 z          4.428461      4.424486    -0.003975    Cartesian   -0.09
    103 x          6.642691      6.642022    -0.000670    Cartesian   -0.01
    103 y         -2.214230     -2.214671    -0.000441    Cartesian    0.02
    103 z          6.642691      6.638923    -0.003768    Cartesian   -0.06
    104 x          4.428461      4.407462    -0.020999    Cartesian   -0.47
    104 y          0.000000      0.000000     0.000000    Cartesian    0.00
    104 z          8.856922      8.826820    -0.030102    Cartesian   -0.34
    105 x          8.856922      8.834103    -0.022819    Cartesian   -0.26
    105 y          4.428461      4.440081     0.011621    Cartesian    0.26
    105 z          4.428461      4.440081     0.011621    Cartesian    0.26
    106 x         11.071152     11.076945     0.005793    Cartesian    0.05
    106 y         -2.214230     -2.216401    -0.002170    Cartesian    0.10
    106 z         -2.214230     -2.216401    -0.002170    Cartesian    0.10
    107 x          2.214230      2.214230     0.000000    Cartesian    0.00
    107 y          6.642691      6.648439     0.005748    Cartesian    0.09
    107 z          6.642691      6.648439     0.005748    Cartesian    0.09
    108 x          4.428461      4.414254    -0.014207    Cartesian   -0.32
    108 y          4.428461      4.421193    -0.007268    Cartesian   -0.16
    108 z          8.856922      8.833515    -0.023407    Cartesian   -0.26
    109 x          6.642691      6.638148    -0.004543    Cartesian   -0.07
    109 y          6.642691      6.640404    -0.002288    Cartesian   -0.03
    109 z          6.642691      6.640404    -0.002288    Cartesian   -0.03
    110 x          8.856922      8.843519    -0.013402    Cartesian   -0.15
    110 y          0.000000      0.000000     0.000000    Cartesian    0.00
    110 z          8.856922      8.844764    -0.012158    Cartesian   -0.14
    111 x         13.285383     13.276052    -0.009330    Cartesian   -0.07
    111 y          0.000000      0.000000     0.000000    Cartesian    0.00
    111 z          0.000000      0.000000     0.000000    Cartesian    0.00
    112 x         11.071152     11.073520     0.002368    Cartesian    0.02
    112 y         -2.214230     -2.213849     0.000382    Cartesian   -0.02
    112 z          6.642691      6.638926    -0.003765    Cartesian   -0.06
    113 x          2.214230      2.214230     0.000000    Cartesian    0.00
    113 y         -2.214230     -2.213595     0.000636    Cartesian   -0.03
    113 z         11.071152     11.066771    -0.004381    Cartesian   -0.04
    114 x          8.856922      8.843236    -0.013685    Cartesian   -0.15
    114 y          4.428461      4.427552    -0.000908    Cartesian   -0.02
    114 z          8.856922      8.845992    -0.010929    Cartesian   -0.12
    115 x         13.285383     13.278597    -0.006786    Cartesian   -0.05
    115 y          0.000000      0.000000     0.000000    Cartesian    0.00
    115 z          4.428461      4.426218    -0.002243    Cartesian   -0.05
    116 x          6.642691      6.642127    -0.000564    Cartesian   -0.01
    116 y         -2.214230     -2.214094     0.000136    Cartesian   -0.01
    116 z         11.071152     11.068651    -0.002501    Cartesian   -0.02
    117 x          4.428461      4.421200    -0.007261    Cartesian   -0.16
    117 y          8.856922      8.845472    -0.011450    Cartesian   -0.13
    117 z          8.856922      8.845472    -0.011450    Cartesian   -0.13
    118 x         13.285383     13.276766    -0.008617    Cartesian   -0.06
    118 y          4.428461      4.433173     0.004712    Cartesian    0.11
    118 z          4.428461      4.433173     0.004712    Cartesian    0.11
    119 x          2.214230      2.214230     0.000000    Cartesian    0.00
    119 y          6.642691      6.644184     0.001493    Cartesian    0.02
    119 z         11.071152     11.073921     0.002769    Cartesian    0.03
    120 x         11.071152     11.070296    -0.000856    Cartesian   -0.01
    120 y          6.642691      6.642561    -0.000131    Cartesian   -0.00
    120 z          6.642691      6.642561    -0.000131    Cartesian   -0.00
    121 x          4.428461      4.428567     0.000106    Cartesian    0.00
    121 y          0.000000      0.000000     0.000000    Cartesian    0.00
    121 z         13.285383     13.272064    -0.013319    Cartesian   -0.10
    122 x         15.499613     15.502235     0.002622    Cartesian    0.02
    122 y         -2.214230     -2.211699     0.002532    Cartesian   -0.11
    122 z         -2.214230     -2.211699     0.002532    Cartesian   -0.11
    123 x          6.642691      6.641425    -0.001267    Cartesian   -0.02
    123 y          6.642691      6.643039     0.000348    Cartesian    0.01
    123 z         11.071152     11.071276     0.000124    Cartesian    0.00
    124 x          8.856922      8.845630    -0.011292    Cartesian   -0.13
    124 y          8.856922      8.849024    -0.007898    Cartesian   -0.09
    124 z          8.856922      8.849024    -0.007898    Cartesian   -0.09
    125 x          4.428461      4.425393    -0.003067    Cartesian   -0.07
    125 y          4.428461      4.425670    -0.002791    Cartesian   -0.06
    125 z         13.285383     13.272734    -0.012649    Cartesian   -0.10
    126 x         13.285383     13.275488    -0.009894    Cartesian   -0.07
    126 y          0.000000      0.000000     0.000000    Cartesian    0.00
    126 z          8.856922      8.850798    -0.006124    Cartesian   -0.07
    127 x         11.071152     11.066149    -0.005003    Cartesian   -0.05
    127 y         -2.214230     -2.213656     0.000575    Cartesian   -0.03
    127 z         11.071152     11.070266    -0.000887    Cartesian   -0.01
    128 x          8.856922      8.848997    -0.007924    Cartesian   -0.09
    128 y          0.000000      0.000000     0.000000    Cartesian    0.00
    128 z         13.285383     13.272922    -0.012461    Cartesian   -0.09
    129 x         13.285383     13.275902    -0.009481    Cartesian   -0.07
    129 y          4.428461      4.421496    -0.006965    Cartesian   -0.16
    129 z          8.856922      8.852509    -0.004412    Cartesian   -0.05
    130 x         15.499613     15.495449    -0.004164    Cartesian   -0.03
    130 y          6.642691      6.644208     0.001517    Cartesian    0.02
    130 z         -2.214230     -2.214931    -0.000701    Cartesian    0.03
    131 x         17.713843     17.690916    -0.022927    Cartesian   -0.13
    131 y          0.000000      0.000000     0.000000    Cartesian    0.00
    131 z          0.000000      0.000000     0.000000    Cartesian    0.00
    132 x          8.856922      8.849716    -0.007206    Cartesian   -0.08
    132 y          4.428461      4.422301    -0.006160    Cartesian   -0.14
    132 z         13.285383     13.271894    -0.013489    Cartesian   -0.10
    133 x          2.214230      2.214230     0.000000    Cartesian    0.00
    133 y         -2.214230     -2.214817    -0.000586    Cartesian    0.03
    133 z         15.499613     15.496956    -0.002657    Cartesian   -0.02
    134 x         11.071152     11.069492    -0.001660    Cartesian   -0.01
    134 y          6.642691      6.641444    -0.001247    Cartesian   -0.02
    134 z         11.071152     11.068718    -0.002434    Cartesian   -0.02
    135 x          2.214230      2.214230     0.000000    Cartesian    0.00
    135 y         11.071152     11.070868    -0.000284    Cartesian   -0.00
    135 z         11.071152     11.070868    -0.000284    Cartesian   -0.00
--------------------------------------------------------------------------------


  Time to end of optimisation  =       39.0624 seconds


  Peak dynamic memory used =     317.42 MB 


  Timing analysis for GULP :

--------------------------------------------------------------------------------
  Task / Subroutine                                          Time (Seconds)
--------------------------------------------------------------------------------
  Calculation of reciprocal space energy and derivatives          0.0003
  Calculation of reciprocal space energy using symmetry           0.0007
  Calculation of real space energy and derivatives                0.0019
  Calculation of real space energy using symmetry                 0.0070
  Calculation for region 1 energy and derivatives (2-b)          20.8429
  Calculation for region 2a energy                               16.9951
  Calculation for region 2b energy                                0.0003
  Calculation and manipulation of Hessian matrix                  0.8787
  Calculation of matrix inversion                                 0.0505
  Symmetry generation of equivalent positions                     0.0044
--------------------------------------------------------------------------------
  Total CPU time                                                 39.0625
--------------------------------------------------------------------------------


  Dump file written as Na3OCl.grs


  Job Finished at 16:43.50  5th July       2021                               

