********************************************************************************
*                       GENERAL UTILITY LATTICE PROGRAM                        *
*                                 Julian Gale                                  *
*                       Curtin Institute for Computation                       *
*                    School of Molecular and Life Sciences                     *
*                    Curtin University, Western Australia                      *
********************************************************************************
* Version = 5.2.0 * Last modified =  10th September 2020                       *
********************************************************************************
*  optimise     - perform optimisation run                                     *
*  conp         - constant pressure calculation                                *
*  property     - calculate properties for final geometry                      *
*  defect       - perform defect calculation after bulk run                    *
*  compare      - compare initial and final structures                         *
********************************************************************************

  Job Started  at 16:43.10  5th July       2021                               

  Number of CPUs =     1


  Total number of configurations input =      1

********************************************************************************
*  Input for Configuration =   1                                               *
********************************************************************************

  Formula = ClONa3                                                      

  Number of irreducible atoms/shells =       5


  Total number atoms/shells =       7

  Dimensionality = 3               :  Bulk   


  Symmetry :

  Crystal family                   :  Cubic       
  Crystal class  (Groth - 1921)    :  Cubic Hexakisoctahedral              

  Space group (centrosymmetric)    :  P M 3 M         

  Patterson group                  :  P m -3 m 

  Cartesian lattice vectors (Angstroms) :

        4.504000    0.000000    0.000000
        0.000000    4.504000    0.000000
        0.000000    0.000000    4.504000

  Cell parameters (Angstroms/Degrees):

  a =       4.5040    alpha =  90.0000
  b =       4.5040    beta  =  90.0000
  c =       4.5040    gamma =  90.0000

  Initial cell volume =          91.368216 Angs**3

  Temperature of configuration =   0.00     K 

  Pressure of configuration =         0.000 GPa 

  Fractional coordinates of asymmetric unit :

--------------------------------------------------------------------------------
   No.  Atomic       x           y          z         Charge      Occupancy
        Label      (Frac)      (Frac)     (Frac)        (e)         (Frac)  
--------------------------------------------------------------------------------
      1 Cl    c    0.000000    0.000000    0.000000     0.61500    1.000000    
      2 O     c    0.500000    0.500000    0.500000     0.48900    1.000000    
      3 Na    c    0.500000    0.500000    0.000000     0.67000    1.000000    
      4 Cl    s    0.000000    0.000000    0.000000    -1.28500    1.000000    
      5 O     s    0.500000    0.500000    0.500000    -1.82900    1.000000    
--------------------------------------------------------------------------------


  Constraints : 

--------------------------------------------------------------------------------
  Constraint no.      Unconstrained     Constrained    Coefficient    Offset
                         Variable         Variable
--------------------------------------------------------------------------------
           1              Strain 1        Strain 2       1.00000      0.0000
           2              Strain 1        Strain 3       1.00000      0.0000
--------------------------------------------------------------------------------


********************************************************************************
*  General input information                                                   *
********************************************************************************

  Species output for all configurations : 

--------------------------------------------------------------------------------
  Species    Type    Atomic    Atomic    Charge       Radii (Angs)     Library
                     Number     Mass       (e)     Cova   Ionic  VDW   Symbol
--------------------------------------------------------------------------------
    Na       Core       11      22.99   0.670000   0.970  0.000  2.300          
    O        Core        8      16.00   0.489000   0.730  0.000  1.360          
    O        Shell       8       0.00  -1.829000   0.730  0.000  1.360          
    Cl       Core       17      35.45   0.615000   0.990  0.000  1.650          
    Cl       Shell      17       0.00  -1.285000   0.990  0.000  1.650          
--------------------------------------------------------------------------------


  Lattice summation method               =    Ewald          (3-D)
                                         =    Parry          (2-D)
                                         =    Saunders et al (1-D)
  Accuracy factor for lattice sums       =   12.000


  Analytic derivatives to be used

  Time limit = Infinity

  Maximum range for interatomic potentials =    100000.000000 Angstroms

  General interatomic potentials :

--------------------------------------------------------------------------------
Atom  Types   Potential      Parameter       Value         Units   Cutoffs(Ang)
  1     2                                                            Min /  Max 
--------------------------------------------------------------------------------
O    c O    s Spring (c-s)  Spring k 2       34.450000    eV*Ang^-2 0.000  0.800
                            Spring k 4       0.0000000    eV*Ang^-4 
--------------------------------------------------------------------------------
Cl   c Cl   s Spring (c-s)  Spring k 2       28.250000    eV*Ang^-2 0.000  0.800
                            Spring k 4       0.0000000    eV*Ang^-4 
--------------------------------------------------------------------------------
Na   c Na   c Buckingham    Buckingham A     996.28210    eV        0.000 12.000
                            Buckingham rho  0.28830000    Ang       
                            Buckingham C     0.0000000    eV*Ang^6  
--------------------------------------------------------------------------------
Na   c O    s Buckingham    Buckingham A     12439.222    eV        0.000 12.000
                            Buckingham rho  0.20150000    Ang       
                            Buckingham C     0.0000000    eV*Ang^6  
--------------------------------------------------------------------------------
Na   c Cl   s Buckingham    Buckingham A     20907.738    eV        0.000 12.000
                            Buckingham rho  0.21660000    Ang       
                            Buckingham C     0.0000000    eV*Ang^6  
--------------------------------------------------------------------------------
O    s O    s Buckingham    Buckingham A     35546.853    eV        0.000 12.000
                            Buckingham rho  0.12056000    Ang       
                            Buckingham C     13.190000    eV*Ang^6  
--------------------------------------------------------------------------------
O    s Cl   s Buckingham    Buckingham A     47777.071    eV        0.000 12.000
                            Buckingham rho  0.24370000    Ang       
                            Buckingham C     62.200000    eV*Ang^6  
--------------------------------------------------------------------------------
Cl   s Cl   s Buckingham    Buckingham A     35155.254    eV        0.000 12.000
                            Buckingham rho  0.21360000    Ang       
                            Buckingham C     14.530000    eV*Ang^6  
--------------------------------------------------------------------------------

********************************************************************************
*  Output for configuration   1                                                *
********************************************************************************


  Components of energy : 

--------------------------------------------------------------------------------
  Interatomic potentials     =           1.21745275 eV    
  Monopole - monopole (real) =          -4.50527050 eV    
  Monopole - monopole (recip)=         -13.25862634 eV    
  Monopole - monopole (total)=         -17.76389683 eV    
--------------------------------------------------------------------------------
  Total lattice energy       =         -16.54644409 eV    
--------------------------------------------------------------------------------
  Total lattice energy       =           -1596.4789 kJ/(mole unit cells)
--------------------------------------------------------------------------------


  Number of variables =        1

  Maximum number of calculations  =          1000
  Maximum Hessian update interval =            10
  Maximum step size               =   1.000000000
  Maximum parameter tolerance     =   0.000010000
  Maximum function  tolerance     =   0.000010000
  Maximum gradient  tolerance     =   0.001000000
  Maximum gradient  component     =   0.010000000

  Symmetry constrained optimisation

  Symmetry used for second derivatives

  Cell parameters to be optimised using strains

  Newton-Raphson optimiser to be used

  BFGS hessian update to be used

  Lower half triangular hessian to be used

  Start of bulk optimisation :

  Cycle:      0 Energy:       -16.546444  Gnorm:      2.744113  CPU:    0.008
  ** Hessian calculated **
  Cycle:      1 Energy:       -16.570356  Gnorm:      0.030142  CPU:    0.010
  Cycle:      2 Energy:       -16.570358  Gnorm:      0.003103  CPU:    0.012


  **** Optimisation achieved ****


  Final energy =     -16.57035847 eV
  Final Gnorm  =       0.00000012

  Components of energy : 

--------------------------------------------------------------------------------
  Interatomic potentials     =           1.49654868 eV    
  Monopole - monopole (real) =          -4.58211982 eV    
  Monopole - monopole (recip)=         -13.48478733 eV    
  Monopole - monopole (total)=         -18.06690714 eV    
--------------------------------------------------------------------------------
  Total lattice energy       =         -16.57035847 eV    
--------------------------------------------------------------------------------
  Total lattice energy       =           -1598.7863 kJ/(mole unit cells)
--------------------------------------------------------------------------------

  Final asymmetric unit coordinates :

--------------------------------------------------------------------------------
   No.  Atomic        x           y           z         Radius
        Label       (Frac)      (Frac)      (Frac)       (Angs) 
--------------------------------------------------------------------------------
     1  Cl    c     0.000000    0.000000    0.000000    0.000000
     2  O     c     0.500000    0.500000    0.500000    0.000000
     3  Na    c     0.500000    0.500000    0.000000    0.000000
     4  Cl    s     0.000000    0.000000    0.000000    0.000000
     5  O     s     0.500000    0.500000    0.500000    0.000000
--------------------------------------------------------------------------------

  Final Cartesian lattice vectors (Angstroms) :

        4.428461    0.000000    0.000000
        0.000000    4.428461    0.000000
        0.000000    0.000000    4.428461


  Final cell parameters and derivatives :

--------------------------------------------------------------------------------
       a            4.428461 Angstrom     dE/de1(xx)     0.000000 eV/strain
       b            4.428461 Angstrom     dE/de2(yy)     0.000000 eV/strain
       c            4.428461 Angstrom     dE/de3(zz)     0.000000 eV/strain
       alpha       90.000000 Degrees      dE/de4(yz)     0.000000 eV/strain
       beta        90.000000 Degrees      dE/de5(xz)     0.000000 eV/strain
       gamma       90.000000 Degrees      dE/de6(xy)     0.000000 eV/strain
--------------------------------------------------------------------------------

  Primitive cell volume =            86.847723 Angs**3

  Density of cell =      2.302482 g/cm**3

  Non-primitive cell volume =            86.847723 Angs**3


  Final internal derivatives :

--------------------------------------------------------------------------------
   No.  Atomic          a             b             c           Radius
        Label          (eV)          (eV)          (eV)        (eV/Angs)
--------------------------------------------------------------------------------
      1 Cl    c       0.000000      0.000000      0.000000      0.000000
      2 O     c       0.000000      0.000000      0.000000      0.000000
      3 Na    c       0.000000      0.000000      0.000000      0.000000
      4 Cl    s       0.000000      0.000000      0.000000      0.000000
      5 O     s       0.000000      0.000000      0.000000      0.000000
--------------------------------------------------------------------------------
  Maximum abs         0.000000      0.000000      0.000000      0.000000
--------------------------------------------------------------------------------

  Comparison of initial and final structures : 

--------------------------------------------------------------------------------
  Parameter   Initial value   Final value   Difference    Units      Percent
--------------------------------------------------------------------------------
    Volume        91.368216     86.847723    -4.520493    Angs**3     -4.95
    a              4.504000      4.428461    -0.075539    Angstroms   -1.68
    b              4.504000      4.428461    -0.075539    Angstroms   -1.68
    c              4.504000      4.428461    -0.075539    Angstroms   -1.68
    alpha         90.000000     90.000000     0.000000    Degrees      0.00
    beta          90.000000     90.000000     0.000000    Degrees      0.00
    gamma         90.000000     90.000000     0.000000    Degrees      0.00
      1 x          0.000000      0.000000     0.000000    Fractional   0.00
      1 y          0.000000      0.000000     0.000000    Fractional   0.00
      1 z          0.000000      0.000000     0.000000    Fractional   0.00
      2 x          0.500000      0.500000     0.000000    Fractional   0.00
      2 y          0.500000      0.500000     0.000000    Fractional   0.00
      2 z          0.500000      0.500000     0.000000    Fractional   0.00
      3 x          0.500000      0.500000     0.000000    Fractional   0.00
      3 y          0.500000      0.500000     0.000000    Fractional   0.00
      3 z          0.000000      0.000000     0.000000    Fractional   0.00
      4 x          0.000000      0.000000     0.000000    Fractional   0.00
      4 y          0.000000      0.000000     0.000000    Fractional   0.00
      4 z          0.000000      0.000000     0.000000    Fractional   0.00
      5 x          0.500000      0.500000     0.000000    Fractional   0.00
      5 y          0.500000      0.500000     0.000000    Fractional   0.00
      5 z          0.500000      0.500000     0.000000    Fractional   0.00
--------------------------------------------------------------------------------


  Born effective charge tensors : 

-------------------------------------------------------------------------------
  Atom             x           y             z
-------------------------------------------------------------------------------
    1 Cl    x      -0.6995     -0.0000     -0.0000
            y      -0.0000     -0.6995     -0.0000
            z      -0.0000     -0.0000     -0.6995
-------------------------------------------------------------------------------
    2 O     x      -1.0805      0.0000      0.0000
            y       0.0000     -1.0805      0.0000
            z       0.0000      0.0000     -1.0805
-------------------------------------------------------------------------------
    3 Na    x       0.6486      0.0000     -0.0000
            y       0.0000      0.6486      0.0000
            z      -0.0000      0.0000      0.4827
-------------------------------------------------------------------------------




  Elastic Constant Matrix: (Units=GPa)

-------------------------------------------------------------------------------
  Indices      1         2         3         4         5         6    
-------------------------------------------------------------------------------
       1     77.0757   16.0262   16.0262   -0.0000   -0.0000   -0.0000
       2     16.0262   77.0757   16.0262   -0.0000   -0.0000    0.0000
       3     16.0262   16.0262   77.0757    0.0000    0.0000    0.0000
       4     -0.0000   -0.0000    0.0000   16.0262    0.0000   -0.0000
       5     -0.0000   -0.0000    0.0000    0.0000   16.0262   -0.0000
       6     -0.0000    0.0000    0.0000   -0.0000   -0.0000   16.0262
-------------------------------------------------------------------------------


  Elastic Compliance Matrix: (Units=1/GPa)

-------------------------------------------------------------------------------
  Indices      1         2         3         4         5         6    
-------------------------------------------------------------------------------
       1    0.013975 -0.002406 -0.002406  0.000000  0.000000  0.000000
       2   -0.002406  0.013975 -0.002406  0.000000  0.000000 -0.000000
       3   -0.002406 -0.002406  0.013975 -0.000000 -0.000000 -0.000000
       4    0.000000  0.000000 -0.000000  0.062398 -0.000000  0.000000
       5    0.000000  0.000000 -0.000000 -0.000000  0.062398  0.000000
       6    0.000000 -0.000000 -0.000000  0.000000  0.000000  0.062398
-------------------------------------------------------------------------------

  Mechanical properties :

-------------------------------------------------------------------------------
  Convention :                    Reuss         Voigt         Hill
-------------------------------------------------------------------------------
  Bulk  Modulus (GPa)     =      36.37603      36.37603      36.37603
  Shear Modulus (GPa)     =      19.78520      21.82562      20.80541
-------------------------------------------------------------------------------
  Velocity S-wave (km/s)  =       2.93138       3.07883       3.00601
  Velocity P-wave (km/s)  =       5.22072       5.33268       5.27700
-------------------------------------------------------------------------------
  Compressibility (1/GPa) =    0.02749063
-------------------------------------------------------------------------------
  Stress axis :                     x             y             z
-------------------------------------------------------------------------------
  Youngs Moduli (GPa)     =      71.55833      71.55833      71.55833
-------------------------------------------------------------------------------
  Poissons Ratio (x)      =                     0.17214       0.17214
  Poissons Ratio (y)      =       0.17214                     0.17214
  Poissons Ratio (z)      =       0.17214       0.17214
-------------------------------------------------------------------------------


  Piezoelectric Strain Matrix: (Units=C/m**2)

-------------------------------------------------------------------------------
  Indices      1         2         3         4         5         6    
-------------------------------------------------------------------------------
       x    -0.00000  -0.00000  -0.00000  -0.00000  -0.00000   0.00000
       y     0.00000   0.00000   0.00000  -0.00000  -0.00000  -0.00000
       z     0.00000   0.00000  -0.00000   0.00000  -0.00000  -0.00000
-------------------------------------------------------------------------------


  Piezoelectric Stress Matrix: (Units=10**-11 C/N)

-------------------------------------------------------------------------------
  Indices      1         2         3         4         5         6    
-------------------------------------------------------------------------------
       x    -0.00000  -0.00000  -0.00000  -0.00000  -0.00000   0.00000
       y     0.00000   0.00000   0.00000  -0.00000  -0.00000  -0.00000
       z     0.00000   0.00000  -0.00000   0.00000  -0.00000  -0.00000
-------------------------------------------------------------------------------


  Static dielectric constant tensor : 

-------------------------------------------------------------------------------
              x         y         z
-------------------------------------------------------------------------------
       x     5.77918   0.00000   0.00000
       y     0.00000   5.77918   0.00000
       z     0.00000   0.00000   5.77918
--------------------------------------------------------------------------------

  High frequency dielectric constant tensor : 

-------------------------------------------------------------------------------
              x         y         z
-------------------------------------------------------------------------------
       x     1.30980  -0.00000  -0.00000
       y    -0.00000   1.30980  -0.00000
       z    -0.00000  -0.00000   1.30980
-------------------------------------------------------------------------------

  Static refractive indices : 

-------------------------------------------------------------------------------
    1 =    2.40399      2 =    2.40399      3 =    2.40399
-------------------------------------------------------------------------------

  High frequency refractive indices : 

-------------------------------------------------------------------------------
    1 =    1.14447      2 =    1.14447      3 =    1.14447
-------------------------------------------------------------------------------


  Time to end of optimisation =       0.0175 seconds

********************************************************************************
*  Defect calculation for configuration   1 :                                  *
********************************************************************************

  Total number of defects =      1

  Total charge on defect  =   1.34

  Defect centre is at   0.5000   0.5000   0.5000  Frac

  Region 1 radius =  16.0000      Number of ions =   1396

  Number of symmetry inequivalent region 1 ions  =     66

  Region 2 radius =  24.0000      Number of ions =   3374

  Number of symmetry inequivalent region 2a ions =    108

  Region 2a mode = 4 : screened electrostatics due to region 1 
                       neglect correction to region 1 forces from 2a
                       region 2a displacements based on defects only

  Region 2a ions will only interact with defects in region 1

  Vacancies:

--------------------------------------------------------------------------------
    Specification type     Symbol/Number         x          y          z
--------------------------------------------------------------------------------
    Fractional                               0.500000   0.500000   0.500000
--------------------------------------------------------------------------------


  Symmetry reduced region 1 (Relative to defect centre) :

--------------------------------------------------------------------------------
   No.   Atomic       x            y             z       Radius  Multiplicity   
         Label      (Angs)       (Angs)        (Angs)    (Angs)     
--------------------------------------------------------------------------------
     1  Na    c      0.0000       0.0000       2.2142 *  0.0000     6          
     2  Cl    c      2.2142 *     2.2142       2.2142    0.0000     8          
     3  O     c      0.0000       0.0000       4.4285 *  0.0000     6          
     4  Na    c      0.0000       4.4285 *     2.2142 *  0.0000    24          
     5  O     c      0.0000       4.4285 *     4.4285    0.0000    12          
     6  Na    c      4.4285 *     4.4285       2.2142 *  0.0000    24          
     7  Na    c      0.0000       0.0000       6.6427 *  0.0000     6          
     8  Cl    c      2.2142 *     2.2142       6.6427 *  0.0000    24          
     9  O     c      4.4285 *     4.4285       4.4285    0.0000     8          
    10  Na    c      0.0000       4.4285 *     6.6427 *  0.0000    24          
    11  O     c      0.0000       0.0000       8.8569 *  0.0000     6          
    12  Na    c      0.0000       8.8569 *     2.2142 *  0.0000    24          
    13  Na    c      4.4285 *     4.4285       6.6427 *  0.0000    24          
    14  Cl    c      2.2142 *     6.6427 *     6.6427    0.0000    24          
    15  O     c      0.0000       4.4285 *     8.8569 *  0.0000    24          
    16  Na    c      4.4285 *     8.8569 *     2.2142 *  0.0000    48          
    17  O     c      4.4285 *     4.4285       8.8569 *  0.0000    24          
    18  Na    c      0.0000       8.8569 *     6.6427 *  0.0000    24          
    19  Na    c      0.0000       0.0000      11.0712 *  0.0000     6          
    20  Cl    c      2.2142 *     2.2142      11.0712 *  0.0000    24          
    21  Cl    c      6.6427 *     6.6427       6.6427    0.0000     8          
    22  Na    c      4.4285 *     8.8569 *     6.6427 *  0.0000    48          
    23  Na    c      0.0000       4.4285 *    11.0712 *  0.0000    24          
    24  O     c      0.0000       8.8569 *     8.8569    0.0000    12          
    25  Na    c      8.8569 *     8.8569       2.2142 *  0.0000    24          
    26  Na    c      4.4285 *     4.4285      11.0712 *  0.0000    24          
    27  Cl    c      6.6427 *    11.0712 *     2.2142 *  0.0000    48          
    28  O     c      0.0000       0.0000      13.2854 *  0.0000     6          
    29  O     c      4.4285 *     8.8569 *     8.8569    0.0000    24          
    30  Na    c      0.0000      13.2854 *     2.2142 *  0.0000    24          
    31  O     c      0.0000       4.4285 *    13.2854 *  0.0000    24          
    32  Na    c      4.4285 *    13.2854 *     2.2142 *  0.0000    48          
    33  Na    c      8.8569 *     8.8569       6.6427 *  0.0000    24          
    34  Na    c      0.0000       8.8569 *    11.0712 *  0.0000    24          
    35  Cl    c      6.6427 *     6.6427      11.0712 *  0.0000    24          
    36  O     c      4.4285 *     4.4285      13.2854 *  0.0000    24          
    37  Na    c      0.0000      13.2854 *     6.6427 *  0.0000    24          
    38  Na    c      4.4285 *     8.8569 *    11.0712 *  0.0000    48          
    39  O     c      8.8569 *     8.8569       8.8569    0.0000     8          
    40  Na    c      0.0000       0.0000      15.4996 *  0.0000     6          
    41  Na    c      4.4285 *    13.2854 *     6.6427 *  0.0000    48          
    42  Cl    c      2.2142 *    15.4996 *     2.2142    0.0000    24          
    43  Cl    c      2.2142 *    11.0712 *    11.0712    0.0000    24          
    44  O     c      0.0000       8.8569 *    13.2854 *  0.0000    24          
    45  Cl    s      2.2142 *     2.2142       2.2142    0.0000     8          
    46  O     s      0.0000       0.0000       4.4285 *  0.0000     6          
    47  O     s      0.0000       4.4285 *     4.4285    0.0000    12          
    48  Cl    s      2.2142 *     2.2142       6.6427 *  0.0000    24          
    49  O     s      4.4285 *     4.4285       4.4285    0.0000     8          
    50  O     s      0.0000       0.0000       8.8569 *  0.0000     6          
    51  Cl    s      2.2142 *     6.6427 *     6.6427    0.0000    24          
    52  O     s      0.0000       4.4285 *     8.8569 *  0.0000    24          
    53  O     s      4.4285 *     4.4285       8.8569 *  0.0000    24          
    54  Cl    s      2.2142 *     2.2142      11.0712 *  0.0000    24          
    55  Cl    s      6.6427 *     6.6427       6.6427    0.0000     8          
    56  O     s      0.0000       8.8569 *     8.8569    0.0000    12          
    57  Cl    s      6.6427 *    11.0712 *     2.2142 *  0.0000    48          
    58  O     s      0.0000       0.0000      13.2854 *  0.0000     6          
    59  O     s      4.4285 *     8.8569 *     8.8569    0.0000    24          
    60  O     s      0.0000       4.4285 *    13.2854 *  0.0000    24          
    61  Cl    s      6.6427 *     6.6427      11.0712 *  0.0000    24          
    62  O     s      4.4285 *     4.4285      13.2854 *  0.0000    24          
    63  O     s      8.8569 *     8.8569       8.8569    0.0000     8          
    64  Cl    s      2.2142 *    15.4996 *     2.2142    0.0000    24          
    65  Cl    s      2.2142 *    11.0712 *    11.0712    0.0000    24          
    66  O     s      0.0000       8.8569 *    13.2854 *  0.0000    24          
--------------------------------------------------------------------------------


  Constraints on symmetry reduced coordinates :

--------------------------------------------------------------------------------
  Constraint no.      Unconstrained     Constrained    Coefficient    
                         Variable         Variable
--------------------------------------------------------------------------------
           1                 2 x             2 y         1.00000
           2                 2 x             2 z         1.00000
           3                 5 y             5 z         1.00000
           4                 6 x             6 y         1.00000
           5                 8 x             8 y         1.00000
           6                 9 x             9 y         1.00000
           7                 9 x             9 z         1.00000
           8                13 x            13 y         1.00000
           9                14 y            14 z         1.00000
          10                17 x            17 y         1.00000
          11                20 x            20 y         1.00000
          12                21 x            21 y         1.00000
          13                21 x            21 z         1.00000
          14                24 y            24 z         1.00000
          15                25 x            25 y         1.00000
          16                26 x            26 y         1.00000
          17                29 y            29 z         1.00000
          18                33 x            33 y         1.00000
          19                35 x            35 y         1.00000
          20                36 x            36 y         1.00000
          21                39 x            39 y         1.00000
          22                39 x            39 z         1.00000
          23                42 x            42 z         1.00000
          24                43 y            43 z         1.00000
          25                45 x            45 y         1.00000
          26                45 x            45 z         1.00000
          27                47 y            47 z         1.00000
          28                48 x            48 y         1.00000
          29                49 x            49 y         1.00000
          30                49 x            49 z         1.00000
          31                51 y            51 z         1.00000
          32                53 x            53 y         1.00000
          33                54 x            54 y         1.00000
          34                55 x            55 y         1.00000
          35                55 x            55 z         1.00000
          36                56 y            56 z         1.00000
          37                59 y            59 z         1.00000
          38                61 x            61 y         1.00000
          39                62 x            62 y         1.00000
          40                63 x            63 y         1.00000
          41                63 x            63 z         1.00000
          42                64 x            64 z         1.00000
          43                65 y            65 z         1.00000
--------------------------------------------------------------------------------


  Components of defect energy : 

--------------------------------------------------------------------------------
  Region 1 - region 1                   =    -13.19887782 eV
  Region 1 - region 2a (unrelaxed)      =     30.13211073 eV
  Region 1 - 2a (relaxed - correction)  =     -0.44525568 eV
  Region 1 (Total)                      =     16.48797723 eV
  Region 2a                             =      0.22267288 eV
  Region 2b                             =     -0.44216360 eV
--------------------------------------------------------------------------------
  Total defect energy                   =     16.26848651 eV
--------------------------------------------------------------------------------

  Largest displacement in region 2 =   0.0176 Angstroms


  Number of variables =      117

  Maximum number of calculations  =        1000
  Maximum Hessian update interval =          10
  Maximum step size               =   1.0000000
  Maximum parameter tolerance     =   0.0000100
  Maximum function  tolerance     =   0.0000100
  Maximum gradient  tolerance     =   0.0010000

  Symmetry adapted optimisation

  Symmetry to be used for second derivatives

  Newton-Raphson optimiser to be used

  BFGS hessian update to be used

  Lower half triangular hessian to be used

  Start of defect optimisation :

  Cycle:      0 Defect Energy:  16.268487  Gnorm:     0.411955  CPU:    5.502
  ** Hessian calculated **
  Cycle:      1 Defect Energy:  12.416258  Gnorm:     0.185340  CPU:    7.847
  Cycle:      2 Defect Energy:  11.654908  Gnorm:     0.037677  CPU:    9.507
  Cycle:      3 Defect Energy:  11.533639  Gnorm:     0.010287  CPU:   11.078
  Cycle:      4 Defect Energy:  11.531606  Gnorm:     0.007395  CPU:   11.614
  Cycle:      5 Defect Energy:  11.530446  Gnorm:     0.005135  CPU:   11.989
  Cycle:      6 Defect Energy:  11.529849  Gnorm:     0.003596  CPU:   12.248
  Cycle:      7 Defect Energy:  11.529531  Gnorm:     0.002514  CPU:   12.585
  Cycle:      8 Defect Energy:  11.529358  Gnorm:     0.001760  CPU:   14.668
  Cycle:      9 Defect Energy:  11.529262  Gnorm:     0.001231  CPU:   16.713
  Cycle:     10 Defect Energy:  11.529206  Gnorm:     0.000862  CPU:   17.823
  ** Hessian calculated **
  Cycle:     11 Defect Energy:  11.529173  Gnorm:     0.000603  CPU:   19.053
  Cycle:     12 Defect Energy:  11.529153  Gnorm:     0.000422  CPU:   19.568
  Cycle:     13 Defect Energy:  11.529140  Gnorm:     0.000296  CPU:   20.095
  Cycle:     14 Defect Energy:  11.529132  Gnorm:     0.000207  CPU:   20.608


  **** Optimisation achieved ****


  Final defect energy  =       11.52912653
  Final defect Gnorm   =        0.00014490

  Components of defect energy : 

--------------------------------------------------------------------------------
  Region 1 - region 1                   =    -17.97819747 eV
  Region 1 - region 2a (unrelaxed)      =     30.14908417 eV
  Region 1 - 2a (relaxed - correction)  =     -0.39908915 eV
  Region 1 (Total)                      =     11.77179755 eV
  Region 2a                             =      0.19949258 eV
  Region 2b                             =     -0.44216360 eV
--------------------------------------------------------------------------------
  Total defect energy                   =     11.52912653 eV
--------------------------------------------------------------------------------

  Largest displacement in region 2 =   0.0176 Angstroms

  Final coordinates of region 1 :

--------------------------------------------------------------------------------
   No.  Atomic        x           y           z          Radius      Charge
        Label       (Angs)      (Angs)      (Angs)       (Angs)       (e) 
--------------------------------------------------------------------------------
     1  Na    c     2.214230    2.214230    4.673933    0.000000    0.670000
     2  Na    c     2.214230    2.214230   -0.245472    0.000000    0.670000
     3  Na    c     4.673933    2.214230    2.214230    0.000000    0.670000
     4  Na    c    -0.245472    2.214230    2.214230    0.000000    0.670000
     5  Na    c     2.214230    4.673933    2.214230    0.000000    0.670000
     6  Na    c     2.214230   -0.245472    2.214230    0.000000    0.670000
     7  Cl    c     4.125759    4.125759    4.125759    0.000000    0.615000
     8  Cl    c     4.125759    4.125759    0.302701    0.000000    0.615000
     9  Cl    c     4.125759    0.302701    4.125759    0.000000    0.615000
    10  Cl    c     4.125759    0.302701    0.302701    0.000000    0.615000
    11  Cl    c     0.302701    4.125759    4.125759    0.000000    0.615000
    12  Cl    c     0.302701    4.125759    0.302701    0.000000    0.615000
    13  Cl    c     0.302701    0.302701    4.125759    0.000000    0.615000
    14  Cl    c     0.302701    0.302701    0.302701    0.000000    0.615000
    15  O     c     2.214230    2.214230    6.795964    0.000000    0.489000
    16  O     c     2.214230    2.214230   -2.367503    0.000000    0.489000
    17  O     c     2.214230    6.795964    2.214230    0.000000    0.489000
    18  O     c     2.214230   -2.367503    2.214230    0.000000    0.489000
    19  O     c     6.795964    2.214230    2.214230    0.000000    0.489000
    20  O     c    -2.367503    2.214230    2.214230    0.000000    0.489000
    21  Na    c     2.214230    6.781958    4.445643    0.000000    0.670000
    22  Na    c     2.214230    6.781958   -0.017182    0.000000    0.670000
    23  Na    c     2.214230   -2.353498    4.445643    0.000000    0.670000
    24  Na    c     2.214230   -2.353498   -0.017182    0.000000    0.670000
    25  Na    c     6.781958    2.214230    4.445643    0.000000    0.670000
    26  Na    c     6.781958    2.214230   -0.017182    0.000000    0.670000
    27  Na    c    -2.353498    2.214230    4.445643    0.000000    0.670000
    28  Na    c    -2.353498    2.214230   -0.017182    0.000000    0.670000
    29  Na    c     4.445643    2.214230    6.781958    0.000000    0.670000
    30  Na    c     4.445643    2.214230   -2.353498    0.000000    0.670000
    31  Na    c     4.445643    6.781958    2.214230    0.000000    0.670000
    32  Na    c     4.445643   -2.353498    2.214230    0.000000    0.670000
    33  Na    c    -0.017182    2.214230    6.781958    0.000000    0.670000
    34  Na    c    -0.017182    2.214230   -2.353498    0.000000    0.670000
    35  Na    c    -0.017182    6.781958    2.214230    0.000000    0.670000
    36  Na    c    -0.017182   -2.353498    2.214230    0.000000    0.670000
    37  Na    c     2.214230    4.445643    6.781958    0.000000    0.670000
    38  Na    c     2.214230    4.445643   -2.353498    0.000000    0.670000
    39  Na    c     2.214230   -0.017182    6.781958    0.000000    0.670000
    40  Na    c     2.214230   -0.017182   -2.353498    0.000000    0.670000
    41  Na    c     6.781958    4.445643    2.214230    0.000000    0.670000
    42  Na    c     6.781958   -0.017182    2.214230    0.000000    0.670000
    43  Na    c    -2.353498    4.445643    2.214230    0.000000    0.670000
    44  Na    c    -2.353498   -0.017182    2.214230    0.000000    0.670000
    45  O     c     2.214230    6.649000    6.649000    0.000000    0.489000
    46  O     c     2.214230    6.649000   -2.220539    0.000000    0.489000
    47  O     c     2.214230   -2.220539    6.649000    0.000000    0.489000
    48  O     c     2.214230   -2.220539   -2.220539    0.000000    0.489000
    49  O     c     6.649000    2.214230    6.649000    0.000000    0.489000
    50  O     c     6.649000    2.214230   -2.220539    0.000000    0.489000
    51  O     c     6.649000    6.649000    2.214230    0.000000    0.489000
    52  O     c     6.649000   -2.220539    2.214230    0.000000    0.489000
    53  O     c    -2.220539    2.214230    6.649000    0.000000    0.489000
    54  O     c    -2.220539    2.214230   -2.220539    0.000000    0.489000
    55  O     c    -2.220539    6.649000    2.214230    0.000000    0.489000
    56  O     c    -2.220539   -2.220539    2.214230    0.000000    0.489000
    57  Na    c     6.704327    6.704327    4.430956    0.000000    0.670000
    58  Na    c     6.704327    6.704327   -0.002495    0.000000    0.670000
    59  Na    c     6.704327   -2.275866    4.430956    0.000000    0.670000
    60  Na    c     6.704327   -2.275866   -0.002495    0.000000    0.670000
    61  Na    c    -2.275866    6.704327    4.430956    0.000000    0.670000
    62  Na    c    -2.275866    6.704327   -0.002495    0.000000    0.670000
    63  Na    c    -2.275866   -2.275866    4.430956    0.000000    0.670000
    64  Na    c    -2.275866   -2.275866   -0.002495    0.000000    0.670000
    65  Na    c     4.430956    6.704327    6.704327    0.000000    0.670000
    66  Na    c     4.430956    6.704327   -2.275866    0.000000    0.670000
    67  Na    c     4.430956   -2.275866    6.704327    0.000000    0.670000
    68  Na    c     4.430956   -2.275866   -2.275866    0.000000    0.670000
    69  Na    c    -0.002495    6.704327    6.704327    0.000000    0.670000
    70  Na    c    -0.002495    6.704327   -2.275866    0.000000    0.670000
    71  Na    c    -0.002495   -2.275866    6.704327    0.000000    0.670000
    72  Na    c    -0.002495   -2.275866   -2.275866    0.000000    0.670000
    73  Na    c     6.704327    4.430956    6.704327    0.000000    0.670000
    74  Na    c     6.704327    4.430956   -2.275866    0.000000    0.670000
    75  Na    c     6.704327   -0.002495    6.704327    0.000000    0.670000
    76  Na    c     6.704327   -0.002495   -2.275866    0.000000    0.670000
    77  Na    c    -2.275866    4.430956    6.704327    0.000000    0.670000
    78  Na    c    -2.275866    4.430956   -2.275866    0.000000    0.670000
    79  Na    c    -2.275866   -0.002495    6.704327    0.000000    0.670000
    80  Na    c    -2.275866   -0.002495   -2.275866    0.000000    0.670000
    81  Na    c     2.214230    2.214230    8.962549    0.000000    0.670000
    82  Na    c     2.214230    2.214230   -4.534088    0.000000    0.670000
    83  Na    c     8.962549    2.214230    2.214230    0.000000    0.670000
    84  Na    c    -4.534088    2.214230    2.214230    0.000000    0.670000
    85  Na    c     2.214230    8.962549    2.214230    0.000000    0.670000
    86  Na    c     2.214230   -4.534088    2.214230    0.000000    0.670000
    87  Cl    c     4.435503    4.435503    8.818558    0.000000    0.615000
    88  Cl    c     4.435503    4.435503   -4.390097    0.000000    0.615000
    89  Cl    c     4.435503    8.818558    4.435503    0.000000    0.615000
    90  Cl    c     4.435503    8.818558   -0.007042    0.000000    0.615000
    91  Cl    c     4.435503   -0.007042    8.818558    0.000000    0.615000
    92  Cl    c     4.435503   -0.007042   -4.390097    0.000000    0.615000
    93  Cl    c     4.435503   -4.390097    4.435503    0.000000    0.615000
    94  Cl    c     4.435503   -4.390097   -0.007042    0.000000    0.615000
    95  Cl    c     8.818558    4.435503    4.435503    0.000000    0.615000
    96  Cl    c     8.818558    4.435503   -0.007042    0.000000    0.615000
    97  Cl    c     8.818558   -0.007042    4.435503    0.000000    0.615000
    98  Cl    c     8.818558   -0.007042   -0.007042    0.000000    0.615000
    99  Cl    c    -0.007042    4.435503    8.818558    0.000000    0.615000
   100  Cl    c    -0.007042    4.435503   -4.390097    0.000000    0.615000
   101  Cl    c    -0.007042    8.818558    4.435503    0.000000    0.615000
   102  Cl    c    -0.007042    8.818558   -0.007042    0.000000    0.615000
   103  Cl    c    -0.007042   -0.007042    8.818558    0.000000    0.615000
   104  Cl    c    -0.007042   -0.007042   -4.390097    0.000000    0.615000
   105  Cl    c    -0.007042   -4.390097    4.435503    0.000000    0.615000
   106  Cl    c    -0.007042   -4.390097   -0.007042    0.000000    0.615000
   107  Cl    c    -4.390097    4.435503    4.435503    0.000000    0.615000
   108  Cl    c    -4.390097    4.435503   -0.007042    0.000000    0.615000
   109  Cl    c    -4.390097   -0.007042    4.435503    0.000000    0.615000
   110  Cl    c    -4.390097   -0.007042   -0.007042    0.000000    0.615000
   111  O     c     6.636097    6.636097    6.636097    0.000000    0.489000
   112  O     c     6.636097    6.636097   -2.207636    0.000000    0.489000
   113  O     c     6.636097   -2.207636    6.636097    0.000000    0.489000
   114  O     c     6.636097   -2.207636   -2.207636    0.000000    0.489000
   115  O     c    -2.207636    6.636097    6.636097    0.000000    0.489000
   116  O     c    -2.207636    6.636097   -2.207636    0.000000    0.489000
   117  O     c    -2.207636   -2.207636    6.636097    0.000000    0.489000
   118  O     c    -2.207636   -2.207636   -2.207636    0.000000    0.489000
   119  Na    c     2.214230    6.681904    8.880580    0.000000    0.670000
   120  Na    c     2.214230    6.681904   -4.452119    0.000000    0.670000
   121  Na    c     2.214230   -2.253444    8.880580    0.000000    0.670000
   122  Na    c     2.214230   -2.253444   -4.452119    0.000000    0.670000
   123  Na    c     6.681904    2.214230    8.880580    0.000000    0.670000
   124  Na    c     6.681904    2.214230   -4.452119    0.000000    0.670000
   125  Na    c    -2.253444    2.214230    8.880580    0.000000    0.670000
   126  Na    c    -2.253444    2.214230   -4.452119    0.000000    0.670000
   127  Na    c     8.880580    2.214230    6.681904    0.000000    0.670000
   128  Na    c     8.880580    2.214230   -2.253444    0.000000    0.670000
   129  Na    c     8.880580    6.681904    2.214230    0.000000    0.670000
   130  Na    c     8.880580   -2.253444    2.214230    0.000000    0.670000
   131  Na    c    -4.452119    2.214230    6.681904    0.000000    0.670000
   132  Na    c    -4.452119    2.214230   -2.253444    0.000000    0.670000
   133  Na    c    -4.452119    6.681904    2.214230    0.000000    0.670000
   134  Na    c    -4.452119   -2.253444    2.214230    0.000000    0.670000
   135  Na    c     2.214230    8.880580    6.681904    0.000000    0.670000
   136  Na    c     2.214230    8.880580   -2.253444    0.000000    0.670000
   137  Na    c     2.214230   -4.452119    6.681904    0.000000    0.670000
   138  Na    c     2.214230   -4.452119   -2.253444    0.000000    0.670000
   139  Na    c     6.681904    8.880580    2.214230    0.000000    0.670000
   140  Na    c     6.681904   -4.452119    2.214230    0.000000    0.670000
   141  Na    c    -2.253444    8.880580    2.214230    0.000000    0.670000
   142  Na    c    -2.253444   -4.452119    2.214230    0.000000    0.670000
   143  O     c     2.214230    2.214230   11.133324    0.000000    0.489000
   144  O     c     2.214230    2.214230   -6.704863    0.000000    0.489000
   145  O     c     2.214230   11.133324    2.214230    0.000000    0.489000
   146  O     c     2.214230   -6.704863    2.214230    0.000000    0.489000
   147  O     c    11.133324    2.214230    2.214230    0.000000    0.489000
   148  O     c    -6.704863    2.214230    2.214230    0.000000    0.489000
   149  Na    c     2.214230   11.143774    4.434744    0.000000    0.670000
   150  Na    c     2.214230   11.143774   -0.006283    0.000000    0.670000
   151  Na    c     2.214230   -6.715313    4.434744    0.000000    0.670000
   152  Na    c     2.214230   -6.715313   -0.006283    0.000000    0.670000
   153  Na    c    11.143774    2.214230    4.434744    0.000000    0.670000
   154  Na    c    11.143774    2.214230   -0.006283    0.000000    0.670000
   155  Na    c    -6.715313    2.214230    4.434744    0.000000    0.670000
   156  Na    c    -6.715313    2.214230   -0.006283    0.000000    0.670000
   157  Na    c     4.434744    2.214230   11.143774    0.000000    0.670000
   158  Na    c     4.434744    2.214230   -6.715313    0.000000    0.670000
   159  Na    c     4.434744   11.143774    2.214230    0.000000    0.670000
   160  Na    c     4.434744   -6.715313    2.214230    0.000000    0.670000
   161  Na    c    -0.006283    2.214230   11.143774    0.000000    0.670000
   162  Na    c    -0.006283    2.214230   -6.715313    0.000000    0.670000
   163  Na    c    -0.006283   11.143774    2.214230    0.000000    0.670000
   164  Na    c    -0.006283   -6.715313    2.214230    0.000000    0.670000
   165  Na    c     2.214230    4.434744   11.143774    0.000000    0.670000
   166  Na    c     2.214230    4.434744   -6.715313    0.000000    0.670000
   167  Na    c     2.214230   -0.006283   11.143774    0.000000    0.670000
   168  Na    c     2.214230   -0.006283   -6.715313    0.000000    0.670000
   169  Na    c    11.143774    4.434744    2.214230    0.000000    0.670000
   170  Na    c    11.143774   -0.006283    2.214230    0.000000    0.670000
   171  Na    c    -6.715313    4.434744    2.214230    0.000000    0.670000
   172  Na    c    -6.715313   -0.006283    2.214230    0.000000    0.670000
   173  Na    c     6.659503    6.659503    8.864902    0.000000    0.670000
   174  Na    c     6.659503    6.659503   -4.436442    0.000000    0.670000
   175  Na    c     6.659503   -2.231042    8.864902    0.000000    0.670000
   176  Na    c     6.659503   -2.231042   -4.436442    0.000000    0.670000
   177  Na    c    -2.231042    6.659503    8.864902    0.000000    0.670000
   178  Na    c    -2.231042    6.659503   -4.436442    0.000000    0.670000
   179  Na    c    -2.231042   -2.231042    8.864902    0.000000    0.670000
   180  Na    c    -2.231042   -2.231042   -4.436442    0.000000    0.670000
   181  Na    c     8.864902    6.659503    6.659503    0.000000    0.670000
   182  Na    c     8.864902    6.659503   -2.231042    0.000000    0.670000
   183  Na    c     8.864902   -2.231042    6.659503    0.000000    0.670000
   184  Na    c     8.864902   -2.231042   -2.231042    0.000000    0.670000
   185  Na    c    -4.436442    6.659503    6.659503    0.000000    0.670000
   186  Na    c    -4.436442    6.659503   -2.231042    0.000000    0.670000
   187  Na    c    -4.436442   -2.231042    6.659503    0.000000    0.670000
   188  Na    c    -4.436442   -2.231042   -2.231042    0.000000    0.670000
   189  Na    c     6.659503    8.864902    6.659503    0.000000    0.670000
   190  Na    c     6.659503    8.864902   -2.231042    0.000000    0.670000
   191  Na    c     6.659503   -4.436442    6.659503    0.000000    0.670000
   192  Na    c     6.659503   -4.436442   -2.231042    0.000000    0.670000
   193  Na    c    -2.231042    8.864902    6.659503    0.000000    0.670000
   194  Na    c    -2.231042    8.864902   -2.231042    0.000000    0.670000
   195  Na    c    -2.231042   -4.436442    6.659503    0.000000    0.670000
   196  Na    c    -2.231042   -4.436442   -2.231042    0.000000    0.670000
   197  Cl    c     4.415828    8.826458    8.826458    0.000000    0.615000
   198  Cl    c     4.415828    8.826458   -4.397997    0.000000    0.615000
   199  Cl    c     4.415828   -4.397997    8.826458    0.000000    0.615000
   200  Cl    c     4.415828   -4.397997   -4.397997    0.000000    0.615000
   201  Cl    c     8.826458    4.415828    8.826458    0.000000    0.615000
   202  Cl    c     8.826458    4.415828   -4.397997    0.000000    0.615000
   203  Cl    c     8.826458    8.826458    4.415828    0.000000    0.615000
   204  Cl    c     8.826458    8.826458    0.012633    0.000000    0.615000
   205  Cl    c     8.826458    0.012633    8.826458    0.000000    0.615000
   206  Cl    c     8.826458    0.012633   -4.397997    0.000000    0.615000
   207  Cl    c     8.826458   -4.397997    4.415828    0.000000    0.615000
   208  Cl    c     8.826458   -4.397997    0.012633    0.000000    0.615000
   209  Cl    c     0.012633    8.826458    8.826458    0.000000    0.615000
   210  Cl    c     0.012633    8.826458   -4.397997    0.000000    0.615000
   211  Cl    c     0.012633   -4.397997    8.826458    0.000000    0.615000
   212  Cl    c     0.012633   -4.397997   -4.397997    0.000000    0.615000
   213  Cl    c    -4.397997    4.415828    8.826458    0.000000    0.615000
   214  Cl    c    -4.397997    4.415828   -4.397997    0.000000    0.615000
   215  Cl    c    -4.397997    8.826458    4.415828    0.000000    0.615000
   216  Cl    c    -4.397997    8.826458    0.012633    0.000000    0.615000
   217  Cl    c    -4.397997    0.012633    8.826458    0.000000    0.615000
   218  Cl    c    -4.397997    0.012633   -4.397997    0.000000    0.615000
   219  Cl    c    -4.397997   -4.397997    4.415828    0.000000    0.615000
   220  Cl    c    -4.397997   -4.397997    0.012633    0.000000    0.615000
   221  O     c     2.214230    6.645167   11.082230    0.000000    0.489000
   222  O     c     2.214230    6.645167   -6.653770    0.000000    0.489000
   223  O     c     2.214230   11.082230    6.645167    0.000000    0.489000
   224  O     c     2.214230   11.082230   -2.216706    0.000000    0.489000
   225  O     c     2.214230   -2.216706   11.082230    0.000000    0.489000
   226  O     c     2.214230   -2.216706   -6.653770    0.000000    0.489000
   227  O     c     2.214230   -6.653770    6.645167    0.000000    0.489000
   228  O     c     2.214230   -6.653770   -2.216706    0.000000    0.489000
   229  O     c     6.645167    2.214230   11.082230    0.000000    0.489000
   230  O     c     6.645167    2.214230   -6.653770    0.000000    0.489000
   231  O     c     6.645167   11.082230    2.214230    0.000000    0.489000
   232  O     c     6.645167   -6.653770    2.214230    0.000000    0.489000
   233  O     c    11.082230    2.214230    6.645167    0.000000    0.489000
   234  O     c    11.082230    2.214230   -2.216706    0.000000    0.489000
   235  O     c    11.082230    6.645167    2.214230    0.000000    0.489000
   236  O     c    11.082230   -2.216706    2.214230    0.000000    0.489000
   237  O     c    -2.216706    2.214230   11.082230    0.000000    0.489000
   238  O     c    -2.216706    2.214230   -6.653770    0.000000    0.489000
   239  O     c    -2.216706   11.082230    2.214230    0.000000    0.489000
   240  O     c    -2.216706   -6.653770    2.214230    0.000000    0.489000
   241  O     c    -6.653770    2.214230    6.645167    0.000000    0.489000
   242  O     c    -6.653770    2.214230   -2.216706    0.000000    0.489000
   243  O     c    -6.653770    6.645167    2.214230    0.000000    0.489000
   244  O     c    -6.653770   -2.216706    2.214230    0.000000    0.489000
   245  Na    c     6.650210   11.095279    4.431442    0.000000    0.670000
   246  Na    c     6.650210   11.095279   -0.002981    0.000000    0.670000
   247  Na    c     6.650210   -6.666819    4.431442    0.000000    0.670000
   248  Na    c     6.650210   -6.666819   -0.002981    0.000000    0.670000
   249  Na    c    11.095279    6.650210    4.431442    0.000000    0.670000
   250  Na    c    11.095279    6.650210   -0.002981    0.000000    0.670000
   251  Na    c    11.095279   -2.221750    4.431442    0.000000    0.670000
   252  Na    c    11.095279   -2.221750   -0.002981    0.000000    0.670000
   253  Na    c    -2.221750   11.095279    4.431442    0.000000    0.670000
   254  Na    c    -2.221750   11.095279   -0.002981    0.000000    0.670000
   255  Na    c    -2.221750   -6.666819    4.431442    0.000000    0.670000
   256  Na    c    -2.221750   -6.666819   -0.002981    0.000000    0.670000
   257  Na    c    -6.666819    6.650210    4.431442    0.000000    0.670000
   258  Na    c    -6.666819    6.650210   -0.002981    0.000000    0.670000
   259  Na    c    -6.666819   -2.221750    4.431442    0.000000    0.670000
   260  Na    c    -6.666819   -2.221750   -0.002981    0.000000    0.670000
   261  Na    c     4.431442    6.650210   11.095279    0.000000    0.670000
   262  Na    c     4.431442    6.650210   -6.666819    0.000000    0.670000
   263  Na    c     4.431442   11.095279    6.650210    0.000000    0.670000
   264  Na    c     4.431442   11.095279   -2.221750    0.000000    0.670000
   265  Na    c     4.431442   -2.221750   11.095279    0.000000    0.670000
   266  Na    c     4.431442   -2.221750   -6.666819    0.000000    0.670000
   267  Na    c     4.431442   -6.666819    6.650210    0.000000    0.670000
   268  Na    c     4.431442   -6.666819   -2.221750    0.000000    0.670000
   269  Na    c    -0.002981    6.650210   11.095279    0.000000    0.670000
   270  Na    c    -0.002981    6.650210   -6.666819    0.000000    0.670000
   271  Na    c    -0.002981   11.095279    6.650210    0.000000    0.670000
   272  Na    c    -0.002981   11.095279   -2.221750    0.000000    0.670000
   273  Na    c    -0.002981   -2.221750   11.095279    0.000000    0.670000
   274  Na    c    -0.002981   -2.221750   -6.666819    0.000000    0.670000
   275  Na    c    -0.002981   -6.666819    6.650210    0.000000    0.670000
   276  Na    c    -0.002981   -6.666819   -2.221750    0.000000    0.670000
   277  Na    c     6.650210    4.431442   11.095279    0.000000    0.670000
   278  Na    c     6.650210    4.431442   -6.666819    0.000000    0.670000
   279  Na    c     6.650210   -0.002981   11.095279    0.000000    0.670000
   280  Na    c     6.650210   -0.002981   -6.666819    0.000000    0.670000
   281  Na    c    11.095279    4.431442    6.650210    0.000000    0.670000
   282  Na    c    11.095279    4.431442   -2.221750    0.000000    0.670000
   283  Na    c    11.095279   -0.002981    6.650210    0.000000    0.670000
   284  Na    c    11.095279   -0.002981   -2.221750    0.000000    0.670000
   285  Na    c    -2.221750    4.431442   11.095279    0.000000    0.670000
   286  Na    c    -2.221750    4.431442   -6.666819    0.000000    0.670000
   287  Na    c    -2.221750   -0.002981   11.095279    0.000000    0.670000
   288  Na    c    -2.221750   -0.002981   -6.666819    0.000000    0.670000
   289  Na    c    -6.666819    4.431442    6.650210    0.000000    0.670000
   290  Na    c    -6.666819    4.431442   -2.221750    0.000000    0.670000
   291  Na    c    -6.666819   -0.002981    6.650210    0.000000    0.670000
   292  Na    c    -6.666819   -0.002981   -2.221750    0.000000    0.670000
   293  O     c     6.644078    6.644078   11.073015    0.000000    0.489000
   294  O     c     6.644078    6.644078   -6.644554    0.000000    0.489000
   295  O     c     6.644078   11.073015    6.644078    0.000000    0.489000
   296  O     c     6.644078   11.073015   -2.215617    0.000000    0.489000
   297  O     c     6.644078   -2.215617   11.073015    0.000000    0.489000
   298  O     c     6.644078   -2.215617   -6.644554    0.000000    0.489000
   299  O     c     6.644078   -6.644554    6.644078    0.000000    0.489000
   300  O     c     6.644078   -6.644554   -2.215617    0.000000    0.489000
   301  O     c    11.073015    6.644078    6.644078    0.000000    0.489000
   302  O     c    11.073015    6.644078   -2.215617    0.000000    0.489000
   303  O     c    11.073015   -2.215617    6.644078    0.000000    0.489000
   304  O     c    11.073015   -2.215617   -2.215617    0.000000    0.489000
   305  O     c    -2.215617    6.644078   11.073015    0.000000    0.489000
   306  O     c    -2.215617    6.644078   -6.644554    0.000000    0.489000
   307  O     c    -2.215617   11.073015    6.644078    0.000000    0.489000
   308  O     c    -2.215617   11.073015   -2.215617    0.000000    0.489000
   309  O     c    -2.215617   -2.215617   11.073015    0.000000    0.489000
   310  O     c    -2.215617   -2.215617   -6.644554    0.000000    0.489000
   311  O     c    -2.215617   -6.644554    6.644078    0.000000    0.489000
   312  O     c    -2.215617   -6.644554   -2.215617    0.000000    0.489000
   313  O     c    -6.644554    6.644078    6.644078    0.000000    0.489000
   314  O     c    -6.644554    6.644078   -2.215617    0.000000    0.489000
   315  O     c    -6.644554   -2.215617    6.644078    0.000000    0.489000
   316  O     c    -6.644554   -2.215617   -2.215617    0.000000    0.489000
   317  Na    c     2.214230   11.098063    8.863196    0.000000    0.670000
   318  Na    c     2.214230   11.098063   -4.434735    0.000000    0.670000
   319  Na    c     2.214230   -6.669602    8.863196    0.000000    0.670000
   320  Na    c     2.214230   -6.669602   -4.434735    0.000000    0.670000
   321  Na    c    11.098063    2.214230    8.863196    0.000000    0.670000
   322  Na    c    11.098063    2.214230   -4.434735    0.000000    0.670000
   323  Na    c    -6.669602    2.214230    8.863196    0.000000    0.670000
   324  Na    c    -6.669602    2.214230   -4.434735    0.000000    0.670000
   325  Na    c     8.863196    2.214230   11.098063    0.000000    0.670000
   326  Na    c     8.863196    2.214230   -6.669602    0.000000    0.670000
   327  Na    c     8.863196   11.098063    2.214230    0.000000    0.670000
   328  Na    c     8.863196   -6.669602    2.214230    0.000000    0.670000
   329  Na    c    -4.434735    2.214230   11.098063    0.000000    0.670000
   330  Na    c    -4.434735    2.214230   -6.669602    0.000000    0.670000
   331  Na    c    -4.434735   11.098063    2.214230    0.000000    0.670000
   332  Na    c    -4.434735   -6.669602    2.214230    0.000000    0.670000
   333  Na    c     2.214230    8.863196   11.098063    0.000000    0.670000
   334  Na    c     2.214230    8.863196   -6.669602    0.000000    0.670000
   335  Na    c     2.214230   -4.434735   11.098063    0.000000    0.670000
   336  Na    c     2.214230   -4.434735   -6.669602    0.000000    0.670000
   337  Na    c    11.098063    8.863196    2.214230    0.000000    0.670000
   338  Na    c    11.098063   -4.434735    2.214230    0.000000    0.670000
   339  Na    c    -6.669602    8.863196    2.214230    0.000000    0.670000
   340  Na    c    -6.669602   -4.434735    2.214230    0.000000    0.670000
   341  Na    c     2.214230    2.214230   13.328374    0.000000    0.670000
   342  Na    c     2.214230    2.214230   -8.899914    0.000000    0.670000
   343  Na    c    13.328374    2.214230    2.214230    0.000000    0.670000
   344  Na    c    -8.899914    2.214230    2.214230    0.000000    0.670000
   345  Na    c     2.214230   13.328374    2.214230    0.000000    0.670000
   346  Na    c     2.214230   -8.899914    2.214230    0.000000    0.670000
   347  Cl    c     4.427482    4.427482   13.267969    0.000000    0.615000
   348  Cl    c     4.427482    4.427482   -8.839508    0.000000    0.615000
   349  Cl    c     4.427482   13.267969    4.427482    0.000000    0.615000
   350  Cl    c     4.427482   13.267969    0.000979    0.000000    0.615000
   351  Cl    c     4.427482    0.000979   13.267969    0.000000    0.615000
   352  Cl    c     4.427482    0.000979   -8.839508    0.000000    0.615000
   353  Cl    c     4.427482   -8.839508    4.427482    0.000000    0.615000
   354  Cl    c     4.427482   -8.839508    0.000979    0.000000    0.615000
   355  Cl    c    13.267969    4.427482    4.427482    0.000000    0.615000
   356  Cl    c    13.267969    4.427482    0.000979    0.000000    0.615000
   357  Cl    c    13.267969    0.000979    4.427482    0.000000    0.615000
   358  Cl    c    13.267969    0.000979    0.000979    0.000000    0.615000
   359  Cl    c     0.000979    4.427482   13.267969    0.000000    0.615000
   360  Cl    c     0.000979    4.427482   -8.839508    0.000000    0.615000
   361  Cl    c     0.000979   13.267969    4.427482    0.000000    0.615000
   362  Cl    c     0.000979   13.267969    0.000979    0.000000    0.615000
   363  Cl    c     0.000979    0.000979   13.267969    0.000000    0.615000
   364  Cl    c     0.000979    0.000979   -8.839508    0.000000    0.615000
   365  Cl    c     0.000979   -8.839508    4.427482    0.000000    0.615000
   366  Cl    c     0.000979   -8.839508    0.000979    0.000000    0.615000
   367  Cl    c    -8.839508    4.427482    4.427482    0.000000    0.615000
   368  Cl    c    -8.839508    4.427482    0.000979    0.000000    0.615000
   369  Cl    c    -8.839508    0.000979    4.427482    0.000000    0.615000
   370  Cl    c    -8.839508    0.000979    0.000979    0.000000    0.615000
   371  Cl    c     8.831684    8.831684    8.831684    0.000000    0.615000
   372  Cl    c     8.831684    8.831684   -4.403223    0.000000    0.615000
   373  Cl    c     8.831684   -4.403223    8.831684    0.000000    0.615000
   374  Cl    c     8.831684   -4.403223   -4.403223    0.000000    0.615000
   375  Cl    c    -4.403223    8.831684    8.831684    0.000000    0.615000
   376  Cl    c    -4.403223    8.831684   -4.403223    0.000000    0.615000
   377  Cl    c    -4.403223   -4.403223    8.831684    0.000000    0.615000
   378  Cl    c    -4.403223   -4.403223   -4.403223    0.000000    0.615000
   379  Na    c     6.648321   11.086979    8.860642    0.000000    0.670000
   380  Na    c     6.648321   11.086979   -4.432182    0.000000    0.670000
   381  Na    c     6.648321   -6.658518    8.860642    0.000000    0.670000
   382  Na    c     6.648321   -6.658518   -4.432182    0.000000    0.670000
   383  Na    c    11.086979    6.648321    8.860642    0.000000    0.670000
   384  Na    c    11.086979    6.648321   -4.432182    0.000000    0.670000
   385  Na    c    11.086979   -2.219860    8.860642    0.000000    0.670000
   386  Na    c    11.086979   -2.219860   -4.432182    0.000000    0.670000
   387  Na    c    -2.219860   11.086979    8.860642    0.000000    0.670000
   388  Na    c    -2.219860   11.086979   -4.432182    0.000000    0.670000
   389  Na    c    -2.219860   -6.658518    8.860642    0.000000    0.670000
   390  Na    c    -2.219860   -6.658518   -4.432182    0.000000    0.670000
   391  Na    c    -6.658518    6.648321    8.860642    0.000000    0.670000
   392  Na    c    -6.658518    6.648321   -4.432182    0.000000    0.670000
   393  Na    c    -6.658518   -2.219860    8.860642    0.000000    0.670000
   394  Na    c    -6.658518   -2.219860   -4.432182    0.000000    0.670000
   395  Na    c     8.860642    6.648321   11.086979    0.000000    0.670000
   396  Na    c     8.860642    6.648321   -6.658518    0.000000    0.670000
   397  Na    c     8.860642   11.086979    6.648321    0.000000    0.670000
   398  Na    c     8.860642   11.086979   -2.219860    0.000000    0.670000
   399  Na    c     8.860642   -2.219860   11.086979    0.000000    0.670000
   400  Na    c     8.860642   -2.219860   -6.658518    0.000000    0.670000
   401  Na    c     8.860642   -6.658518    6.648321    0.000000    0.670000
   402  Na    c     8.860642   -6.658518   -2.219860    0.000000    0.670000
   403  Na    c    -4.432182    6.648321   11.086979    0.000000    0.670000
   404  Na    c    -4.432182    6.648321   -6.658518    0.000000    0.670000
   405  Na    c    -4.432182   11.086979    6.648321    0.000000    0.670000
   406  Na    c    -4.432182   11.086979   -2.219860    0.000000    0.670000
   407  Na    c    -4.432182   -2.219860   11.086979    0.000000    0.670000
   408  Na    c    -4.432182   -2.219860   -6.658518    0.000000    0.670000
   409  Na    c    -4.432182   -6.658518    6.648321    0.000000    0.670000
   410  Na    c    -4.432182   -6.658518   -2.219860    0.000000    0.670000
   411  Na    c     6.648321    8.860642   11.086979    0.000000    0.670000
   412  Na    c     6.648321    8.860642   -6.658518    0.000000    0.670000
   413  Na    c     6.648321   -4.432182   11.086979    0.000000    0.670000
   414  Na    c     6.648321   -4.432182   -6.658518    0.000000    0.670000
   415  Na    c    11.086979    8.860642    6.648321    0.000000    0.670000
   416  Na    c    11.086979    8.860642   -2.219860    0.000000    0.670000
   417  Na    c    11.086979   -4.432182    6.648321    0.000000    0.670000
   418  Na    c    11.086979   -4.432182   -2.219860    0.000000    0.670000
   419  Na    c    -2.219860    8.860642   11.086979    0.000000    0.670000
   420  Na    c    -2.219860    8.860642   -6.658518    0.000000    0.670000
   421  Na    c    -2.219860   -4.432182   11.086979    0.000000    0.670000
   422  Na    c    -2.219860   -4.432182   -6.658518    0.000000    0.670000
   423  Na    c    -6.658518    8.860642    6.648321    0.000000    0.670000
   424  Na    c    -6.658518    8.860642   -2.219860    0.000000    0.670000
   425  Na    c    -6.658518   -4.432182    6.648321    0.000000    0.670000
   426  Na    c    -6.658518   -4.432182   -2.219860    0.000000    0.670000
   427  Na    c     2.214230    6.665078   13.298153    0.000000    0.670000
   428  Na    c     2.214230    6.665078   -8.869692    0.000000    0.670000
   429  Na    c     2.214230   -2.236617   13.298153    0.000000    0.670000
   430  Na    c     2.214230   -2.236617   -8.869692    0.000000    0.670000
   431  Na    c     6.665078    2.214230   13.298153    0.000000    0.670000
   432  Na    c     6.665078    2.214230   -8.869692    0.000000    0.670000
   433  Na    c    -2.236617    2.214230   13.298153    0.000000    0.670000
   434  Na    c    -2.236617    2.214230   -8.869692    0.000000    0.670000
   435  Na    c    13.298153    2.214230    6.665078    0.000000    0.670000
   436  Na    c    13.298153    2.214230   -2.236617    0.000000    0.670000
   437  Na    c    13.298153    6.665078    2.214230    0.000000    0.670000
   438  Na    c    13.298153   -2.236617    2.214230    0.000000    0.670000
   439  Na    c    -8.869692    2.214230    6.665078    0.000000    0.670000
   440  Na    c    -8.869692    2.214230   -2.236617    0.000000    0.670000
   441  Na    c    -8.869692    6.665078    2.214230    0.000000    0.670000
   442  Na    c    -8.869692   -2.236617    2.214230    0.000000    0.670000
   443  Na    c     2.214230   13.298153    6.665078    0.000000    0.670000
   444  Na    c     2.214230   13.298153   -2.236617    0.000000    0.670000
   445  Na    c     2.214230   -8.869692    6.665078    0.000000    0.670000
   446  Na    c     2.214230   -8.869692   -2.236617    0.000000    0.670000
   447  Na    c     6.665078   13.298153    2.214230    0.000000    0.670000
   448  Na    c     6.665078   -8.869692    2.214230    0.000000    0.670000
   449  Na    c    -2.236617   13.298153    2.214230    0.000000    0.670000
   450  Na    c    -2.236617   -8.869692    2.214230    0.000000    0.670000
   451  O     c     2.214230   11.071016   11.071016    0.000000    0.489000
   452  O     c     2.214230   11.071016   -6.642555    0.000000    0.489000
   453  O     c     2.214230   -6.642555   11.071016    0.000000    0.489000
   454  O     c     2.214230   -6.642555   -6.642555    0.000000    0.489000
   455  O     c    11.071016    2.214230   11.071016    0.000000    0.489000
   456  O     c    11.071016    2.214230   -6.642555    0.000000    0.489000
   457  O     c    11.071016   11.071016    2.214230    0.000000    0.489000
   458  O     c    11.071016   -6.642555    2.214230    0.000000    0.489000
   459  O     c    -6.642555    2.214230   11.071016    0.000000    0.489000
   460  O     c    -6.642555    2.214230   -6.642555    0.000000    0.489000
   461  O     c    -6.642555   11.071016    2.214230    0.000000    0.489000
   462  O     c    -6.642555   -6.642555    2.214230    0.000000    0.489000
   463  Na    c    11.084151   11.084151    4.429365    0.000000    0.670000
   464  Na    c    11.084151   11.084151   -0.000904    0.000000    0.670000
   465  Na    c    11.084151   -6.655690    4.429365    0.000000    0.670000
   466  Na    c    11.084151   -6.655690   -0.000904    0.000000    0.670000
   467  Na    c    -6.655690   11.084151    4.429365    0.000000    0.670000
   468  Na    c    -6.655690   11.084151   -0.000904    0.000000    0.670000
   469  Na    c    -6.655690   -6.655690    4.429365    0.000000    0.670000
   470  Na    c    -6.655690   -6.655690   -0.000904    0.000000    0.670000
   471  Na    c     4.429365   11.084151   11.084151    0.000000    0.670000
   472  Na    c     4.429365   11.084151   -6.655690    0.000000    0.670000
   473  Na    c     4.429365   -6.655690   11.084151    0.000000    0.670000
   474  Na    c     4.429365   -6.655690   -6.655690    0.000000    0.670000
   475  Na    c    -0.000904   11.084151   11.084151    0.000000    0.670000
   476  Na    c    -0.000904   11.084151   -6.655690    0.000000    0.670000
   477  Na    c    -0.000904   -6.655690   11.084151    0.000000    0.670000
   478  Na    c    -0.000904   -6.655690   -6.655690    0.000000    0.670000
   479  Na    c    11.084151    4.429365   11.084151    0.000000    0.670000
   480  Na    c    11.084151    4.429365   -6.655690    0.000000    0.670000
   481  Na    c    11.084151   -0.000904   11.084151    0.000000    0.670000
   482  Na    c    11.084151   -0.000904   -6.655690    0.000000    0.670000
   483  Na    c    -6.655690    4.429365   11.084151    0.000000    0.670000
   484  Na    c    -6.655690    4.429365   -6.655690    0.000000    0.670000
   485  Na    c    -6.655690   -0.000904   11.084151    0.000000    0.670000
   486  Na    c    -6.655690   -0.000904   -6.655690    0.000000    0.670000
   487  Na    c     6.653251    6.653251   13.291193    0.000000    0.670000
   488  Na    c     6.653251    6.653251   -8.862733    0.000000    0.670000
   489  Na    c     6.653251   -2.224791   13.291193    0.000000    0.670000
   490  Na    c     6.653251   -2.224791   -8.862733    0.000000    0.670000
   491  Na    c    -2.224791    6.653251   13.291193    0.000000    0.670000
   492  Na    c    -2.224791    6.653251   -8.862733    0.000000    0.670000
   493  Na    c    -2.224791   -2.224791   13.291193    0.000000    0.670000
   494  Na    c    -2.224791   -2.224791   -8.862733    0.000000    0.670000
   495  Na    c    13.291193    6.653251    6.653251    0.000000    0.670000
   496  Na    c    13.291193    6.653251   -2.224791    0.000000    0.670000
   497  Na    c    13.291193   -2.224791    6.653251    0.000000    0.670000
   498  Na    c    13.291193   -2.224791   -2.224791    0.000000    0.670000
   499  Na    c    -8.862733    6.653251    6.653251    0.000000    0.670000
   500  Na    c    -8.862733    6.653251   -2.224791    0.000000    0.670000
   501  Na    c    -8.862733   -2.224791    6.653251    0.000000    0.670000
   502  Na    c    -8.862733   -2.224791   -2.224791    0.000000    0.670000
   503  Na    c     6.653251   13.291193    6.653251    0.000000    0.670000
   504  Na    c     6.653251   13.291193   -2.224791    0.000000    0.670000
   505  Na    c     6.653251   -8.862733    6.653251    0.000000    0.670000
   506  Na    c     6.653251   -8.862733   -2.224791    0.000000    0.670000
   507  Na    c    -2.224791   13.291193    6.653251    0.000000    0.670000
   508  Na    c    -2.224791   13.291193   -2.224791    0.000000    0.670000
   509  Na    c    -2.224791   -8.862733    6.653251    0.000000    0.670000
   510  Na    c    -2.224791   -8.862733   -2.224791    0.000000    0.670000
   511  Cl    c     8.845634   13.265690    4.424634    0.000000    0.615000
   512  Cl    c     8.845634   13.265690    0.003827    0.000000    0.615000
   513  Cl    c     8.845634   -8.837229    4.424634    0.000000    0.615000
   514  Cl    c     8.845634   -8.837229    0.003827    0.000000    0.615000
   515  Cl    c    13.265690    8.845634    4.424634    0.000000    0.615000
   516  Cl    c    13.265690    8.845634    0.003827    0.000000    0.615000
   517  Cl    c    13.265690   -4.417173    4.424634    0.000000    0.615000
   518  Cl    c    13.265690   -4.417173    0.003827    0.000000    0.615000
   519  Cl    c    -4.417173   13.265690    4.424634    0.000000    0.615000
   520  Cl    c    -4.417173   13.265690    0.003827    0.000000    0.615000
   521  Cl    c    -4.417173   -8.837229    4.424634    0.000000    0.615000
   522  Cl    c    -4.417173   -8.837229    0.003827    0.000000    0.615000
   523  Cl    c    -8.837229    8.845634    4.424634    0.000000    0.615000
   524  Cl    c    -8.837229    8.845634    0.003827    0.000000    0.615000
   525  Cl    c    -8.837229   -4.417173    4.424634    0.000000    0.615000
   526  Cl    c    -8.837229   -4.417173    0.003827    0.000000    0.615000
   527  Cl    c     4.424634    8.845634   13.265690    0.000000    0.615000
   528  Cl    c     4.424634    8.845634   -8.837229    0.000000    0.615000
   529  Cl    c     4.424634   13.265690    8.845634    0.000000    0.615000
   530  Cl    c     4.424634   13.265690   -4.417173    0.000000    0.615000
   531  Cl    c     4.424634   -4.417173   13.265690    0.000000    0.615000
   532  Cl    c     4.424634   -4.417173   -8.837229    0.000000    0.615000
   533  Cl    c     4.424634   -8.837229    8.845634    0.000000    0.615000
   534  Cl    c     4.424634   -8.837229   -4.417173    0.000000    0.615000
   535  Cl    c     8.845634    4.424634   13.265690    0.000000    0.615000
   536  Cl    c     8.845634    4.424634   -8.837229    0.000000    0.615000
   537  Cl    c     8.845634    0.003827   13.265690    0.000000    0.615000
   538  Cl    c     8.845634    0.003827   -8.837229    0.000000    0.615000
   539  Cl    c    13.265690    4.424634    8.845634    0.000000    0.615000
   540  Cl    c    13.265690    4.424634   -4.417173    0.000000    0.615000
   541  Cl    c    13.265690    0.003827    8.845634    0.000000    0.615000
   542  Cl    c    13.265690    0.003827   -4.417173    0.000000    0.615000
   543  Cl    c     0.003827    8.845634   13.265690    0.000000    0.615000
   544  Cl    c     0.003827    8.845634   -8.837229    0.000000    0.615000
   545  Cl    c     0.003827   13.265690    8.845634    0.000000    0.615000
   546  Cl    c     0.003827   13.265690   -4.417173    0.000000    0.615000
   547  Cl    c     0.003827   -4.417173   13.265690    0.000000    0.615000
   548  Cl    c     0.003827   -4.417173   -8.837229    0.000000    0.615000
   549  Cl    c     0.003827   -8.837229    8.845634    0.000000    0.615000
   550  Cl    c     0.003827   -8.837229   -4.417173    0.000000    0.615000
   551  Cl    c    -4.417173    4.424634   13.265690    0.000000    0.615000
   552  Cl    c    -4.417173    4.424634   -8.837229    0.000000    0.615000
   553  Cl    c    -4.417173    0.003827   13.265690    0.000000    0.615000
   554  Cl    c    -4.417173    0.003827   -8.837229    0.000000    0.615000
   555  Cl    c    -8.837229    4.424634    8.845634    0.000000    0.615000
   556  Cl    c    -8.837229    4.424634   -4.417173    0.000000    0.615000
   557  Cl    c    -8.837229    0.003827    8.845634    0.000000    0.615000
   558  Cl    c    -8.837229    0.003827   -4.417173    0.000000    0.615000
   559  O     c     2.214230    2.214230   15.519717    0.000000    0.489000
   560  O     c     2.214230   15.519717    2.214230    0.000000    0.489000
   561  O     c    15.519717    2.214230    2.214230    0.000000    0.489000
   562  O     c     2.214230    2.214230  -11.091256    0.000000    0.489000
   563  O     c     2.214230  -11.091256    2.214230    0.000000    0.489000
   564  O     c   -11.091256    2.214230    2.214230    0.000000    0.489000
   565  O     c     6.642470   11.071360   11.071360    0.000000    0.489000
   566  O     c     6.642470   11.071360   -6.642899    0.000000    0.489000
   567  O     c     6.642470   -6.642899   11.071360    0.000000    0.489000
   568  O     c     6.642470   -6.642899   -6.642899    0.000000    0.489000
   569  O     c    11.071360    6.642470   11.071360    0.000000    0.489000
   570  O     c    11.071360    6.642470   -6.642899    0.000000    0.489000
   571  O     c    11.071360   11.071360    6.642470    0.000000    0.489000
[...]
    26  Na    c       0.000438      0.000000      0.000630      0.000000
    27  Cl    c       0.000541      0.000971      0.000121      0.000000
    28  O     c       0.000000      0.000000      0.000090      0.000000
    29  O     c       0.000153      0.000597      0.000000      0.000000
    30  Na    c       0.000000      0.000546      0.000073      0.000000
    31  O     c       0.000000      0.000137      0.000355      0.000000
    32  Na    c       0.000282      0.000952      0.000148      0.000000
    33  Na    c       0.000610      0.000000      0.000250      0.000000
    34  Na    c       0.000000      0.000292      0.000460      0.000000
    35  Cl    c       0.000368      0.000000      0.000337      0.000000
    36  O     c       0.000198      0.000000      0.000307      0.000000
    37  Na    c       0.000000      0.000335      0.000219      0.000000
    38  Na    c       0.000244      0.000511      0.000735      0.000000
    39  O     c       0.000192      0.000000      0.000000      0.000000
    40  Na    c       0.000000      0.000000      0.000122      0.000000
    41  Na    c       0.000205      0.000639      0.000360      0.000000
    42  Cl    c       0.000088      0.000375      0.000000      0.000000
    43  Cl    c       0.000043      0.000529      0.000000      0.000000
    44  O     c       0.000000      0.000183      0.000245      0.000000
    45  Cl    s      -0.007307      0.000000      0.000000      0.000000
    46  O     s       0.000000      0.000000      0.002312      0.000000
    47  O     s       0.000000     -0.003248      0.000000      0.000000
    48  Cl    s      -0.003041      0.000000     -0.003821      0.000000
    49  O     s      -0.003420      0.000000      0.000000      0.000000
    50  O     s       0.000000      0.000000     -0.001518      0.000000
    51  Cl    s      -0.000558     -0.004414      0.000000      0.000000
    52  O     s       0.000000     -0.000982     -0.002644      0.000000
    53  O     s      -0.001815      0.000000     -0.001972      0.000000
    54  Cl    s      -0.000858      0.000000     -0.001783      0.000000
    55  Cl    s      -0.001051      0.000000      0.000000      0.000000
    56  O     s       0.000000     -0.001198      0.000000      0.000000
    57  Cl    s      -0.001344     -0.002202     -0.000422      0.000000
    58  O     s       0.000000      0.000000     -0.000585      0.000000
    59  O     s      -0.000538     -0.002160      0.000000      0.000000
    60  O     s       0.000000     -0.000392     -0.001429      0.000000
    61  Cl    s      -0.000949      0.000000     -0.000783      0.000000
    62  O     s      -0.000744      0.000000     -0.001210      0.000000
    63  O     s      -0.000687      0.000000      0.000000      0.000000
    64  Cl    s      -0.000291     -0.000890      0.000000      0.000000
    65  Cl    s      -0.000119     -0.001277      0.000000      0.000000
    66  O     s       0.000000     -0.000599     -0.000921      0.000000
--------------------------------------------------------------------------------

  Comparison of initial and final region 1 : 

--------------------------------------------------------------------------------
  Parameter   Initial value   Final value   Difference    Units      Percent
--------------------------------------------------------------------------------
      1 x          2.214230      2.214230     0.000000    Cartesian    0.00
      1 y          2.214230      2.214230     0.000000    Cartesian    0.00
      1 z          4.428461      4.673933     0.245472    Cartesian    5.54
      2 x          4.428461      4.125759    -0.302701    Cartesian   -6.84
      2 y          4.428461      4.125759    -0.302701    Cartesian   -6.84
      2 z          4.428461      4.125759    -0.302701    Cartesian   -6.84
      3 x          2.214230      2.214230     0.000000    Cartesian    0.00
      3 y          2.214230      2.214230     0.000000    Cartesian    0.00
      3 z          6.642691      6.795964     0.153272    Cartesian    2.31
      4 x          2.214230      2.214230     0.000000    Cartesian    0.00
      4 y          6.642691      6.781958     0.139267    Cartesian    2.10
      4 z          4.428461      4.445643     0.017182    Cartesian    0.39
      5 x          2.214230      2.214230     0.000000    Cartesian    0.00
      5 y          6.642691      6.649000     0.006308    Cartesian    0.09
      5 z          6.642691      6.649000     0.006308    Cartesian    0.09
      6 x          6.642691      6.704327     0.061635    Cartesian    0.93
      6 y          6.642691      6.704327     0.061635    Cartesian    0.93
      6 z          4.428461      4.430956     0.002495    Cartesian    0.06
      7 x          2.214230      2.214230     0.000000    Cartesian    0.00
      7 y          2.214230      2.214230     0.000000    Cartesian    0.00
      7 z          8.856922      8.962549     0.105627    Cartesian    1.19
      8 x          4.428461      4.435503     0.007042    Cartesian    0.16
      8 y          4.428461      4.435503     0.007042    Cartesian    0.16
      8 z          8.856922      8.818558    -0.038364    Cartesian   -0.43
      9 x          6.642691      6.636097    -0.006595    Cartesian   -0.10
      9 y          6.642691      6.636097    -0.006595    Cartesian   -0.10
      9 z          6.642691      6.636097    -0.006595    Cartesian   -0.10
     10 x          2.214230      2.214230     0.000000    Cartesian    0.00
     10 y          6.642691      6.681904     0.039213    Cartesian    0.59
     10 z          8.856922      8.880580     0.023658    Cartesian    0.27
     11 x          2.214230      2.214230     0.000000    Cartesian    0.00
     11 y          2.214230      2.214230     0.000000    Cartesian    0.00
     11 z         11.071152     11.133324     0.062172    Cartesian    0.56
     12 x          2.214230      2.214230     0.000000    Cartesian    0.00
     12 y         11.071152     11.143774     0.072621    Cartesian    0.66
     12 z          4.428461      4.434744     0.006283    Cartesian    0.14
     13 x          6.642691      6.659503     0.016812    Cartesian    0.25
     13 y          6.642691      6.659503     0.016812    Cartesian    0.25
     13 z          8.856922      8.864902     0.007981    Cartesian    0.09
     14 x          4.428461      4.415828    -0.012633    Cartesian   -0.29
     14 y          8.856922      8.826458    -0.030464    Cartesian   -0.34
     14 z          8.856922      8.826458    -0.030464    Cartesian   -0.34
     15 x          2.214230      2.214230     0.000000    Cartesian    0.00
     15 y          6.642691      6.645167     0.002475    Cartesian    0.04
     15 z         11.071152     11.082230     0.011078    Cartesian    0.10
     16 x          6.642691      6.650210     0.007519    Cartesian    0.11
     16 y         11.071152     11.095279     0.024127    Cartesian    0.22
     16 z          4.428461      4.431442     0.002981    Cartesian    0.07
     17 x          6.642691      6.644078     0.001387    Cartesian    0.02
     17 y          6.642691      6.644078     0.001387    Cartesian    0.02
     17 z         11.071152     11.073015     0.001863    Cartesian    0.02
     18 x          2.214230      2.214230     0.000000    Cartesian    0.00
     18 y         11.071152     11.098063     0.026911    Cartesian    0.24
     18 z          8.856922      8.863196     0.006274    Cartesian    0.07
     19 x          2.214230      2.214230     0.000000    Cartesian    0.00
     19 y          2.214230      2.214230     0.000000    Cartesian    0.00
     19 z         13.285383     13.328374     0.042992    Cartesian    0.32
     20 x          4.428461      4.427482    -0.000979    Cartesian   -0.02
     20 y          4.428461      4.427482    -0.000979    Cartesian   -0.02
     20 z         13.285383     13.267969    -0.017413    Cartesian   -0.13
     21 x          8.856922      8.831684    -0.025238    Cartesian   -0.28
     21 y          8.856922      8.831684    -0.025238    Cartesian   -0.28
     21 z          8.856922      8.831684    -0.025238    Cartesian   -0.28
     22 x          6.642691      6.648321     0.005629    Cartesian    0.08
     22 y         11.071152     11.086979     0.015827    Cartesian    0.14
     22 z          8.856922      8.860642     0.003721    Cartesian    0.04
     23 x          2.214230      2.214230     0.000000    Cartesian    0.00
     23 y          6.642691      6.665078     0.022387    Cartesian    0.34
     23 z         13.285383     13.298153     0.012770    Cartesian    0.10
     24 x          2.214230      2.214230     0.000000    Cartesian    0.00
     24 y         11.071152     11.071016    -0.000136    Cartesian   -0.00
     24 z         11.071152     11.071016    -0.000136    Cartesian   -0.00
     25 x         11.071152     11.084151     0.012999    Cartesian    0.12
     25 y         11.071152     11.084151     0.012999    Cartesian    0.12
     25 z          4.428461      4.429365     0.000904    Cartesian    0.02
     26 x          6.642691      6.653251     0.010560    Cartesian    0.16
     26 y          6.642691      6.653251     0.010560    Cartesian    0.16
     26 z         13.285383     13.291193     0.005811    Cartesian    0.04
     27 x          8.856922      8.845634    -0.011288    Cartesian   -0.13
     27 y         13.285383     13.265690    -0.019693    Cartesian   -0.15
     27 z          4.428461      4.424634    -0.003827    Cartesian   -0.09
     28 x          2.214230      2.214230     0.000000    Cartesian    0.00
     28 y          2.214230      2.214230     0.000000    Cartesian    0.00
     28 z         15.499613     15.519717     0.020104    Cartesian    0.13
     29 x          6.642691      6.642470    -0.000222    Cartesian   -0.00
     29 y         11.071152     11.071360     0.000208    Cartesian    0.00
     29 z         11.071152     11.071360     0.000208    Cartesian    0.00
     30 x          2.214230      2.214230     0.000000    Cartesian    0.00
     30 y         15.499613     15.524828     0.025215    Cartesian    0.16
     30 z          4.428461      4.430938     0.002477    Cartesian    0.06
     31 x          2.214230      2.214230     0.000000    Cartesian    0.00
     31 y          6.642691      6.644782     0.002091    Cartesian    0.03
     31 z         15.499613     15.502486     0.002873    Cartesian    0.02
     32 x          6.642691      6.645085     0.002393    Cartesian    0.04
     32 y         15.499613     15.508663     0.009050    Cartesian    0.06
     32 z          4.428461      4.430085     0.001625    Cartesian    0.04
     33 x         11.071152     11.078210     0.007058    Cartesian    0.06
     33 y         11.071152     11.078210     0.007058    Cartesian    0.06
     33 z          8.856922      8.857300     0.000378    Cartesian    0.00
     34 x          2.214230      2.214230     0.000000    Cartesian    0.00
     34 y         11.071152     11.080660     0.009508    Cartesian    0.09
     34 z         13.285383     13.287461     0.002079    Cartesian    0.02
     35 x          8.856922      8.848520    -0.008402    Cartesian   -0.09
     35 y          8.856922      8.848520    -0.008402    Cartesian   -0.09
     35 z         13.285383     13.267437    -0.017945    Cartesian   -0.14
     36 x          6.642691      6.643925     0.001233    Cartesian    0.02
     36 y          6.642691      6.643925     0.001233    Cartesian    0.02
     36 z         15.499613     15.499731     0.000118    Cartesian    0.00
     37 x          2.214230      2.214230     0.000000    Cartesian    0.00
     37 y         15.499613     15.519437     0.019824    Cartesian    0.13
     37 z          8.856922      8.859131     0.002210    Cartesian    0.02
     38 x          6.642691      6.646362     0.003671    Cartesian    0.06
     38 y         11.071152     11.078598     0.007446    Cartesian    0.07
     38 z         13.285383     13.288549     0.003166    Cartesian    0.02
     39 x         11.071152     11.067946    -0.003206    Cartesian   -0.03
     39 y         11.071152     11.067946    -0.003206    Cartesian   -0.03
     39 z         11.071152     11.067946    -0.003206    Cartesian   -0.03
     40 x          2.214230      2.214230     0.000000    Cartesian    0.00
     40 y          2.214230      2.214230     0.000000    Cartesian    0.00
     40 z         17.713843     17.724998     0.011155    Cartesian    0.06
     41 x          6.642691      6.647075     0.004383    Cartesian    0.07
     41 y         15.499613     15.516386     0.016773    Cartesian    0.11
     41 z          8.856922      8.859224     0.002303    Cartesian    0.03
     42 x          4.428461      4.426617    -0.001844    Cartesian   -0.04
     42 y         17.713843     17.688770    -0.025073    Cartesian   -0.14
     42 z          4.428461      4.426617    -0.001844    Cartesian   -0.04
     43 x          4.428461      4.424400    -0.004061    Cartesian   -0.09
     43 y         13.285383     13.265308    -0.020074    Cartesian   -0.15
     43 z         13.285383     13.265308    -0.020074    Cartesian   -0.15
     44 x          2.214230      2.214230     0.000000    Cartesian    0.00
     44 y         11.071152     11.068715    -0.002437    Cartesian   -0.02
     44 z         15.499613     15.496178    -0.003435    Cartesian   -0.02
     45 x          4.428461      4.114820    -0.313641    Cartesian   -7.08
     45 y          4.428461      4.114820    -0.313641    Cartesian   -7.08
     45 z          4.428461      4.114820    -0.313641    Cartesian   -7.08
     46 x          2.214230      2.214230     0.000000    Cartesian    0.00
     46 y          2.214230      2.214230     0.000000    Cartesian    0.00
     46 z          6.642691      6.791798     0.149107    Cartesian    2.24
     47 x          2.214230      2.214230     0.000000    Cartesian    0.00
     47 y          6.642691      6.649256     0.006565    Cartesian    0.10
     47 z          6.642691      6.649256     0.006565    Cartesian    0.10
     48 x          4.428461      4.434873     0.006412    Cartesian    0.14
     48 y          4.428461      4.434873     0.006412    Cartesian    0.14
     48 z          8.856922      8.815289    -0.041633    Cartesian   -0.47
     49 x          6.642691      6.635894    -0.006797    Cartesian   -0.10
     49 y          6.642691      6.635894    -0.006797    Cartesian   -0.10
     49 z          6.642691      6.635894    -0.006797    Cartesian   -0.10
     50 x          2.214230      2.214230     0.000000    Cartesian    0.00
     50 y          2.214230      2.214230     0.000000    Cartesian    0.00
     50 z         11.071152     11.132001     0.060849    Cartesian    0.55
     51 x          4.428461      4.415086    -0.013375    Cartesian   -0.30
     51 y          8.856922      8.824363    -0.032559    Cartesian   -0.37
     51 z          8.856922      8.824363    -0.032559    Cartesian   -0.37
     52 x          2.214230      2.214230     0.000000    Cartesian    0.00
     52 y          6.642691      6.645177     0.002486    Cartesian    0.04
     52 z         11.071152     11.081992     0.010840    Cartesian    0.10
     53 x          6.642691      6.644061     0.001370    Cartesian    0.02
     53 y          6.642691      6.644061     0.001370    Cartesian    0.02
     53 z         11.071152     11.072844     0.001692    Cartesian    0.02
     54 x          4.428461      4.427119    -0.001342    Cartesian   -0.03
     54 y          4.428461      4.427119    -0.001342    Cartesian   -0.03
     54 z         13.285383     13.266363    -0.019019    Cartesian   -0.14
     55 x          8.856922      8.830490    -0.026432    Cartesian   -0.30
     55 y          8.856922      8.830490    -0.026432    Cartesian   -0.30
     55 z          8.856922      8.830490    -0.026432    Cartesian   -0.30
     56 x          2.214230      2.214230     0.000000    Cartesian    0.00
     56 y         11.071152     11.070896    -0.000256    Cartesian   -0.00
     56 z         11.071152     11.070896    -0.000256    Cartesian   -0.00
     57 x          8.856922      8.844994    -0.011927    Cartesian   -0.13
     57 y         13.285383     13.264614    -0.020769    Cartesian   -0.16
     57 z          4.428461      4.424320    -0.004141    Cartesian   -0.09
     58 x          2.214230      2.214230     0.000000    Cartesian    0.00
     58 y          2.214230      2.214230     0.000000    Cartesian    0.00
     58 z         15.499613     15.518999     0.019386    Cartesian    0.13
     59 x          6.642691      6.642484    -0.000207    Cartesian   -0.00
     59 y         11.071152     11.071240     0.000088    Cartesian    0.00
     59 z         11.071152     11.071240     0.000088    Cartesian    0.00
     60 x          2.214230      2.214230     0.000000    Cartesian    0.00
     60 y          6.642691      6.644861     0.002170    Cartesian    0.03
     60 z         15.499613     15.502368     0.002755    Cartesian    0.02
     61 x          8.856922      8.848120    -0.008802    Cartesian   -0.10
     61 y          8.856922      8.848120    -0.008802    Cartesian   -0.10
     61 z         13.285383     13.266596    -0.018786    Cartesian   -0.14
     62 x          6.642691      6.643905     0.001214    Cartesian    0.02
     62 y          6.642691      6.643905     0.001214    Cartesian    0.02
     62 z         15.499613     15.499690     0.000077    Cartesian    0.00
     63 x         11.071152     11.067700    -0.003453    Cartesian   -0.03
     63 y         11.071152     11.067700    -0.003453    Cartesian   -0.03
     63 z         11.071152     11.067700    -0.003453    Cartesian   -0.03
     64 x          4.428461      4.426455    -0.002006    Cartesian   -0.05
     64 y         17.713843     17.687690    -0.026153    Cartesian   -0.15
     64 z          4.428461      4.426455    -0.002006    Cartesian   -0.05
     65 x          4.428461      4.424217    -0.004244    Cartesian   -0.10
     65 y         13.285383     13.264486    -0.020897    Cartesian   -0.16
     65 z         13.285383     13.264486    -0.020897    Cartesian   -0.16
     66 x          2.214230      2.214230     0.000000    Cartesian    0.00
     66 y         11.071152     11.068412    -0.002740    Cartesian   -0.02
     66 z         15.499613     15.495829    -0.003784    Cartesian   -0.02
--------------------------------------------------------------------------------


  Time to end of optimisation  =       21.1529 seconds


  Peak dynamic memory used =     303.92 MB 


  Timing analysis for GULP :

--------------------------------------------------------------------------------
  Task / Subroutine                                          Time (Seconds)
--------------------------------------------------------------------------------
  Calculation of reciprocal space energy and derivatives          0.0004
  Calculation of reciprocal space energy using symmetry           0.0007
  Calculation of real space energy and derivatives                0.0021
  Calculation of real space energy using symmetry                 0.0067
  Calculation for region 1 energy and derivatives (2-b)          13.1942
  Calculation for region 2a energy                                7.0237
  Calculation for region 2b energy                                0.0003
  Calculation and manipulation of Hessian matrix                  0.1616
  Calculation of matrix inversion                                 0.0020
  Symmetry generation of equivalent positions                     0.0032
--------------------------------------------------------------------------------
  Total CPU time                                                 21.1530
--------------------------------------------------------------------------------


  Dump file written as Na3OCl.grs


  Job Finished at 16:43.33  5th July       2021                               

