********************************************************************************
*                       GENERAL UTILITY LATTICE PROGRAM                        *
*                                 Julian Gale                                  *
*                       Curtin Institute for Computation                       *
*                    School of Molecular and Life Sciences                     *
*                    Curtin University, Western Australia                      *
********************************************************************************
* Version = 5.2.0 * Last modified =  10th September 2020                       *
********************************************************************************
*  optimise     - perform optimisation run                                     *
*  conp         - constant pressure calculation                                *
*  property     - calculate properties for final geometry                      *
*  defect       - perform defect calculation after bulk run                    *
*  compare      - compare initial and final structures                         *
********************************************************************************

  Job Started  at 16:43.09  5th July       2021                               

  Number of CPUs =     1


  Total number of configurations input =      1

********************************************************************************
*  Input for Configuration =   1                                               *
********************************************************************************

  Formula = ClONa3                                                      

  Number of irreducible atoms/shells =       5


  Total number atoms/shells =       7

  Dimensionality = 3               :  Bulk   


  Symmetry :

  Crystal family                   :  Cubic       
  Crystal class  (Groth - 1921)    :  Cubic Hexakisoctahedral              

  Space group (centrosymmetric)    :  P M 3 M         

  Patterson group                  :  P m -3 m 

  Cartesian lattice vectors (Angstroms) :

        4.504000    0.000000    0.000000
        0.000000    4.504000    0.000000
        0.000000    0.000000    4.504000

  Cell parameters (Angstroms/Degrees):

  a =       4.5040    alpha =  90.0000
  b =       4.5040    beta  =  90.0000
  c =       4.5040    gamma =  90.0000

  Initial cell volume =          91.368216 Angs**3

  Temperature of configuration =   0.00     K 

  Pressure of configuration =         0.000 GPa 

  Fractional coordinates of asymmetric unit :

--------------------------------------------------------------------------------
   No.  Atomic       x           y          z         Charge      Occupancy
        Label      (Frac)      (Frac)     (Frac)        (e)         (Frac)  
--------------------------------------------------------------------------------
      1 Cl    c    0.000000    0.000000    0.000000     0.61500    1.000000    
      2 O     c    0.500000    0.500000    0.500000     0.48900    1.000000    
      3 Na    c    0.500000    0.500000    0.000000     0.67000    1.000000    
      4 Cl    s    0.000000    0.000000    0.000000    -1.28500    1.000000    
      5 O     s    0.500000    0.500000    0.500000    -1.82900    1.000000    
--------------------------------------------------------------------------------


  Constraints : 

--------------------------------------------------------------------------------
  Constraint no.      Unconstrained     Constrained    Coefficient    Offset
                         Variable         Variable
--------------------------------------------------------------------------------
           1              Strain 1        Strain 2       1.00000      0.0000
           2              Strain 1        Strain 3       1.00000      0.0000
--------------------------------------------------------------------------------


********************************************************************************
*  General input information                                                   *
********************************************************************************

  Species output for all configurations : 

--------------------------------------------------------------------------------
  Species    Type    Atomic    Atomic    Charge       Radii (Angs)     Library
                     Number     Mass       (e)     Cova   Ionic  VDW   Symbol
--------------------------------------------------------------------------------
    Na       Core       11      22.99   0.670000   0.970  0.000  2.300          
    O        Core        8      16.00   0.489000   0.730  0.000  1.360          
    O        Shell       8       0.00  -1.829000   0.730  0.000  1.360          
    Cl       Core       17      35.45   0.615000   0.990  0.000  1.650          
    Cl       Shell      17       0.00  -1.285000   0.990  0.000  1.650          
--------------------------------------------------------------------------------


  Lattice summation method               =    Ewald          (3-D)
                                         =    Parry          (2-D)
                                         =    Saunders et al (1-D)
  Accuracy factor for lattice sums       =   12.000


  Analytic derivatives to be used

  Time limit = Infinity

  Maximum range for interatomic potentials =    100000.000000 Angstroms

  General interatomic potentials :

--------------------------------------------------------------------------------
Atom  Types   Potential      Parameter       Value         Units   Cutoffs(Ang)
  1     2                                                            Min /  Max 
--------------------------------------------------------------------------------
O    c O    s Spring (c-s)  Spring k 2       34.450000    eV*Ang^-2 0.000  0.800
                            Spring k 4       0.0000000    eV*Ang^-4 
--------------------------------------------------------------------------------
Cl   c Cl   s Spring (c-s)  Spring k 2       28.250000    eV*Ang^-2 0.000  0.800
                            Spring k 4       0.0000000    eV*Ang^-4 
--------------------------------------------------------------------------------
Na   c Na   c Buckingham    Buckingham A     996.28210    eV        0.000 12.000
                            Buckingham rho  0.28830000    Ang       
                            Buckingham C     0.0000000    eV*Ang^6  
--------------------------------------------------------------------------------
Na   c O    s Buckingham    Buckingham A     12439.222    eV        0.000 12.000
                            Buckingham rho  0.20150000    Ang       
                            Buckingham C     0.0000000    eV*Ang^6  
--------------------------------------------------------------------------------
Na   c Cl   s Buckingham    Buckingham A     20907.738    eV        0.000 12.000
                            Buckingham rho  0.21660000    Ang       
                            Buckingham C     0.0000000    eV*Ang^6  
--------------------------------------------------------------------------------
O    s O    s Buckingham    Buckingham A     35546.853    eV        0.000 12.000
                            Buckingham rho  0.12056000    Ang       
                            Buckingham C     13.190000    eV*Ang^6  
--------------------------------------------------------------------------------
O    s Cl   s Buckingham    Buckingham A     47777.071    eV        0.000 12.000
                            Buckingham rho  0.24370000    Ang       
                            Buckingham C     62.200000    eV*Ang^6  
--------------------------------------------------------------------------------
Cl   s Cl   s Buckingham    Buckingham A     35155.254    eV        0.000 12.000
                            Buckingham rho  0.21360000    Ang       
                            Buckingham C     14.530000    eV*Ang^6  
--------------------------------------------------------------------------------

********************************************************************************
*  Output for configuration   1                                                *
********************************************************************************


  Components of energy : 

--------------------------------------------------------------------------------
  Interatomic potentials     =           1.21745275 eV    
  Monopole - monopole (real) =          -4.50527050 eV    
  Monopole - monopole (recip)=         -13.25862634 eV    
  Monopole - monopole (total)=         -17.76389683 eV    
--------------------------------------------------------------------------------
  Total lattice energy       =         -16.54644409 eV    
--------------------------------------------------------------------------------
  Total lattice energy       =           -1596.4789 kJ/(mole unit cells)
--------------------------------------------------------------------------------


  Number of variables =        1

  Maximum number of calculations  =          1000
  Maximum Hessian update interval =            10
  Maximum step size               =   1.000000000
  Maximum parameter tolerance     =   0.000010000
  Maximum function  tolerance     =   0.000010000
  Maximum gradient  tolerance     =   0.001000000
  Maximum gradient  component     =   0.010000000

  Symmetry constrained optimisation

  Symmetry used for second derivatives

  Cell parameters to be optimised using strains

  Newton-Raphson optimiser to be used

  BFGS hessian update to be used

  Lower half triangular hessian to be used

  Start of bulk optimisation :

  Cycle:      0 Energy:       -16.546444  Gnorm:      2.744113  CPU:    0.008
  ** Hessian calculated **
  Cycle:      1 Energy:       -16.570356  Gnorm:      0.030142  CPU:    0.011
  Cycle:      2 Energy:       -16.570358  Gnorm:      0.003103  CPU:    0.013


  **** Optimisation achieved ****


  Final energy =     -16.57035847 eV
  Final Gnorm  =       0.00000012

  Components of energy : 

--------------------------------------------------------------------------------
  Interatomic potentials     =           1.49654868 eV    
  Monopole - monopole (real) =          -4.58211982 eV    
  Monopole - monopole (recip)=         -13.48478733 eV    
  Monopole - monopole (total)=         -18.06690714 eV    
--------------------------------------------------------------------------------
  Total lattice energy       =         -16.57035847 eV    
--------------------------------------------------------------------------------
  Total lattice energy       =           -1598.7863 kJ/(mole unit cells)
--------------------------------------------------------------------------------

  Final asymmetric unit coordinates :

--------------------------------------------------------------------------------
   No.  Atomic        x           y           z         Radius
        Label       (Frac)      (Frac)      (Frac)       (Angs) 
--------------------------------------------------------------------------------
     1  Cl    c     0.000000    0.000000    0.000000    0.000000
     2  O     c     0.500000    0.500000    0.500000    0.000000
     3  Na    c     0.500000    0.500000    0.000000    0.000000
     4  Cl    s     0.000000    0.000000    0.000000    0.000000
     5  O     s     0.500000    0.500000    0.500000    0.000000
--------------------------------------------------------------------------------

  Final Cartesian lattice vectors (Angstroms) :

        4.428461    0.000000    0.000000
        0.000000    4.428461    0.000000
        0.000000    0.000000    4.428461


  Final cell parameters and derivatives :

--------------------------------------------------------------------------------
       a            4.428461 Angstrom     dE/de1(xx)     0.000000 eV/strain
       b            4.428461 Angstrom     dE/de2(yy)     0.000000 eV/strain
       c            4.428461 Angstrom     dE/de3(zz)     0.000000 eV/strain
       alpha       90.000000 Degrees      dE/de4(yz)     0.000000 eV/strain
       beta        90.000000 Degrees      dE/de5(xz)     0.000000 eV/strain
       gamma       90.000000 Degrees      dE/de6(xy)     0.000000 eV/strain
--------------------------------------------------------------------------------

  Primitive cell volume =            86.847723 Angs**3

  Density of cell =      2.302482 g/cm**3

  Non-primitive cell volume =            86.847723 Angs**3


  Final internal derivatives :

--------------------------------------------------------------------------------
   No.  Atomic          a             b             c           Radius
        Label          (eV)          (eV)          (eV)        (eV/Angs)
--------------------------------------------------------------------------------
      1 Cl    c       0.000000      0.000000      0.000000      0.000000
      2 O     c       0.000000      0.000000      0.000000      0.000000
      3 Na    c       0.000000      0.000000      0.000000      0.000000
      4 Cl    s       0.000000      0.000000      0.000000      0.000000
      5 O     s       0.000000      0.000000      0.000000      0.000000
--------------------------------------------------------------------------------
  Maximum abs         0.000000      0.000000      0.000000      0.000000
--------------------------------------------------------------------------------

  Comparison of initial and final structures : 

--------------------------------------------------------------------------------
  Parameter   Initial value   Final value   Difference    Units      Percent
--------------------------------------------------------------------------------
    Volume        91.368216     86.847723    -4.520493    Angs**3     -4.95
    a              4.504000      4.428461    -0.075539    Angstroms   -1.68
    b              4.504000      4.428461    -0.075539    Angstroms   -1.68
    c              4.504000      4.428461    -0.075539    Angstroms   -1.68
    alpha         90.000000     90.000000     0.000000    Degrees      0.00
    beta          90.000000     90.000000     0.000000    Degrees      0.00
    gamma         90.000000     90.000000     0.000000    Degrees      0.00
      1 x          0.000000      0.000000     0.000000    Fractional   0.00
      1 y          0.000000      0.000000     0.000000    Fractional   0.00
      1 z          0.000000      0.000000     0.000000    Fractional   0.00
      2 x          0.500000      0.500000     0.000000    Fractional   0.00
      2 y          0.500000      0.500000     0.000000    Fractional   0.00
      2 z          0.500000      0.500000     0.000000    Fractional   0.00
      3 x          0.500000      0.500000     0.000000    Fractional   0.00
      3 y          0.500000      0.500000     0.000000    Fractional   0.00
      3 z          0.000000      0.000000     0.000000    Fractional   0.00
      4 x          0.000000      0.000000     0.000000    Fractional   0.00
      4 y          0.000000      0.000000     0.000000    Fractional   0.00
      4 z          0.000000      0.000000     0.000000    Fractional   0.00
      5 x          0.500000      0.500000     0.000000    Fractional   0.00
      5 y          0.500000      0.500000     0.000000    Fractional   0.00
      5 z          0.500000      0.500000     0.000000    Fractional   0.00
--------------------------------------------------------------------------------


  Born effective charge tensors : 

-------------------------------------------------------------------------------
  Atom             x           y             z
-------------------------------------------------------------------------------
    1 Cl    x      -0.6995     -0.0000     -0.0000
            y      -0.0000     -0.6995     -0.0000
            z      -0.0000     -0.0000     -0.6995
-------------------------------------------------------------------------------
    2 O     x      -1.0805      0.0000      0.0000
            y       0.0000     -1.0805      0.0000
            z       0.0000      0.0000     -1.0805
-------------------------------------------------------------------------------
    3 Na    x       0.6486      0.0000     -0.0000
            y       0.0000      0.6486      0.0000
            z      -0.0000      0.0000      0.4827
-------------------------------------------------------------------------------




  Elastic Constant Matrix: (Units=GPa)

-------------------------------------------------------------------------------
  Indices      1         2         3         4         5         6    
-------------------------------------------------------------------------------
       1     77.0757   16.0262   16.0262   -0.0000   -0.0000   -0.0000
       2     16.0262   77.0757   16.0262   -0.0000   -0.0000    0.0000
       3     16.0262   16.0262   77.0757    0.0000    0.0000    0.0000
       4     -0.0000   -0.0000    0.0000   16.0262    0.0000   -0.0000
       5     -0.0000   -0.0000    0.0000    0.0000   16.0262   -0.0000
       6     -0.0000    0.0000    0.0000   -0.0000   -0.0000   16.0262
-------------------------------------------------------------------------------


  Elastic Compliance Matrix: (Units=1/GPa)

-------------------------------------------------------------------------------
  Indices      1         2         3         4         5         6    
-------------------------------------------------------------------------------
       1    0.013975 -0.002406 -0.002406  0.000000  0.000000  0.000000
       2   -0.002406  0.013975 -0.002406  0.000000  0.000000 -0.000000
       3   -0.002406 -0.002406  0.013975 -0.000000 -0.000000 -0.000000
       4    0.000000  0.000000 -0.000000  0.062398 -0.000000  0.000000
       5    0.000000  0.000000 -0.000000 -0.000000  0.062398  0.000000
       6    0.000000 -0.000000 -0.000000  0.000000  0.000000  0.062398
-------------------------------------------------------------------------------

  Mechanical properties :

-------------------------------------------------------------------------------
  Convention :                    Reuss         Voigt         Hill
-------------------------------------------------------------------------------
  Bulk  Modulus (GPa)     =      36.37603      36.37603      36.37603
  Shear Modulus (GPa)     =      19.78520      21.82562      20.80541
-------------------------------------------------------------------------------
  Velocity S-wave (km/s)  =       2.93138       3.07883       3.00601
  Velocity P-wave (km/s)  =       5.22072       5.33268       5.27700
-------------------------------------------------------------------------------
  Compressibility (1/GPa) =    0.02749063
-------------------------------------------------------------------------------
  Stress axis :                     x             y             z
-------------------------------------------------------------------------------
  Youngs Moduli (GPa)     =      71.55833      71.55833      71.55833
-------------------------------------------------------------------------------
  Poissons Ratio (x)      =                     0.17214       0.17214
  Poissons Ratio (y)      =       0.17214                     0.17214
  Poissons Ratio (z)      =       0.17214       0.17214
-------------------------------------------------------------------------------


  Piezoelectric Strain Matrix: (Units=C/m**2)

-------------------------------------------------------------------------------
  Indices      1         2         3         4         5         6    
-------------------------------------------------------------------------------
       x    -0.00000  -0.00000  -0.00000  -0.00000  -0.00000   0.00000
       y     0.00000   0.00000   0.00000  -0.00000  -0.00000  -0.00000
       z     0.00000   0.00000  -0.00000   0.00000  -0.00000  -0.00000
-------------------------------------------------------------------------------


  Piezoelectric Stress Matrix: (Units=10**-11 C/N)

-------------------------------------------------------------------------------
  Indices      1         2         3         4         5         6    
-------------------------------------------------------------------------------
       x    -0.00000  -0.00000  -0.00000  -0.00000  -0.00000   0.00000
       y     0.00000   0.00000   0.00000  -0.00000  -0.00000  -0.00000
       z     0.00000   0.00000  -0.00000   0.00000  -0.00000  -0.00000
-------------------------------------------------------------------------------


  Static dielectric constant tensor : 

-------------------------------------------------------------------------------
              x         y         z
-------------------------------------------------------------------------------
       x     5.77918   0.00000   0.00000
       y     0.00000   5.77918   0.00000
       z     0.00000   0.00000   5.77918
--------------------------------------------------------------------------------

  High frequency dielectric constant tensor : 

-------------------------------------------------------------------------------
              x         y         z
-------------------------------------------------------------------------------
       x     1.30980  -0.00000  -0.00000
       y    -0.00000   1.30980  -0.00000
       z    -0.00000  -0.00000   1.30980
-------------------------------------------------------------------------------

  Static refractive indices : 

-------------------------------------------------------------------------------
    1 =    2.40399      2 =    2.40399      3 =    2.40399
-------------------------------------------------------------------------------

  High frequency refractive indices : 

-------------------------------------------------------------------------------
    1 =    1.14447      2 =    1.14447      3 =    1.14447
-------------------------------------------------------------------------------


  Time to end of optimisation =       0.0182 seconds

********************************************************************************
*  Defect calculation for configuration   1 :                                  *
********************************************************************************

  Total number of defects =      3

  Total charge on defect  =   0.67

  Defect centre is at   2.2520   0.0000   0.0000  Angs

  Region 1 radius =  12.0000      Number of ions =    622

  Number of symmetry inequivalent region 1 ions  =    120

  Region 2 radius =  16.0000      Number of ions =    744

  Number of symmetry inequivalent region 2a ions =    120

  Region 2a mode = 4 : screened electrostatics due to region 1 
                       neglect correction to region 1 forces from 2a
                       region 2a displacements based on defects only

  Region 2a ions will only interact with defects in region 1

  Vacancies:

--------------------------------------------------------------------------------
    Specification type     Symbol/Number         x          y          z
--------------------------------------------------------------------------------
    Cartesian                                4.504000   0.000000   0.000000
    Cartesian                                0.000000   0.000000   0.000000
--------------------------------------------------------------------------------

  Interstitials:

--------------------------------------------------------------------------------
    Specification type     Symbol/Number         x          y          z
--------------------------------------------------------------------------------
    Atom/Cartesian          Cl               2.252000   0.000000   0.000000
--------------------------------------------------------------------------------


  Symmetry reduced region 1 (Relative to defect centre) :

--------------------------------------------------------------------------------
   No.   Atomic       x            y             z       Radius  Multiplicity   
         Label      (Angs)       (Angs)        (Angs)    (Angs)     
--------------------------------------------------------------------------------
     1  Cl    c      0.0000       0.0000       0.0000    0.0000     1    Defect
     2  Na    c     -0.0378 *    -2.2142 *     0.0000    0.0000     4          
     3  O     c     -0.0378 *    -2.2142 *    -2.2142    0.0000     4          
     4  Na    c      2.1765 *    -2.2142 *    -2.2142    0.0000     4          
     5  Na    c     -2.2520 *    -2.2142 *    -2.2142    0.0000     4          
     6  Na    c      4.3907 *    -2.2142 *     0.0000    0.0000     4          
     7  Cl    c      2.1765 *     0.0000       4.4285 *  0.0000     4          
     8  Na    c     -0.0378 *     4.4285 *    -2.2142 *  0.0000     8          
     9  Cl    c     -2.2520 *     0.0000       4.4285 *  0.0000     4          
    10  Na    c     -4.4662 *    -2.2142 *     0.0000    0.0000     4          
    11  O     c      4.3907 *    -2.2142 *    -2.2142    0.0000     4          
    12  O     c     -4.4662 *    -2.2142 *    -2.2142    0.0000     4          
    13  Cl    c      6.6049 *     0.0000       0.0000    0.0000     1          
    14  Na    c      4.3907 *    -2.2142 *     4.4285 *  0.0000     8          
    15  Cl    c      2.1765 *     4.4285 *     4.4285    0.0000     4          
    16  Na    c     -0.0378 *     6.6427 *     0.0000    0.0000     4          
    17  Cl    c     -2.2520 *     4.4285 *     4.4285    0.0000     4          
    18  Na    c     -4.4662 *    -2.2142 *     4.4285 *  0.0000     8          
    19  Cl    c     -6.6805 *     0.0000       0.0000    0.0000     1          
    20  O     c     -0.0378 *    -2.2142 *     6.6427 *  0.0000     8          
    21  Na    c      6.6049 *    -2.2142 *    -2.2142    0.0000     4          
    22  Na    c      2.1765 *    -2.2142 *     6.6427 *  0.0000     8          
    23  Na    c     -2.2520 *    -2.2142 *     6.6427 *  0.0000     8          
    24  Na    c     -6.6805 *    -2.2142 *    -2.2142    0.0000     4          
    25  Cl    c      6.6049 *     0.0000       4.4285 *  0.0000     4          
    26  Na    c      4.3907 *     6.6427 *     0.0000    0.0000     4          
    27  Na    c     -0.0378 *     6.6427 *     4.4285 *  0.0000     8          
    28  Na    c     -4.4662 *     6.6427 *     0.0000    0.0000     4          
    29  Cl    c     -6.6805 *     0.0000       4.4285 *  0.0000     4          
    30  O     c      4.3907 *    -2.2142 *     6.6427 *  0.0000     8          
    31  O     c     -4.4662 *     6.6427 *    -2.2142 *  0.0000     8          
    32  Na    c      8.8192 *    -2.2142 *     0.0000    0.0000     4          
    33  Cl    c      6.6049 *     4.4285 *     4.4285    0.0000     4          
    34  Na    c      4.3907 *     6.6427 *     4.4285 *  0.0000     8          
    35  Cl    c      2.1765 *     0.0000       8.8569 *  0.0000     4          
    36  Na    c     -0.0378 *    -2.2142 *     8.8569 *  0.0000     8          
    37  Cl    c     -2.2520 *     0.0000       8.8569 *  0.0000     4          
    38  Na    c     -4.4662 *     6.6427 *     4.4285 *  0.0000     8          
    39  Cl    c     -6.6805 *     4.4285 *     4.4285    0.0000     4          
    40  Na    c     -8.8947 *    -2.2142 *     0.0000    0.0000     4          
    41  O     c      8.8192 *    -2.2142 *    -2.2142    0.0000     4          
    42  O     c     -0.0378 *     6.6427 *     6.6427    0.0000     4          
    43  O     c     -8.8947 *    -2.2142 *    -2.2142    0.0000     4          
    44  Na    c      6.6049 *     6.6427 *    -2.2142 *  0.0000     8          
    45  Na    c      2.1765 *     6.6427 *     6.6427    0.0000     4          
    46  Na    c     -2.2520 *     6.6427 *     6.6427    0.0000     4          
    47  Na    c     -6.6805 *    -2.2142 *     6.6427 *  0.0000     8          
    48  Na    c      8.8192 *    -2.2142 *     4.4285 *  0.0000     8          
    49  Na    c      4.3907 *    -2.2142 *     8.8569 *  0.0000     8          
    50  Cl    c      2.1765 *     4.4285 *     8.8569 *  0.0000     8          
    51  Cl    c     -2.2520 *     4.4285 *     8.8569 *  0.0000     8          
    52  Na    c     -4.4662 *    -2.2142 *     8.8569 *  0.0000     8          
    53  Na    c     -8.8947 *    -2.2142 *     4.4285 *  0.0000     8          
    54  O     c      4.3907 *     6.6427 *     6.6427    0.0000     4          
    55  O     c     -4.4662 *     6.6427 *     6.6427    0.0000     4          
    56  Cl    c     11.0334 *     0.0000       0.0000    0.0000     1          
    57  Na    c      8.8192 *     6.6427 *     0.0000    0.0000     4          
    58  Cl    c      6.6049 *     0.0000       8.8569 *  0.0000     4          
    59  Na    c     -0.0378 *     6.6427 *     8.8569 *  0.0000     8          
    60  Na    c     -0.0378 *    11.0712 *     0.0000    0.0000     4          
    61  Cl    c     -6.6805 *     0.0000       8.8569 *  0.0000     4          
    62  Na    c     -8.8947 *     6.6427 *     0.0000    0.0000     4          
    63  Cl    c    -11.1089 *     0.0000       0.0000    0.0000     1          
    64  O     c      8.8192 *    -2.2142 *     6.6427 *  0.0000     8          
    65  O     c     -0.0378 *    -2.2142 *    11.0712 *  0.0000     8          
    66  O     c     -8.8947 *    -2.2142 *     6.6427 *  0.0000     8          
    67  Na    c     11.0334 *    -2.2142 *    -2.2142    0.0000     4          
    68  Na    c      6.6049 *     6.6427 *     6.6427    0.0000     4          
    69  Na    c      2.1765 *    -2.2142 *    11.0712 *  0.0000     8          
    70  Na    c     -2.2520 *    -2.2142 *    11.0712 *  0.0000     8          
    71  Na    c     -6.6805 *     6.6427 *     6.6427    0.0000     4          
    72  Na    c    -11.1089 *    -2.2142 *    -2.2142    0.0000     4          
    73  Cl    c     11.0334 *     0.0000       4.4285 *  0.0000     4          
    74  Na    c      8.8192 *     6.6427 *     4.4285 *  0.0000     8          
    75  Cl    c      6.6049 *     4.4285 *     8.8569 *  0.0000     8          
    76  Na    c      4.3907 *     6.6427 *     8.8569 *  0.0000     8          
    77  Na    c      4.3907 *    11.0712 *     0.0000    0.0000     4          
    78  Na    c     -0.0378 *    11.0712 *     4.4285 *  0.0000     8          
    79  Na    c     -4.4662 *     6.6427 *     8.8569 *  0.0000     8          
    80  Na    c     -4.4662 *    11.0712 *     0.0000    0.0000     4          
    81  Cl    c     -6.6805 *     4.4285 *     8.8569 *  0.0000     8          
    82  Na    c     -8.8947 *     6.6427 *     4.4285 *  0.0000     8          
    83  Cl    c    -11.1089 *     0.0000       4.4285 *  0.0000     4          
    84  Cl    s      0.0000       0.0000       0.0000    0.0000     1    Defect
    85  O     s     -0.0378 *    -2.2142 *    -2.2142    0.0000     4          
    86  Cl    s      2.1765 *     0.0000       4.4285 *  0.0000     4          
    87  Cl    s     -2.2520 *     0.0000       4.4285 *  0.0000     4          
    88  O     s      4.3907 *    -2.2142 *    -2.2142    0.0000     4          
    89  O     s     -4.4662 *    -2.2142 *    -2.2142    0.0000     4          
    90  Cl    s      6.6049 *     0.0000       0.0000    0.0000     1          
    91  Cl    s      2.1765 *     4.4285 *     4.4285    0.0000     4          
    92  Cl    s     -2.2520 *     4.4285 *     4.4285    0.0000     4          
    93  Cl    s     -6.6805 *     0.0000       0.0000    0.0000     1          
    94  O     s     -0.0378 *    -2.2142 *     6.6427 *  0.0000     8          
    95  Cl    s      6.6049 *     0.0000       4.4285 *  0.0000     4          
    96  Cl    s     -6.6805 *     0.0000       4.4285 *  0.0000     4          
    97  O     s      4.3907 *    -2.2142 *     6.6427 *  0.0000     8          
    98  O     s     -4.4662 *     6.6427 *    -2.2142 *  0.0000     8          
    99  Cl    s      6.6049 *     4.4285 *     4.4285    0.0000     4          
   100  Cl    s      2.1765 *     0.0000       8.8569 *  0.0000     4          
   101  Cl    s     -2.2520 *     0.0000       8.8569 *  0.0000     4          
   102  Cl    s     -6.6805 *     4.4285 *     4.4285    0.0000     4          
   103  O     s      8.8192 *    -2.2142 *    -2.2142    0.0000     4          
   104  O     s     -0.0378 *     6.6427 *     6.6427    0.0000     4          
   105  O     s     -8.8947 *    -2.2142 *    -2.2142    0.0000     4          
   106  Cl    s      2.1765 *     4.4285 *     8.8569 *  0.0000     8          
   107  Cl    s     -2.2520 *     4.4285 *     8.8569 *  0.0000     8          
   108  O     s      4.3907 *     6.6427 *     6.6427    0.0000     4          
   109  O     s     -4.4662 *     6.6427 *     6.6427    0.0000     4          
   110  Cl    s     11.0334 *     0.0000       0.0000    0.0000     1          
   111  Cl    s      6.6049 *     0.0000       8.8569 *  0.0000     4          
   112  Cl    s     -6.6805 *     0.0000       8.8569 *  0.0000     4          
   113  Cl    s    -11.1089 *     0.0000       0.0000    0.0000     1          
   114  O     s      8.8192 *    -2.2142 *     6.6427 *  0.0000     8          
   115  O     s     -0.0378 *    -2.2142 *    11.0712 *  0.0000     8          
   116  O     s     -8.8947 *    -2.2142 *     6.6427 *  0.0000     8          
   117  Cl    s     11.0334 *     0.0000       4.4285 *  0.0000     4          
   118  Cl    s      6.6049 *     4.4285 *     8.8569 *  0.0000     8          
   119  Cl    s     -6.6805 *     4.4285 *     8.8569 *  0.0000     8          
   120  Cl    s    -11.1089 *     0.0000       4.4285 *  0.0000     4          
--------------------------------------------------------------------------------


  Constraints on symmetry reduced coordinates :

--------------------------------------------------------------------------------
  Constraint no.      Unconstrained     Constrained    Coefficient    
                         Variable         Variable
--------------------------------------------------------------------------------
           1                 3 y             3 z         1.00000
           2                 4 y             4 z         1.00000
           3                 5 y             5 z         1.00000
           4                11 y            11 z         1.00000
           5                12 y            12 z         1.00000
           6                15 y            15 z         1.00000
           7                17 y            17 z         1.00000
           8                21 y            21 z         1.00000
           9                24 y            24 z         1.00000
          10                33 y            33 z         1.00000
          11                39 y            39 z         1.00000
          12                41 y            41 z         1.00000
          13                42 y            42 z         1.00000
          14                43 y            43 z         1.00000
          15                45 y            45 z         1.00000
          16                46 y            46 z         1.00000
          17                54 y            54 z         1.00000
          18                55 y            55 z         1.00000
          19                67 y            67 z         1.00000
          20                68 y            68 z         1.00000
          21                71 y            71 z         1.00000
          22                72 y            72 z         1.00000
          23                85 y            85 z         1.00000
          24                88 y            88 z         1.00000
          25                89 y            89 z         1.00000
          26                91 y            91 z         1.00000
          27                92 y            92 z         1.00000
          28                99 y            99 z         1.00000
          29               102 y           102 z         1.00000
          30               103 y           103 z         1.00000
          31               104 y           104 z         1.00000
          32               105 y           105 z         1.00000
          33               108 y           108 z         1.00000
          34               109 y           109 z         1.00000
--------------------------------------------------------------------------------


  Components of defect energy : 

--------------------------------------------------------------------------------
  Region 1 - region 1                   =     17.74304742 eV
  Region 1 - region 2a (unrelaxed)      =    -11.42155549 eV
  Region 1 - 2a (relaxed - correction)  =     -0.09470967 eV
  Region 1 (Total)                      =      6.22678225 eV
  Region 2a                             =      0.04736777 eV
  Region 2b                             =     -0.16789279 eV
--------------------------------------------------------------------------------
  Total defect energy                   =      6.10625724 eV
--------------------------------------------------------------------------------

  Largest displacement in region 2 =   0.0177 Angstroms


  Number of variables =      271

  Maximum number of calculations  =        1000
  Maximum Hessian update interval =          10
  Maximum step size               =   1.0000000
  Maximum parameter tolerance     =   0.0000100
  Maximum function  tolerance     =   0.0000100
  Maximum gradient  tolerance     =   0.0010000

  Symmetry adapted optimisation

  Symmetry to be used for second derivatives

  Newton-Raphson optimiser to be used

  BFGS hessian update to be used

  Lower half triangular hessian to be used

  Start of defect optimisation :

  Cycle:      0 Defect Energy:   6.106257  Gnorm:     0.060782  CPU:    1.185
  ** Hessian calculated **
  Cycle:      1 Defect Energy:   4.107179  Gnorm:     0.019473  CPU:    2.708
  Cycle:      2 Defect Energy:   3.725645  Gnorm:     0.006421  CPU:    4.103
  Cycle:      3 Defect Energy:   3.700073  Gnorm:     0.005159  CPU:    4.428
  Cycle:      4 Defect Energy:   3.676727  Gnorm:     0.003561  CPU:    4.757
  Cycle:      5 Defect Energy:   3.664099  Gnorm:     0.002453  CPU:    5.139
  Cycle:      6 Defect Energy:   3.657207  Gnorm:     0.001628  CPU:    5.463
  Cycle:      7 Defect Energy:   3.654171  Gnorm:     0.001072  CPU:    5.713
  Cycle:      8 Defect Energy:   3.652889  Gnorm:     0.000753  CPU:    5.899
  Cycle:      9 Defect Energy:   3.652285  Gnorm:     0.000531  CPU:    6.076
  Cycle:     10 Defect Energy:   3.651986  Gnorm:     0.000380  CPU:    6.257
  ** Hessian calculated **
  Cycle:     11 Defect Energy:   3.651880  Gnorm:     0.000291  CPU:    7.185
  Cycle:     12 Defect Energy:   3.651806  Gnorm:     0.000205  CPU:    7.530
  Cycle:     13 Defect Energy:   3.651773  Gnorm:     0.000145  CPU:    7.859
  Cycle:     14 Defect Energy:   3.651760  Gnorm:     0.000105  CPU:    8.201
  Cycle:     15 Defect Energy:   3.651757  Gnorm:     0.000079  CPU:    8.545
  ** Hessian calculated **
  Cycle:     16 Defect Energy:   3.651749  Gnorm:     0.000055  CPU:    9.459


  **** Optimisation achieved ****


  Final defect energy  =        3.65174542
  Final defect Gnorm   =        0.00004412

  Components of defect energy : 

--------------------------------------------------------------------------------
  Region 1 - region 1                   =     14.22192965 eV
  Region 1 - region 2a (unrelaxed)      =    -10.36403621 eV
  Region 1 - 2a (relaxed - correction)  =     -0.07641884 eV
  Region 1 (Total)                      =      3.78147460 eV
  Region 2a                             =      0.03816505 eV
  Region 2b                             =     -0.16789422 eV
--------------------------------------------------------------------------------
  Total defect energy                   =      3.65174542 eV
--------------------------------------------------------------------------------

  Largest displacement in region 2 =   0.0177 Angstroms

  Final coordinates of region 1 :

--------------------------------------------------------------------------------
   No.  Atomic        x           y           z          Radius      Charge
        Label       (Angs)      (Angs)      (Angs)       (Angs)       (e) 
--------------------------------------------------------------------------------
     1  Cl    c     2.252000    0.000000    0.000000    0.000000    0.615000
     2  Na    c     2.251577   -2.556100    0.000000    0.000000    0.670000
     3  Na    c     2.251577    2.556100    0.000000    0.000000    0.670000
     4  Na    c     2.251577    0.000000   -2.556100    0.000000    0.670000
     5  Na    c     2.251577    0.000000    2.556100    0.000000    0.670000
     6  O     c     2.211477   -2.319753   -2.319753    0.000000    0.489000
     7  O     c     2.211477   -2.319753    2.319753    0.000000    0.489000
     8  O     c     2.211477    2.319753   -2.319753    0.000000    0.489000
     9  O     c     2.211477    2.319753    2.319753    0.000000    0.489000
    10  Na    c     4.403958   -2.322269   -2.322269    0.000000    0.670000
    11  Na    c     4.403958   -2.322269    2.322269    0.000000    0.670000
    12  Na    c     4.403958    2.322269   -2.322269    0.000000    0.670000
    13  Na    c     4.403958    2.322269    2.322269    0.000000    0.670000
    14  Na    c     0.023567   -2.234155   -2.234155    0.000000    0.670000
    15  Na    c     0.023567   -2.234155    2.234155    0.000000    0.670000
    16  Na    c     0.023567    2.234155   -2.234155    0.000000    0.670000
    17  Na    c     0.023567    2.234155    2.234155    0.000000    0.670000
    18  Na    c     6.701920   -2.313021    0.000000    0.000000    0.670000
    19  Na    c     6.701920    2.313021    0.000000    0.000000    0.670000
    20  Na    c     6.701920    0.000000   -2.313021    0.000000    0.670000
    21  Na    c     6.701920    0.000000    2.313021    0.000000    0.670000
    22  Cl    c     4.449033    0.000000    4.427745    0.000000    0.615000
    23  Cl    c     4.449033    0.000000   -4.427745    0.000000    0.615000
    24  Cl    c     4.449033    4.427745    0.000000    0.000000    0.615000
    25  Cl    c     4.449033   -4.427745    0.000000    0.000000    0.615000
    26  Na    c     2.158716    4.507493   -2.354347    0.000000    0.670000
    27  Na    c     2.158716    4.507493    2.354347    0.000000    0.670000
    28  Na    c     2.158716   -4.507493   -2.354347    0.000000    0.670000
    29  Na    c     2.158716   -4.507493    2.354347    0.000000    0.670000
    30  Na    c     2.158716   -2.354347    4.507493    0.000000    0.670000
    31  Na    c     2.158716   -2.354347   -4.507493    0.000000    0.670000
    32  Na    c     2.158716    2.354347    4.507493    0.000000    0.670000
    33  Na    c     2.158716    2.354347   -4.507493    0.000000    0.670000
    34  Cl    c    -0.006529    0.000000    4.402241    0.000000    0.615000
    35  Cl    c    -0.006529    0.000000   -4.402241    0.000000    0.615000
    36  Cl    c    -0.006529    4.402241    0.000000    0.000000    0.615000
    37  Cl    c    -0.006529   -4.402241    0.000000    0.000000    0.615000
    38  Na    c    -2.360919   -2.308474    0.000000    0.000000    0.670000
    39  Na    c    -2.360919    2.308474    0.000000    0.000000    0.670000
    40  Na    c    -2.360919    0.000000   -2.308474    0.000000    0.670000
    41  Na    c    -2.360919    0.000000    2.308474    0.000000    0.670000
    42  O     c     6.612281   -2.205264   -2.205264    0.000000    0.489000
    43  O     c     6.612281   -2.205264    2.205264    0.000000    0.489000
    44  O     c     6.612281    2.205264   -2.205264    0.000000    0.489000
    45  O     c     6.612281    2.205264    2.205264    0.000000    0.489000
    46  O     c    -2.187766   -2.202158   -2.202158    0.000000    0.489000
    47  O     c    -2.187766   -2.202158    2.202158    0.000000    0.489000
    48  O     c    -2.187766    2.202158   -2.202158    0.000000    0.489000
    49  O     c    -2.187766    2.202158    2.202158    0.000000    0.489000
    50  Cl    c     8.759313    0.000000    0.000000    0.000000    0.615000
    51  Na    c     6.661265   -2.239379    4.438054    0.000000    0.670000
    52  Na    c     6.661265   -2.239379   -4.438054    0.000000    0.670000
    53  Na    c     6.661265    2.239379    4.438054    0.000000    0.670000
    54  Na    c     6.661265    2.239379   -4.438054    0.000000    0.670000
    55  Na    c     6.661265    4.438054   -2.239379    0.000000    0.670000
    56  Na    c     6.661265    4.438054    2.239379    0.000000    0.670000
    57  Na    c     6.661265   -4.438054   -2.239379    0.000000    0.670000
    58  Na    c     6.661265   -4.438054    2.239379    0.000000    0.670000
    59  Cl    c     4.443838    4.444217    4.444217    0.000000    0.615000
    60  Cl    c     4.443838    4.444217   -4.444217    0.000000    0.615000
    61  Cl    c     4.443838   -4.444217    4.444217    0.000000    0.615000
    62  Cl    c     4.443838   -4.444217   -4.444217    0.000000    0.615000
    63  Na    c     2.237259    6.633723    0.000000    0.000000    0.670000
    64  Na    c     2.237259   -6.633723    0.000000    0.000000    0.670000
    65  Na    c     2.237259    0.000000    6.633723    0.000000    0.670000
    66  Na    c     2.237259    0.000000   -6.633723    0.000000    0.670000
    67  Cl    c    -0.023522    4.437921    4.437921    0.000000    0.615000
    68  Cl    c    -0.023522    4.437921   -4.437921    0.000000    0.615000
    69  Cl    c    -0.023522   -4.437921    4.437921    0.000000    0.615000
    70  Cl    c    -0.023522   -4.437921   -4.437921    0.000000    0.615000
    71  Na    c    -2.148727   -2.240148    4.438830    0.000000    0.670000
    72  Na    c    -2.148727   -2.240148   -4.438830    0.000000    0.670000
    73  Na    c    -2.148727    2.240148    4.438830    0.000000    0.670000
    74  Na    c    -2.148727    2.240148   -4.438830    0.000000    0.670000
    75  Na    c    -2.148727    4.438830   -2.240148    0.000000    0.670000
    76  Na    c    -2.148727    4.438830    2.240148    0.000000    0.670000
    77  Na    c    -2.148727   -4.438830   -2.240148    0.000000    0.670000
    78  Na    c    -2.148727   -4.438830    2.240148    0.000000    0.670000
    79  Cl    c    -4.347706    0.000000    0.000000    0.000000    0.615000
    80  O     c     2.213054   -2.221215    6.685114    0.000000    0.489000
    81  O     c     2.213054   -2.221215   -6.685114    0.000000    0.489000
    82  O     c     2.213054    2.221215    6.685114    0.000000    0.489000
    83  O     c     2.213054    2.221215   -6.685114    0.000000    0.489000
    84  O     c     2.213054    6.685114   -2.221215    0.000000    0.489000
    85  O     c     2.213054    6.685114    2.221215    0.000000    0.489000
    86  O     c     2.213054   -6.685114   -2.221215    0.000000    0.489000
    87  O     c     2.213054   -6.685114    2.221215    0.000000    0.489000
    88  Na    c     8.851457   -2.220274   -2.220274    0.000000    0.670000
    89  Na    c     8.851457   -2.220274    2.220274    0.000000    0.670000
    90  Na    c     8.851457    2.220274   -2.220274    0.000000    0.670000
    91  Na    c     8.851457    2.220274    2.220274    0.000000    0.670000
    92  Na    c     4.430583   -2.232953    6.658371    0.000000    0.670000
    93  Na    c     4.430583   -2.232953   -6.658371    0.000000    0.670000
    94  Na    c     4.430583    2.232953    6.658371    0.000000    0.670000
    95  Na    c     4.430583    2.232953   -6.658371    0.000000    0.670000
    96  Na    c     4.430583    6.658371   -2.232953    0.000000    0.670000
    97  Na    c     4.430583    6.658371    2.232953    0.000000    0.670000
    98  Na    c     4.430583   -6.658371   -2.232953    0.000000    0.670000
    99  Na    c     4.430583   -6.658371    2.232953    0.000000    0.670000
   100  Na    c    -0.002391   -2.196694    6.750103    0.000000    0.670000
   101  Na    c    -0.002391   -2.196694   -6.750103    0.000000    0.670000
   102  Na    c    -0.002391    2.196694    6.750103    0.000000    0.670000
   103  Na    c    -0.002391    2.196694   -6.750103    0.000000    0.670000
   104  Na    c    -0.002391    6.750103   -2.196694    0.000000    0.670000
   105  Na    c    -0.002391    6.750103    2.196694    0.000000    0.670000
   106  Na    c    -0.002391   -6.750103   -2.196694    0.000000    0.670000
   107  Na    c    -0.002391   -6.750103    2.196694    0.000000    0.670000
   108  Na    c    -4.421580   -2.296403   -2.296403    0.000000    0.670000
   109  Na    c    -4.421580   -2.296403    2.296403    0.000000    0.670000
   110  Na    c    -4.421580    2.296403   -2.296403    0.000000    0.670000
   111  Na    c    -4.421580    2.296403    2.296403    0.000000    0.670000
   112  Cl    c     8.819483    0.000000    4.392830    0.000000    0.615000
   113  Cl    c     8.819483    0.000000   -4.392830    0.000000    0.615000
   114  Cl    c     8.819483    4.392830    0.000000    0.000000    0.615000
   115  Cl    c     8.819483   -4.392830    0.000000    0.000000    0.615000
   116  Na    c     6.633842    6.644957    0.000000    0.000000    0.670000
   117  Na    c     6.633842   -6.644957    0.000000    0.000000    0.670000
   118  Na    c     6.633842    0.000000    6.644957    0.000000    0.670000
   119  Na    c     6.633842    0.000000   -6.644957    0.000000    0.670000
   120  Na    c     2.203617    6.734235    4.445893    0.000000    0.670000
   121  Na    c     2.203617    6.734235   -4.445893    0.000000    0.670000
   122  Na    c     2.203617   -6.734235    4.445893    0.000000    0.670000
   123  Na    c     2.203617   -6.734235   -4.445893    0.000000    0.670000
   124  Na    c     2.203617    4.445893    6.734235    0.000000    0.670000
   125  Na    c     2.203617    4.445893   -6.734235    0.000000    0.670000
   126  Na    c     2.203617   -4.445893    6.734235    0.000000    0.670000
   127  Na    c     2.203617   -4.445893   -6.734235    0.000000    0.670000
   128  Na    c    -2.247156    6.639583    0.000000    0.000000    0.670000
   129  Na    c    -2.247156   -6.639583    0.000000    0.000000    0.670000
   130  Na    c    -2.247156    0.000000    6.639583    0.000000    0.670000
   131  Na    c    -2.247156    0.000000   -6.639583    0.000000    0.670000
   132  Cl    c    -4.400475    0.000000    4.404124    0.000000    0.615000
   133  Cl    c    -4.400475    0.000000   -4.404124    0.000000    0.615000
   134  Cl    c    -4.400475    4.404124    0.000000    0.000000    0.615000
   135  Cl    c    -4.400475   -4.404124    0.000000    0.000000    0.615000
   136  O     c     6.642375   -2.216166    6.645386    0.000000    0.489000
   137  O     c     6.642375   -2.216166   -6.645386    0.000000    0.489000
   138  O     c     6.642375    2.216166    6.645386    0.000000    0.489000
   139  O     c     6.642375    2.216166   -6.645386    0.000000    0.489000
   140  O     c     6.642375    6.645386   -2.216166    0.000000    0.489000
   141  O     c     6.642375    6.645386    2.216166    0.000000    0.489000
   142  O     c     6.642375   -6.645386   -2.216166    0.000000    0.489000
   143  O     c     6.642375   -6.645386    2.216166    0.000000    0.489000
   144  O     c    -2.212022    6.646508   -2.213966    0.000000    0.489000
   145  O     c    -2.212022    6.646508    2.213966    0.000000    0.489000
   146  O     c    -2.212022   -6.646508   -2.213966    0.000000    0.489000
   147  O     c    -2.212022   -6.646508    2.213966    0.000000    0.489000
   148  O     c    -2.212022   -2.213966    6.646508    0.000000    0.489000
   149  O     c    -2.212022   -2.213966   -6.646508    0.000000    0.489000
   150  O     c    -2.212022    2.213966    6.646508    0.000000    0.489000
   151  O     c    -2.212022    2.213966   -6.646508    0.000000    0.489000
   152  Na    c    11.085263   -2.220681    0.000000    0.000000    0.670000
   153  Na    c    11.085263    2.220681    0.000000    0.000000    0.670000
   154  Na    c    11.085263    0.000000   -2.220681    0.000000    0.670000
   155  Na    c    11.085263    0.000000    2.220681    0.000000    0.670000
   156  Cl    c     8.829140    4.399126    4.399126    0.000000    0.615000
   157  Cl    c     8.829140    4.399126   -4.399126    0.000000    0.615000
   158  Cl    c     8.829140   -4.399126    4.399126    0.000000    0.615000
   159  Cl    c     8.829140   -4.399126   -4.399126    0.000000    0.615000
   160  Na    c     6.654139    6.662295    4.433980    0.000000    0.670000
   161  Na    c     6.654139    6.662295   -4.433980    0.000000    0.670000
   162  Na    c     6.654139   -6.662295    4.433980    0.000000    0.670000
   163  Na    c     6.654139   -6.662295   -4.433980    0.000000    0.670000
   164  Na    c     6.654139    4.433980    6.662295    0.000000    0.670000
   165  Na    c     6.654139    4.433980   -6.662295    0.000000    0.670000
   166  Na    c     6.654139   -4.433980    6.662295    0.000000    0.670000
   167  Na    c     6.654139   -4.433980   -6.662295    0.000000    0.670000
   168  Cl    c     4.428321    0.000000    8.847469    0.000000    0.615000
   169  Cl    c     4.428321    0.000000   -8.847469    0.000000    0.615000
   170  Cl    c     4.428321    8.847469    0.000000    0.000000    0.615000
   171  Cl    c     4.428321   -8.847469    0.000000    0.000000    0.615000
   172  Na    c     2.251678   -2.181915    8.885127    0.000000    0.670000
   173  Na    c     2.251678   -2.181915   -8.885127    0.000000    0.670000
   174  Na    c     2.251678    2.181915    8.885127    0.000000    0.670000
   175  Na    c     2.251678    2.181915   -8.885127    0.000000    0.670000
   176  Na    c     2.251678    8.885127   -2.181915    0.000000    0.670000
   177  Na    c     2.251678    8.885127    2.181915    0.000000    0.670000
   178  Na    c     2.251678   -8.885127   -2.181915    0.000000    0.670000
   179  Na    c     2.251678   -8.885127    2.181915    0.000000    0.670000
   180  Cl    c     0.001426    0.000000    8.850478    0.000000    0.615000
   181  Cl    c     0.001426    0.000000   -8.850478    0.000000    0.615000
   182  Cl    c     0.001426    8.850478    0.000000    0.000000    0.615000
   183  Cl    c     0.001426   -8.850478    0.000000    0.000000    0.615000
   184  Na    c    -2.203801    6.660496    4.432993    0.000000    0.670000
   185  Na    c    -2.203801    6.660496   -4.432993    0.000000    0.670000
   186  Na    c    -2.203801   -6.660496    4.432993    0.000000    0.670000
   187  Na    c    -2.203801   -6.660496   -4.432993    0.000000    0.670000
   188  Na    c    -2.203801    4.432993    6.660496    0.000000    0.670000
   189  Na    c    -2.203801    4.432993   -6.660496    0.000000    0.670000
   190  Na    c    -2.203801   -4.432993    6.660496    0.000000    0.670000
   191  Na    c    -2.203801   -4.432993   -6.660496    0.000000    0.670000
   192  Cl    c    -4.396959    4.405249    4.405249    0.000000    0.615000
   193  Cl    c    -4.396959    4.405249   -4.405249    0.000000    0.615000
   194  Cl    c    -4.396959   -4.405249    4.405249    0.000000    0.615000
   195  Cl    c    -4.396959   -4.405249   -4.405249    0.000000    0.615000
   196  Na    c    -6.598727   -2.213868    0.000000    0.000000    0.670000
   197  Na    c    -6.598727    2.213868    0.000000    0.000000    0.670000
   198  Na    c    -6.598727    0.000000   -2.213868    0.000000    0.670000
   199  Na    c    -6.598727    0.000000    2.213868    0.000000    0.670000
   200  O     c    11.063378   -2.213119   -2.213119    0.000000    0.489000
   201  O     c    11.063378   -2.213119    2.213119    0.000000    0.489000
   202  O     c    11.063378    2.213119   -2.213119    0.000000    0.489000
   203  O     c    11.063378    2.213119    2.213119    0.000000    0.489000
   204  O     c     2.213488    6.654686    6.654686    0.000000    0.489000
   205  O     c     2.213488    6.654686   -6.654686    0.000000    0.489000
   206  O     c     2.213488   -6.654686    6.654686    0.000000    0.489000
   207  O     c     2.213488   -6.654686   -6.654686    0.000000    0.489000
   208  O     c    -6.630928   -2.214742   -2.214742    0.000000    0.489000
   209  O     c    -6.630928   -2.214742    2.214742    0.000000    0.489000
   210  O     c    -6.630928    2.214742   -2.214742    0.000000    0.489000
   211  O     c    -6.630928    2.214742    2.214742    0.000000    0.489000
   212  Na    c     8.857257    6.663256   -2.213377    0.000000    0.670000
   213  Na    c     8.857257    6.663256    2.213377    0.000000    0.670000
   214  Na    c     8.857257   -6.663256   -2.213377    0.000000    0.670000
   215  Na    c     8.857257   -6.663256    2.213377    0.000000    0.670000
   216  Na    c     8.857257   -2.213377    6.663256    0.000000    0.670000
   217  Na    c     8.857257   -2.213377   -6.663256    0.000000    0.670000
   218  Na    c     8.857257    2.213377    6.663256    0.000000    0.670000
   219  Na    c     8.857257    2.213377   -6.663256    0.000000    0.670000
   220  Na    c     4.431068    6.639742    6.639742    0.000000    0.670000
   221  Na    c     4.431068    6.639742   -6.639742    0.000000    0.670000
   222  Na    c     4.431068   -6.639742    6.639742    0.000000    0.670000
   223  Na    c     4.431068   -6.639742   -6.639742    0.000000    0.670000
   224  Na    c    -0.002439    6.658641    6.658641    0.000000    0.670000
   225  Na    c    -0.002439    6.658641   -6.658641    0.000000    0.670000
   226  Na    c    -0.002439   -6.658641    6.658641    0.000000    0.670000
   227  Na    c    -0.002439   -6.658641   -6.658641    0.000000    0.670000
   228  Na    c    -4.428940   -2.239046    6.616106    0.000000    0.670000
   229  Na    c    -4.428940   -2.239046   -6.616106    0.000000    0.670000
   230  Na    c    -4.428940    2.239046    6.616106    0.000000    0.670000
   231  Na    c    -4.428940    2.239046   -6.616106    0.000000    0.670000
   232  Na    c    -4.428940    6.616106   -2.239046    0.000000    0.670000
   233  Na    c    -4.428940    6.616106    2.239046    0.000000    0.670000
   234  Na    c    -4.428940   -6.616106   -2.239046    0.000000    0.670000
   235  Na    c    -4.428940   -6.616106    2.239046    0.000000    0.670000
   236  Na    c    11.072302   -2.218131    4.429276    0.000000    0.670000
   237  Na    c    11.072302   -2.218131   -4.429276    0.000000    0.670000
   238  Na    c    11.072302    2.218131    4.429276    0.000000    0.670000
   239  Na    c    11.072302    2.218131   -4.429276    0.000000    0.670000
   240  Na    c    11.072302    4.429276   -2.218131    0.000000    0.670000
   241  Na    c    11.072302    4.429276    2.218131    0.000000    0.670000
   242  Na    c    11.072302   -4.429276   -2.218131    0.000000    0.670000
   243  Na    c    11.072302   -4.429276    2.218131    0.000000    0.670000
   244  Na    c     6.639461   -2.208834    8.861385    0.000000    0.670000
   245  Na    c     6.639461   -2.208834   -8.861385    0.000000    0.670000
   246  Na    c     6.639461    2.208834    8.861385    0.000000    0.670000
   247  Na    c     6.639461    2.208834   -8.861385    0.000000    0.670000
   248  Na    c     6.639461    8.861385   -2.208834    0.000000    0.670000
   249  Na    c     6.639461    8.861385    2.208834    0.000000    0.670000
   250  Na    c     6.639461   -8.861385   -2.208834    0.000000    0.670000
   251  Na    c     6.639461   -8.861385    2.208834    0.000000    0.670000
   252  Cl    c     4.425278    4.426468    8.848590    0.000000    0.615000
   253  Cl    c     4.425278    4.426468   -8.848590    0.000000    0.615000
   254  Cl    c     4.425278    8.848590    4.426468    0.000000    0.615000
   255  Cl    c     4.425278    8.848590   -4.426468    0.000000    0.615000
   256  Cl    c     4.425278   -4.426468    8.848590    0.000000    0.615000
   257  Cl    c     4.425278   -4.426468   -8.848590    0.000000    0.615000
   258  Cl    c     4.425278   -8.848590    4.426468    0.000000    0.615000
   259  Cl    c     4.425278   -8.848590   -4.426468    0.000000    0.615000
   260  Cl    c     0.001170    4.427629    8.848864    0.000000    0.615000
   261  Cl    c     0.001170    4.427629   -8.848864    0.000000    0.615000
   262  Cl    c     0.001170    8.848864    4.427629    0.000000    0.615000
   263  Cl    c     0.001170    8.848864   -4.427629    0.000000    0.615000
   264  Cl    c     0.001170   -4.427629    8.848864    0.000000    0.615000
   265  Cl    c     0.001170   -4.427629   -8.848864    0.000000    0.615000
   266  Cl    c     0.001170   -8.848864    4.427629    0.000000    0.615000
   267  Cl    c     0.001170   -8.848864   -4.427629    0.000000    0.615000
   268  Na    c    -2.257812   -2.204720    8.862633    0.000000    0.670000
   269  Na    c    -2.257812   -2.204720   -8.862633    0.000000    0.670000
   270  Na    c    -2.257812    2.204720    8.862633    0.000000    0.670000
   271  Na    c    -2.257812    2.204720   -8.862633    0.000000    0.670000
   272  Na    c    -2.257812    8.862633   -2.204720    0.000000    0.670000
   273  Na    c    -2.257812    8.862633    2.204720    0.000000    0.670000
   274  Na    c    -2.257812   -8.862633   -2.204720    0.000000    0.670000
   275  Na    c    -2.257812   -8.862633    2.204720    0.000000    0.670000
   276  Na    c    -6.686216   -2.208770    4.429230    0.000000    0.670000
   277  Na    c    -6.686216   -2.208770   -4.429230    0.000000    0.670000
   278  Na    c    -6.686216    2.208770    4.429230    0.000000    0.670000
   279  Na    c    -6.686216    2.208770   -4.429230    0.000000    0.670000
   280  Na    c    -6.686216    4.429230   -2.208770    0.000000    0.670000
   281  Na    c    -6.686216    4.429230    2.208770    0.000000    0.670000
   282  Na    c    -6.686216   -4.429230   -2.208770    0.000000    0.670000
   283  Na    c    -6.686216   -4.429230    2.208770    0.000000    0.670000
   284  O     c     6.645750    6.646330    6.646330    0.000000    0.489000
   285  O     c     6.645750    6.646330   -6.646330    0.000000    0.489000
   286  O     c     6.645750   -6.646330    6.646330    0.000000    0.489000
   287  O     c     6.645750   -6.646330   -6.646330    0.000000    0.489000
   288  O     c    -2.215309    6.646329    6.646329    0.000000    0.489000
   289  O     c    -2.215309    6.646329   -6.646329    0.000000    0.489000
   290  O     c    -2.215309   -6.646329    6.646329    0.000000    0.489000
   291  O     c    -2.215309   -6.646329   -6.646329    0.000000    0.489000
   292  Cl    c    13.256821    0.000000    0.000000    0.000000    0.615000
   293  Na    c    11.082649    6.648734    0.000000    0.000000    0.670000
   294  Na    c    11.082649   -6.648734    0.000000    0.000000    0.670000
   295  Na    c    11.082649    0.000000    6.648734    0.000000    0.670000
   296  Na    c    11.082649    0.000000   -6.648734    0.000000    0.670000
   297  Cl    c     8.850617    0.000000    8.841290    0.000000    0.615000
   298  Cl    c     8.850617    0.000000   -8.841290    0.000000    0.615000
   299  Cl    c     8.850617    8.841290    0.000000    0.000000    0.615000
   300  Cl    c     8.850617   -8.841290    0.000000    0.000000    0.615000
   301  Na    c     2.219871    6.671522    8.867282    0.000000    0.670000
   302  Na    c     2.219871    6.671522   -8.867282    0.000000    0.670000
   303  Na    c     2.219871   -6.671522    8.867282    0.000000    0.670000
   304  Na    c     2.219871   -6.671522   -8.867282    0.000000    0.670000
   305  Na    c     2.219871    8.867282    6.671522    0.000000    0.670000
   306  Na    c     2.219871    8.867282   -6.671522    0.000000    0.670000
   307  Na    c     2.219871   -8.867282    6.671522    0.000000    0.670000
   308  Na    c     2.219871   -8.867282   -6.671522    0.000000    0.670000
   309  Na    c     2.201404   11.113188    0.000000    0.000000    0.670000
   310  Na    c     2.201404  -11.113188    0.000000    0.000000    0.670000
   311  Na    c     2.201404    0.000000   11.113188    0.000000    0.670000
   312  Na    c     2.201404    0.000000  -11.113188    0.000000    0.670000
   313  Cl    c    -4.421803    0.000000    8.840816    0.000000    0.615000
   314  Cl    c    -4.421803    0.000000   -8.840816    0.000000    0.615000
   315  Cl    c    -4.421803    8.840816    0.000000    0.000000    0.615000
   316  Cl    c    -4.421803   -8.840816    0.000000    0.000000    0.615000
   317  Na    c    -6.632283    6.660015    0.000000    0.000000    0.670000
   318  Na    c    -6.632283   -6.660015    0.000000    0.000000    0.670000
   319  Na    c    -6.632283    0.000000    6.660015    0.000000    0.670000
   320  Na    c    -6.632283    0.000000   -6.660015    0.000000    0.670000
   321  Cl    c    -8.836044    0.000000    0.000000    0.000000    0.615000
   322  O     c    11.068638   -2.213284    6.640395    0.000000    0.489000
   323  O     c    11.068638   -2.213284   -6.640395    0.000000    0.489000
   324  O     c    11.068638    2.213284    6.640395    0.000000    0.489000
   325  O     c    11.068638    2.213284   -6.640395    0.000000    0.489000
   326  O     c    11.068638    6.640395   -2.213284    0.000000    0.489000
   327  O     c    11.068638    6.640395    2.213284    0.000000    0.489000
   328  O     c    11.068638   -6.640395   -2.213284    0.000000    0.489000
   329  O     c    11.068638   -6.640395    2.213284    0.000000    0.489000
   330  O     c     2.216357   -2.212751   11.081737    0.000000    0.489000
   331  O     c     2.216357   -2.212751  -11.081737    0.000000    0.489000
   332  O     c     2.216357    2.212751   11.081737    0.000000    0.489000
   333  O     c     2.216357    2.212751  -11.081737    0.000000    0.489000
   334  O     c     2.216357   11.081737   -2.212751    0.000000    0.489000
   335  O     c     2.216357   11.081737    2.212751    0.000000    0.489000
   336  O     c     2.216357  -11.081737   -2.212751    0.000000    0.489000
   337  O     c     2.216357  -11.081737    2.212751    0.000000    0.489000
   338  O     c    -6.641461   -2.214730    6.638696    0.000000    0.489000
   339  O     c    -6.641461   -2.214730   -6.638696    0.000000    0.489000
   340  O     c    -6.641461    2.214730    6.638696    0.000000    0.489000
   341  O     c    -6.641461    2.214730   -6.638696    0.000000    0.489000
   342  O     c    -6.641461    6.638696   -2.214730    0.000000    0.489000
   343  O     c    -6.641461    6.638696    2.214730    0.000000    0.489000
   344  O     c    -6.641461   -6.638696   -2.214730    0.000000    0.489000
   345  O     c    -6.641461   -6.638696    2.214730    0.000000    0.489000
   346  Na    c    13.284921   -2.219153   -2.219153    0.000000    0.670000
   347  Na    c    13.284921   -2.219153    2.219153    0.000000    0.670000
   348  Na    c    13.284921    2.219153   -2.219153    0.000000    0.670000
   349  Na    c    13.284921    2.219153    2.219153    0.000000    0.670000
   350  Na    c     8.859833    6.653095    6.653095    0.000000    0.670000
   351  Na    c     8.859833    6.653095   -6.653095    0.000000    0.670000
   352  Na    c     8.859833   -6.653095    6.653095    0.000000    0.670000
   353  Na    c     8.859833   -6.653095   -6.653095    0.000000    0.670000
   354  Na    c     4.431542   -2.215825   11.099417    0.000000    0.670000
   355  Na    c     4.431542   -2.215825  -11.099417    0.000000    0.670000
   356  Na    c     4.431542    2.215825   11.099417    0.000000    0.670000
   357  Na    c     4.431542    2.215825  -11.099417    0.000000    0.670000
   358  Na    c     4.431542   11.099417   -2.215825    0.000000    0.670000
   359  Na    c     4.431542   11.099417    2.215825    0.000000    0.670000
   360  Na    c     4.431542  -11.099417   -2.215825    0.000000    0.670000
   361  Na    c     4.431542  -11.099417    2.215825    0.000000    0.670000
   362  Na    c    -0.000768   -2.227329   11.068965    0.000000    0.670000
   363  Na    c    -0.000768   -2.227329  -11.068965    0.000000    0.670000
   364  Na    c    -0.000768    2.227329   11.068965    0.000000    0.670000
   365  Na    c    -0.000768    2.227329  -11.068965    0.000000    0.670000
   366  Na    c    -0.000768   11.068965   -2.227329    0.000000    0.670000
   367  Na    c    -0.000768   11.068965    2.227329    0.000000    0.670000
   368  Na    c    -0.000768  -11.068965   -2.227329    0.000000    0.670000
   369  Na    c    -0.000768  -11.068965    2.227329    0.000000    0.670000
   370  Na    c    -4.429599    6.643566    6.643566    0.000000    0.670000
   371  Na    c    -4.429599    6.643566   -6.643566    0.000000    0.670000
   372  Na    c    -4.429599   -6.643566    6.643566    0.000000    0.670000
   373  Na    c    -4.429599   -6.643566   -6.643566    0.000000    0.670000
   374  Na    c    -8.853984   -2.192372   -2.192372    0.000000    0.670000
   375  Na    c    -8.853984   -2.192372    2.192372    0.000000    0.670000
   376  Na    c    -8.853984    2.192372   -2.192372    0.000000    0.670000
   377  Na    c    -8.853984    2.192372    2.192372    0.000000    0.670000
   378  Cl    c    13.260378    0.000000    4.417933    0.000000    0.615000
   379  Cl    c    13.260378    0.000000   -4.417933    0.000000    0.615000
   380  Cl    c    13.260378    4.417933    0.000000    0.000000    0.615000
   381  Cl    c    13.260378   -4.417933    0.000000    0.000000    0.615000
   382  Na    c    11.080185    6.651581    4.429241    0.000000    0.670000
   383  Na    c    11.080185    6.651581   -4.429241    0.000000    0.670000
   384  Na    c    11.080185   -6.651581    4.429241    0.000000    0.670000
   385  Na    c    11.080185   -6.651581   -4.429241    0.000000    0.670000
   386  Na    c    11.080185    4.429241    6.651581    0.000000    0.670000
   387  Na    c    11.080185    4.429241   -6.651581    0.000000    0.670000
   388  Na    c    11.080185   -4.429241    6.651581    0.000000    0.670000
   389  Na    c    11.080185   -4.429241   -6.651581    0.000000    0.670000
   390  Cl    c     8.850502    4.420258    8.838796    0.000000    0.615000
   391  Cl    c     8.850502    4.420258   -8.838796    0.000000    0.615000
   392  Cl    c     8.850502    8.838796    4.420258    0.000000    0.615000
   393  Cl    c     8.850502    8.838796   -4.420258    0.000000    0.615000
   394  Cl    c     8.850502   -4.420258    8.838796    0.000000    0.615000
   395  Cl    c     8.850502   -4.420258   -8.838796    0.000000    0.615000
   396  Cl    c     8.850502   -8.838796    4.420258    0.000000    0.615000
   397  Cl    c     8.850502   -8.838796   -4.420258    0.000000    0.615000
   398  Na    c     6.643990    6.654032    8.860762    0.000000    0.670000
   399  Na    c     6.643990    6.654032   -8.860762    0.000000    0.670000
   400  Na    c     6.643990   -6.654032    8.860762    0.000000    0.670000
   401  Na    c     6.643990   -6.654032   -8.860762    0.000000    0.670000
   402  Na    c     6.643990    8.860762    6.654032    0.000000    0.670000
   403  Na    c     6.643990    8.860762   -6.654032    0.000000    0.670000
   404  Na    c     6.643990   -8.860762    6.654032    0.000000    0.670000
   405  Na    c     6.643990   -8.860762   -6.654032    0.000000    0.670000
   406  Na    c     6.648962   11.083172    0.000000    0.000000    0.670000
   407  Na    c     6.648962  -11.083172    0.000000    0.000000    0.670000
   408  Na    c     6.648962    0.000000   11.083172    0.000000    0.670000
   409  Na    c     6.648962    0.000000  -11.083172    0.000000    0.670000
   410  Na    c     2.214488   11.079845    4.429640    0.000000    0.670000
   411  Na    c     2.214488   11.079845   -4.429640    0.000000    0.670000
   412  Na    c     2.214488  -11.079845    4.429640    0.000000    0.670000
   413  Na    c     2.214488  -11.079845   -4.429640    0.000000    0.670000
   414  Na    c     2.214488    4.429640   11.079845    0.000000    0.670000
   415  Na    c     2.214488    4.429640  -11.079845    0.000000    0.670000
   416  Na    c     2.214488   -4.429640   11.079845    0.000000    0.670000
   417  Na    c     2.214488   -4.429640  -11.079845    0.000000    0.670000
   418  Na    c    -2.222995    6.653056    8.861050    0.000000    0.670000
   419  Na    c    -2.222995    6.653056   -8.861050    0.000000    0.670000
   420  Na    c    -2.222995   -6.653056    8.861050    0.000000    0.670000
   421  Na    c    -2.222995   -6.653056   -8.861050    0.000000    0.670000
   422  Na    c    -2.222995    8.861050    6.653056    0.000000    0.670000
   423  Na    c    -2.222995    8.861050   -6.653056    0.000000    0.670000
   424  Na    c    -2.222995   -8.861050    6.653056    0.000000    0.670000
   425  Na    c    -2.222995   -8.861050   -6.653056    0.000000    0.670000
   426  Na    c    -2.203608   11.093791    0.000000    0.000000    0.670000
   427  Na    c    -2.203608  -11.093791    0.000000    0.000000    0.670000
   428  Na    c    -2.203608    0.000000   11.093791    0.000000    0.670000
   429  Na    c    -2.203608    0.000000  -11.093791    0.000000    0.670000
   430  Cl    c    -4.421079    4.418032    8.839667    0.000000    0.615000
   431  Cl    c    -4.421079    4.418032   -8.839667    0.000000    0.615000
   432  Cl    c    -4.421079    8.839667    4.418032    0.000000    0.615000
   433  Cl    c    -4.421079    8.839667   -4.418032    0.000000    0.615000
   434  Cl    c    -4.421079   -4.418032    8.839667    0.000000    0.615000
   435  Cl    c    -4.421079   -4.418032   -8.839667    0.000000    0.615000
   436  Cl    c    -4.421079   -8.839667    4.418032    0.000000    0.615000
   437  Cl    c    -4.421079   -8.839667   -4.418032    0.000000    0.615000
   438  Na    c    -6.656032    6.653683    4.430162    0.000000    0.670000
   439  Na    c    -6.656032    6.653683   -4.430162    0.000000    0.670000
   440  Na    c    -6.656032   -6.653683    4.430162    0.000000    0.670000
   441  Na    c    -6.656032   -6.653683   -4.430162    0.000000    0.670000
   442  Na    c    -6.656032    4.430162    6.653683    0.000000    0.670000
   443  Na    c    -6.656032    4.430162   -6.653683    0.000000    0.670000
   444  Na    c    -6.656032   -4.430162    6.653683    0.000000    0.670000
   445  Na    c    -6.656032   -4.430162   -6.653683    0.000000    0.670000
   446  Cl    c    -8.831873    0.000000    4.414021    0.000000    0.615000
   447  Cl    c    -8.831873    0.000000   -4.414021    0.000000    0.615000
   448  Cl    c    -8.831873    4.414021    0.000000    0.000000    0.615000
   449  Cl    c    -8.831873   -4.414021    0.000000    0.000000    0.615000
   450  Cl    s     2.252000    0.000000    0.000000    0.000000   -1.285000
   451  O     s     2.210975   -2.325755   -2.325755    0.000000   -1.829000
   452  O     s     2.210975   -2.325755    2.325755    0.000000   -1.829000
   453  O     s     2.210975    2.325755   -2.325755    0.000000   -1.829000
   454  O     s     2.210975    2.325755    2.325755    0.000000   -1.829000
   455  Cl    s     4.447775    0.000000    4.425259    0.000000   -1.285000
   456  Cl    s     4.447775    0.000000   -4.425259    0.000000   -1.285000
   457  Cl    s     4.447775    4.425259    0.000000    0.000000   -1.285000
   458  Cl    s     4.447775   -4.425259    0.000000    0.000000   -1.285000
   459  Cl    s    -0.005263    0.000000    4.399294    0.000000   -1.285000
   460  Cl    s    -0.005263    0.000000   -4.399294    0.000000   -1.285000
   461  Cl    s    -0.005263    4.399294    0.000000    0.000000   -1.285000
   462  Cl    s    -0.005263   -4.399294    0.000000    0.000000   -1.285000
   463  O     s     6.612446   -2.205373   -2.205373    0.000000   -1.829000
   464  O     s     6.612446   -2.205373    2.205373    0.000000   -1.829000
   465  O     s     6.612446    2.205373   -2.205373    0.000000   -1.829000
   466  O     s     6.612446    2.205373    2.205373    0.000000   -1.829000
   467  O     s    -2.187829   -2.202120   -2.202120    0.000000   -1.829000
   468  O     s    -2.187829   -2.202120    2.202120    0.000000   -1.829000
   469  O     s    -2.187829    2.202120   -2.202120    0.000000   -1.829000
   470  O     s    -2.187829    2.202120    2.202120    0.000000   -1.829000
   471  Cl    s     8.756943    0.000000    0.000000    0.000000   -1.285000
   472  Cl    s     4.443932    4.442776    4.442776    0.000000   -1.285000
   473  Cl    s     4.443932    4.442776   -4.442776    0.000000   -1.285000
   474  Cl    s     4.443932   -4.442776    4.442776    0.000000   -1.285000
   475  Cl    s     4.443932   -4.442776   -4.442776    0.000000   -1.285000
   476  Cl    s    -0.023457    4.436207    4.436207    0.000000   -1.285000
   477  Cl    s    -0.023457    4.436207   -4.436207    0.000000   -1.285000
   478  Cl    s    -0.023457   -4.436207    4.436207    0.000000   -1.285000
   479  Cl    s    -0.023457   -4.436207   -4.436207    0.000000   -1.285000
   480  Cl    s    -4.345010    0.000000    0.000000    0.000000   -1.285000
   481  O     s     2.212941   -2.221605    6.684190    0.000000   -1.829000
   482  O     s     2.212941   -2.221605   -6.684190    0.000000   -1.829000
   483  O     s     2.212941    2.221605    6.684190    0.000000   -1.829000
   484  O     s     2.212941    2.221605   -6.684190    0.000000   -1.829000
   485  O     s     2.212941    6.684190   -2.221605    0.000000   -1.829000
   486  O     s     2.212941    6.684190    2.221605    0.000000   -1.829000
   487  O     s     2.212941   -6.684190   -2.221605    0.000000   -1.829000
   488  O     s     2.212941   -6.684190    2.221605    0.000000   -1.829000
   489  Cl    s     8.817275    0.000000    4.390509    0.000000   -1.285000
   490  Cl    s     8.817275    0.000000   -4.390509    0.000000   -1.285000
   491  Cl    s     8.817275    4.390509    0.000000    0.000000   -1.285000
   492  Cl    s     8.817275   -4.390509    0.000000    0.000000   -1.285000
   493  Cl    s    -4.398372    0.000000    4.401654    0.000000   -1.285000
   494  Cl    s    -4.398372    0.000000   -4.401654    0.000000   -1.285000
   495  Cl    s    -4.398372    4.401654    0.000000    0.000000   -1.285000
   496  Cl    s    -4.398372   -4.401654    0.000000    0.000000   -1.285000
   497  O     s     6.642305   -2.216245    6.645131    0.000000   -1.829000
   498  O     s     6.642305   -2.216245   -6.645131    0.000000   -1.829000
   499  O     s     6.642305    2.216245    6.645131    0.000000   -1.829000
   500  O     s     6.642305    2.216245   -6.645131    0.000000   -1.829000
   501  O     s     6.642305    6.645131   -2.216245    0.000000   -1.829000
   502  O     s     6.642305    6.645131    2.216245    0.000000   -1.829000
   503  O     s     6.642305   -6.645131   -2.216245    0.000000   -1.829000
   504  O     s     6.642305   -6.645131    2.216245    0.000000   -1.829000
   505  O     s    -2.211775    6.646491   -2.213836    0.000000   -1.829000
   506  O     s    -2.211775    6.646491    2.213836    0.000000   -1.829000
   507  O     s    -2.211775   -6.646491   -2.213836    0.000000   -1.829000
   508  O     s    -2.211775   -6.646491    2.213836    0.000000   -1.829000
   509  O     s    -2.211775   -2.213836    6.646491    0.000000   -1.829000
   510  O     s    -2.211775   -2.213836   -6.646491    0.000000   -1.829000
   511  O     s    -2.211775    2.213836    6.646491    0.000000   -1.829000
   512  O     s    -2.211775    2.213836   -6.646491    0.000000   -1.829000
   513  Cl    s     8.827832    4.397785    4.397785    0.000000   -1.285000
   514  Cl    s     8.827832    4.397785   -4.397785    0.000000   -1.285000
[...]
     40 y         -2.214230     -2.213868     0.000363    Cartesian   -0.02
     40 z          0.000000      0.000000     0.000000    Cartesian    0.00
     41 x         11.071152     11.063378    -0.007774    Cartesian   -0.07
     41 y         -2.214230     -2.213119     0.001111    Cartesian   -0.05
     41 z         -2.214230     -2.213119     0.001111    Cartesian   -0.05
     42 x          2.214230      2.213488    -0.000743    Cartesian   -0.03
     42 y          6.642691      6.654686     0.011995    Cartesian    0.18
     42 z          6.642691      6.654686     0.011995    Cartesian    0.18
     43 x         -6.642691     -6.630928     0.011763    Cartesian   -0.18
     43 y         -2.214230     -2.214742    -0.000511    Cartesian    0.02
     43 z         -2.214230     -2.214742    -0.000511    Cartesian    0.02
     44 x          8.856922      8.857257     0.000335    Cartesian    0.00
     44 y          6.642691      6.663256     0.020565    Cartesian    0.31
     44 z         -2.214230     -2.213377     0.000854    Cartesian   -0.04
     45 x          4.428461      4.431068     0.002607    Cartesian    0.06
     45 y          6.642691      6.639742    -0.002949    Cartesian   -0.04
     45 z          6.642691      6.639742    -0.002949    Cartesian   -0.04
     46 x          0.000000     -0.002439    -0.002439    Cartesian    0.00
     46 y          6.642691      6.658641     0.015950    Cartesian    0.24
     46 z          6.642691      6.658641     0.015950    Cartesian    0.24
     47 x         -4.428461     -4.428940    -0.000479    Cartesian    0.01
     47 y         -2.214230     -2.239046    -0.024816    Cartesian    1.12
     47 z          6.642691      6.616106    -0.026586    Cartesian   -0.40
     48 x         11.071152     11.072302     0.001150    Cartesian    0.01
     48 y         -2.214230     -2.218131    -0.003900    Cartesian    0.18
     48 z          4.428461      4.429276     0.000815    Cartesian    0.02
     49 x          6.642691      6.639461    -0.003230    Cartesian   -0.05
     49 y         -2.214230     -2.208834     0.005396    Cartesian   -0.24
     49 z          8.856922      8.861385     0.004463    Cartesian    0.05
     50 x          4.428461      4.425278    -0.003183    Cartesian   -0.07
     50 y          4.428461      4.426468    -0.001993    Cartesian   -0.05
     50 z          8.856922      8.848590    -0.008332    Cartesian   -0.09
     51 x          0.000000      0.001170     0.001170    Cartesian    0.00
     51 y          4.428461      4.427629    -0.000832    Cartesian   -0.02
     51 z          8.856922      8.848864    -0.008057    Cartesian   -0.09
     52 x         -2.214230     -2.257812    -0.043581    Cartesian    1.97
     52 y         -2.214230     -2.204720     0.009510    Cartesian   -0.43
     52 z          8.856922      8.862633     0.005711    Cartesian    0.06
     53 x         -6.642691     -6.686216    -0.043525    Cartesian    0.66
     53 y         -2.214230     -2.208770     0.005461    Cartesian   -0.25
     53 z          4.428461      4.429230     0.000769    Cartesian    0.02
     54 x          6.642691      6.645750     0.003058    Cartesian    0.05
     54 y          6.642691      6.646330     0.003639    Cartesian    0.05
     54 z          6.642691      6.646330     0.003639    Cartesian    0.05
     55 x         -2.214230     -2.215309    -0.001079    Cartesian    0.05
     55 y          6.642691      6.646329     0.003638    Cartesian    0.05
     55 z          6.642691      6.646329     0.003638    Cartesian    0.05
     56 x         13.285383     13.256821    -0.028562    Cartesian   -0.21
     56 y          0.000000      0.000000     0.000000    Cartesian    0.00
     56 z          0.000000      0.000000     0.000000    Cartesian    0.00
     57 x         11.071152     11.082649     0.011497    Cartesian    0.10
     57 y          6.642691      6.648734     0.006043    Cartesian    0.09
     57 z          0.000000      0.000000     0.000000    Cartesian    0.00
     58 x          8.856922      8.850617    -0.006305    Cartesian   -0.07
     58 y          0.000000      0.000000     0.000000    Cartesian    0.00
     58 z          8.856922      8.841290    -0.015631    Cartesian   -0.18
     59 x          2.214230      2.219871     0.005640    Cartesian    0.25
     59 y          6.642691      6.671522     0.028831    Cartesian    0.43
     59 z          8.856922      8.867282     0.010361    Cartesian    0.12
     60 x          2.214230      2.201404    -0.012827    Cartesian   -0.58
     60 y         11.071152     11.113188     0.042035    Cartesian    0.38
     60 z          0.000000      0.000000     0.000000    Cartesian    0.00
     61 x         -4.428461     -4.421803     0.006658    Cartesian   -0.15
     61 y          0.000000      0.000000     0.000000    Cartesian    0.00
     61 z          8.856922      8.840816    -0.016106    Cartesian   -0.18
     62 x         -6.642691     -6.632283     0.010408    Cartesian   -0.16
     62 y          6.642691      6.660015     0.017323    Cartesian    0.26
     62 z          0.000000      0.000000     0.000000    Cartesian    0.00
     63 x         -8.856922     -8.836044     0.020878    Cartesian   -0.24
     63 y          0.000000      0.000000     0.000000    Cartesian    0.00
     63 z          0.000000      0.000000     0.000000    Cartesian    0.00
     64 x         11.071152     11.068638    -0.002514    Cartesian   -0.02
     64 y         -2.214230     -2.213284     0.000947    Cartesian   -0.04
     64 z          6.642691      6.640395    -0.002296    Cartesian   -0.03
     65 x          2.214230      2.216357     0.002127    Cartesian    0.10
     65 y         -2.214230     -2.212751     0.001479    Cartesian   -0.07
     65 z         11.071152     11.081737     0.010585    Cartesian    0.10
     66 x         -6.642691     -6.641461     0.001231    Cartesian   -0.02
     66 y         -2.214230     -2.214730    -0.000500    Cartesian    0.02
     66 z          6.642691      6.638696    -0.003995    Cartesian   -0.06
     67 x         13.285383     13.284921    -0.000462    Cartesian   -0.00
     67 y         -2.214230     -2.219153    -0.004923    Cartesian    0.22
     67 z         -2.214230     -2.219153    -0.004923    Cartesian    0.22
     68 x          8.856922      8.859833     0.002912    Cartesian    0.03
     68 y          6.642691      6.653095     0.010404    Cartesian    0.16
     68 z          6.642691      6.653095     0.010404    Cartesian    0.16
     69 x          4.428461      4.431542     0.003081    Cartesian    0.07
     69 y         -2.214230     -2.215825    -0.001595    Cartesian    0.07
     69 z         11.071152     11.099417     0.028265    Cartesian    0.26
     70 x          0.000000     -0.000768    -0.000768    Cartesian    0.00
     70 y         -2.214230     -2.227329    -0.013099    Cartesian    0.59
     70 z         11.071152     11.068965    -0.002187    Cartesian   -0.02
     71 x         -4.428461     -4.429599    -0.001138    Cartesian    0.03
     71 y          6.642691      6.643566     0.000875    Cartesian    0.01
     71 z          6.642691      6.643566     0.000875    Cartesian    0.01
     72 x         -8.856922     -8.853984     0.002938    Cartesian   -0.03
     72 y         -2.214230     -2.192372     0.021858    Cartesian   -0.99
     72 z         -2.214230     -2.192372     0.021858    Cartesian   -0.99
     73 x         13.285383     13.260378    -0.025004    Cartesian   -0.19
     73 y          0.000000      0.000000     0.000000    Cartesian    0.00
     73 z          4.428461      4.417933    -0.010528    Cartesian   -0.24
     74 x         11.071152     11.080185     0.009033    Cartesian    0.08
     74 y          6.642691      6.651581     0.008889    Cartesian    0.13
     74 z          4.428461      4.429241     0.000780    Cartesian    0.02
     75 x          8.856922      8.850502    -0.006419    Cartesian   -0.07
     75 y          4.428461      4.420258    -0.008203    Cartesian   -0.19
     75 z          8.856922      8.838796    -0.018126    Cartesian   -0.20
     76 x          6.642691      6.643990     0.001299    Cartesian    0.02
     76 y          6.642691      6.654032     0.011341    Cartesian    0.17
     76 z          8.856922      8.860762     0.003841    Cartesian    0.04
     77 x          6.642691      6.648962     0.006270    Cartesian    0.09
     77 y         11.071152     11.083172     0.012020    Cartesian    0.11
     77 z          0.000000      0.000000     0.000000    Cartesian    0.00
     78 x          2.214230      2.214488     0.000257    Cartesian    0.01
     78 y         11.071152     11.079845     0.008693    Cartesian    0.08
     78 z          4.428461      4.429640     0.001179    Cartesian    0.03
     79 x         -2.214230     -2.222995    -0.008764    Cartesian    0.40
     79 y          6.642691      6.653056     0.010365    Cartesian    0.16
     79 z          8.856922      8.861050     0.004128    Cartesian    0.05
     80 x         -2.214230     -2.203608     0.010622    Cartesian   -0.48
     80 y         11.071152     11.093791     0.022639    Cartesian    0.20
     80 z          0.000000      0.000000     0.000000    Cartesian    0.00
     81 x         -4.428461     -4.421079     0.007382    Cartesian   -0.17
     81 y          4.428461      4.418032    -0.010428    Cartesian   -0.24
     81 z          8.856922      8.839667    -0.017255    Cartesian   -0.19
     82 x         -6.642691     -6.656032    -0.013341    Cartesian    0.20
     82 y          6.642691      6.653683     0.010991    Cartesian    0.17
     82 z          4.428461      4.430162     0.001702    Cartesian    0.04
     83 x         -8.856922     -8.831873     0.025049    Cartesian   -0.28
     83 y          0.000000      0.000000     0.000000    Cartesian    0.00
     83 z          4.428461      4.414021    -0.014440    Cartesian   -0.33
     84 x          2.252000      2.252000     0.000000    Cartesian    0.00
     84 y          0.000000      0.000000     0.000000    Cartesian    0.00
     84 z          0.000000      0.000000     0.000000    Cartesian    0.00
     85 x          2.214230      2.210975    -0.003256    Cartesian   -0.15
     85 y         -2.214230     -2.325755    -0.111525    Cartesian    5.04
     85 z         -2.214230     -2.325755    -0.111525    Cartesian    5.04
     86 x          4.428461      4.447775     0.019314    Cartesian    0.44
     86 y          0.000000      0.000000     0.000000    Cartesian    0.00
     86 z          4.428461      4.425259    -0.003202    Cartesian   -0.07
     87 x          0.000000     -0.005263    -0.005263    Cartesian    0.00
     87 y          0.000000      0.000000     0.000000    Cartesian    0.00
     87 z          4.428461      4.399294    -0.029167    Cartesian   -0.66
     88 x          6.642691      6.612446    -0.030246    Cartesian   -0.46
     88 y         -2.214230     -2.205373     0.008857    Cartesian   -0.40
     88 z         -2.214230     -2.205373     0.008857    Cartesian   -0.40
     89 x         -2.214230     -2.187829     0.026401    Cartesian   -1.19
     89 y         -2.214230     -2.202120     0.012110    Cartesian   -0.55
     89 z         -2.214230     -2.202120     0.012110    Cartesian   -0.55
     90 x          8.856922      8.756943    -0.099979    Cartesian   -1.13
     90 y          0.000000      0.000000     0.000000    Cartesian    0.00
     90 z          0.000000      0.000000     0.000000    Cartesian    0.00
     91 x          4.428461      4.443932     0.015471    Cartesian    0.35
     91 y          4.428461      4.442776     0.014316    Cartesian    0.32
     91 z          4.428461      4.442776     0.014316    Cartesian    0.32
     92 x          0.000000     -0.023457    -0.023457    Cartesian    0.00
     92 y          4.428461      4.436207     0.007746    Cartesian    0.17
     92 z          4.428461      4.436207     0.007746    Cartesian    0.17
     93 x         -4.428461     -4.345010     0.083451    Cartesian   -1.88
     93 y          0.000000      0.000000     0.000000    Cartesian    0.00
     93 z          0.000000      0.000000     0.000000    Cartesian    0.00
     94 x          2.214230      2.212941    -0.001289    Cartesian   -0.06
     94 y         -2.214230     -2.221605    -0.007374    Cartesian    0.33
     94 z          6.642691      6.684190     0.041498    Cartesian    0.62
     95 x          8.856922      8.817275    -0.039646    Cartesian   -0.45
     95 y          0.000000      0.000000     0.000000    Cartesian    0.00
     95 z          4.428461      4.390509    -0.037952    Cartesian   -0.86
     96 x         -4.428461     -4.398372     0.030088    Cartesian   -0.68
     96 y          0.000000      0.000000     0.000000    Cartesian    0.00
     96 z          4.428461      4.401654    -0.026806    Cartesian   -0.61
     97 x          6.642691      6.642305    -0.000386    Cartesian   -0.01
     97 y         -2.214230     -2.216245    -0.002014    Cartesian    0.09
     97 z          6.642691      6.645131     0.002440    Cartesian    0.04
     98 x         -2.214230     -2.211775     0.002455    Cartesian   -0.11
     98 y          6.642691      6.646491     0.003800    Cartesian    0.06
     98 z         -2.214230     -2.213836     0.000394    Cartesian   -0.02
     99 x          8.856922      8.827832    -0.029090    Cartesian   -0.33
     99 y          4.428461      4.397785    -0.030676    Cartesian   -0.69
     99 z          4.428461      4.397785    -0.030676    Cartesian   -0.69
    100 x          4.428461      4.427866    -0.000595    Cartesian   -0.01
    100 y          0.000000      0.000000     0.000000    Cartesian    0.00
    100 z          8.856922      8.846624    -0.010298    Cartesian   -0.12
    101 x          0.000000      0.001660     0.001660    Cartesian    0.00
    101 y          0.000000      0.000000     0.000000    Cartesian    0.00
    101 z          8.856922      8.849125    -0.007797    Cartesian   -0.09
    102 x         -4.428461     -4.396059     0.032402    Cartesian   -0.73
    102 y          4.428461      4.403723    -0.024738    Cartesian   -0.56
    102 z          4.428461      4.403723    -0.024738    Cartesian   -0.56
    103 x         11.071152     11.063165    -0.007987    Cartesian   -0.07
    103 y         -2.214230     -2.213102     0.001129    Cartesian   -0.05
    103 z         -2.214230     -2.213102     0.001129    Cartesian   -0.05
    104 x          2.214230      2.213347    -0.000883    Cartesian   -0.04
    104 y          6.642691      6.655046     0.012355    Cartesian    0.19
    104 z          6.642691      6.655046     0.012355    Cartesian    0.19
    105 x         -6.642691     -6.630560     0.012132    Cartesian   -0.18
    105 y         -2.214230     -2.215042    -0.000811    Cartesian    0.04
    105 z         -2.214230     -2.215042    -0.000811    Cartesian    0.04
    106 x          4.428461      4.424854    -0.003607    Cartesian   -0.08
    106 y          4.428461      4.426183    -0.002278    Cartesian   -0.05
    106 z          8.856922      8.847674    -0.009248    Cartesian   -0.10
    107 x          0.000000      0.001469     0.001469    Cartesian    0.00
    107 y          4.428461      4.427330    -0.001130    Cartesian   -0.03
    107 z          8.856922      8.847679    -0.009243    Cartesian   -0.10
    108 x          6.642691      6.645853     0.003161    Cartesian    0.05
    108 y          6.642691      6.646343     0.003651    Cartesian    0.05
    108 z          6.642691      6.646343     0.003651    Cartesian    0.05
    109 x         -2.214230     -2.215177    -0.000946    Cartesian    0.04
    109 y          6.642691      6.646417     0.003725    Cartesian    0.06
    109 z          6.642691      6.646417     0.003725    Cartesian    0.06
    110 x         13.285383     13.255793    -0.029590    Cartesian   -0.22
    110 y          0.000000      0.000000     0.000000    Cartesian    0.00
    110 z          0.000000      0.000000     0.000000    Cartesian    0.00
    111 x          8.856922      8.850428    -0.006494    Cartesian   -0.07
    111 y          0.000000      0.000000     0.000000    Cartesian    0.00
    111 z          8.856922      8.840653    -0.016268    Cartesian   -0.18
    112 x         -4.428461     -4.421261     0.007200    Cartesian   -0.16
    112 y          0.000000      0.000000     0.000000    Cartesian    0.00
    112 z          8.856922      8.840318    -0.016604    Cartesian   -0.19
    113 x         -8.856922     -8.836034     0.020887    Cartesian   -0.24
    113 y          0.000000      0.000000     0.000000    Cartesian    0.00
    113 z          0.000000      0.000000     0.000000    Cartesian    0.00
    114 x         11.071152     11.068510    -0.002642    Cartesian   -0.02
    114 y         -2.214230     -2.213168     0.001063    Cartesian   -0.05
    114 z          6.642691      6.640338    -0.002353    Cartesian   -0.04
    115 x          2.214230      2.216585     0.002355    Cartesian    0.11
    115 y         -2.214230     -2.212437     0.001793    Cartesian   -0.08
    115 z         11.071152     11.081532     0.010380    Cartesian    0.09
    116 x         -6.642691     -6.641599     0.001093    Cartesian   -0.02
    116 y         -2.214230     -2.214791    -0.000560    Cartesian    0.03
    116 z          6.642691      6.638309    -0.004383    Cartesian   -0.07
    117 x         13.285383     13.259489    -0.025893    Cartesian   -0.19
    117 y          0.000000      0.000000     0.000000    Cartesian    0.00
    117 z          4.428461      4.417541    -0.010920    Cartesian   -0.25
    118 x          8.856922      8.850230    -0.006692    Cartesian   -0.08
    118 y          4.428461      4.419906    -0.008555    Cartesian   -0.19
    118 z          8.856922      8.838000    -0.018922    Cartesian   -0.21
    119 x         -4.428461     -4.420674     0.007787    Cartesian   -0.18
    119 y          4.428461      4.417556    -0.010905    Cartesian   -0.25
    119 z          8.856922      8.839099    -0.017823    Cartesian   -0.20
    120 x         -8.856922     -8.830927     0.025995    Cartesian   -0.29
    120 y          0.000000      0.000000     0.000000    Cartesian    0.00
    120 z          4.428461      4.413643    -0.014818    Cartesian   -0.33
--------------------------------------------------------------------------------


  Time to end of optimisation  =        9.7852 seconds


  Peak dynamic memory used =      76.05 MB 


  Timing analysis for GULP :

--------------------------------------------------------------------------------
  Task / Subroutine                                          Time (Seconds)
--------------------------------------------------------------------------------
  Calculation of reciprocal space energy and derivatives          0.0004
  Calculation of reciprocal space energy using symmetry           0.0007
  Calculation of real space energy and derivatives                0.0023
  Calculation of real space energy using symmetry                 0.0069
  Calculation for region 1 energy and derivatives (2-b)           6.2518
  Calculation for region 2a energy                                2.9193
  Calculation for region 2b energy                                0.0042
  Calculation and manipulation of Hessian matrix                  0.4802
  Calculation of matrix inversion                                 0.0364
  Symmetry generation of equivalent positions                     0.0027
--------------------------------------------------------------------------------
  Total CPU time                                                  9.7853
--------------------------------------------------------------------------------


  Dump file written as Na3OCl.grs


  Job Finished at 16:43.21  5th July       2021                               

