********************************************************************************
*                       GENERAL UTILITY LATTICE PROGRAM                        *
*                                 Julian Gale                                  *
*                       Curtin Institute for Computation                       *
*                    School of Molecular and Life Sciences                     *
*                    Curtin University, Western Australia                      *
********************************************************************************
* Version = 5.2.0 * Last modified =  10th September 2020                       *
********************************************************************************
*  optimise     - perform optimisation run                                     *
*  conp         - constant pressure calculation                                *
*  property     - calculate properties for final geometry                      *
*  defect       - perform defect calculation after bulk run                    *
*  compare      - compare initial and final structures                         *
********************************************************************************

  Job Started  at 13:19.39  2nd February   2021                               

  Number of CPUs =     1


  Total number of configurations input =      1

********************************************************************************
*  Input for Configuration =   1                                               *
********************************************************************************

  Formula = ClONa3                                                      

  Number of irreducible atoms/shells =       5


  Total number atoms/shells =       7

  Dimensionality = 3               :  Bulk   


  Symmetry :

  Crystal family                   :  Cubic       
  Crystal class  (Groth - 1921)    :  Cubic Hexakisoctahedral              

  Space group (centrosymmetric)    :  P M 3 M         

  Patterson group                  :  P m -3 m 

  Cartesian lattice vectors (Angstroms) :

        4.504000    0.000000    0.000000
        0.000000    4.504000    0.000000
        0.000000    0.000000    4.504000

  Cell parameters (Angstroms/Degrees):

  a =       4.5040    alpha =  90.0000
  b =       4.5040    beta  =  90.0000
  c =       4.5040    gamma =  90.0000

  Initial cell volume =          91.368216 Angs**3

  Temperature of configuration =   0.00     K 

  Pressure of configuration =         0.000 GPa 

  Fractional coordinates of asymmetric unit :

--------------------------------------------------------------------------------
   No.  Atomic       x           y          z         Charge      Occupancy
        Label      (Frac)      (Frac)     (Frac)        (e)         (Frac)  
--------------------------------------------------------------------------------
      1 Cl    c    0.000000    0.000000    0.000000     1.48500    1.000000    
      2 O     c    0.500000    0.500000    0.500000     0.18300    1.000000    
      3 Na    c    0.500000    0.500000    0.000000     1.00000    1.000000    
      4 Cl    s    0.000000    0.000000    0.000000    -2.48500    1.000000    
      5 O     s    0.500000    0.500000    0.500000    -2.18300    1.000000    
--------------------------------------------------------------------------------


  Constraints : 

--------------------------------------------------------------------------------
  Constraint no.      Unconstrained     Constrained    Coefficient    Offset
                         Variable         Variable
--------------------------------------------------------------------------------
           1              Strain 1        Strain 2       1.00000      0.0000
           2              Strain 1        Strain 3       1.00000      0.0000
--------------------------------------------------------------------------------


********************************************************************************
*  General input information                                                   *
********************************************************************************

  Species output for all configurations : 

--------------------------------------------------------------------------------
  Species    Type    Atomic    Atomic    Charge       Radii (Angs)     Library
                     Number     Mass       (e)     Cova   Ionic  VDW   Symbol
--------------------------------------------------------------------------------
    Na       Core       11      22.99   1.000000   0.970  0.000  2.300          
    O        Core        8      16.00   0.183000   0.730  0.000  1.360          
    O        Shell       8       0.00  -2.183000   0.730  0.000  1.360          
    Cl       Core       17      35.45   1.485000   0.990  0.000  1.650          
    Cl       Shell      17       0.00  -2.485000   0.990  0.000  1.650          
    Mg       Core       12      24.31   0.415000   1.100  0.000  0.000          
    Mg       Shell      12       0.00   1.585000   1.100  0.000  0.000          
    Ca       Core       20      40.08  -1.135000   0.990  0.000  0.000          
    Ca       Shell      20       0.00   3.135000   0.990  0.000  0.000          
    Sr       Core       38      87.62  -1.251000   1.120  0.000  0.000          
    Sr       Shell      38       0.00   3.251000   1.120  0.000  0.000          
    Ba       Core       56     137.33  -7.203000   1.340  0.000  0.000          
    Ba       Shell      56       0.00   9.203000   1.340  0.000  0.000          
--------------------------------------------------------------------------------


  Lattice summation method               =    Ewald          (3-D)
                                         =    Parry          (2-D)
                                         =    Saunders et al (1-D)
  Accuracy factor for lattice sums       =   12.000


  Analytic derivatives to be used

  Time limit = Infinity

  Maximum range for interatomic potentials =    100000.000000 Angstroms

  General interatomic potentials :

--------------------------------------------------------------------------------
Atom  Types   Potential      Parameter       Value         Units   Cutoffs(Ang)
  1     2                                                            Min /  Max 
--------------------------------------------------------------------------------
O    c O    s Spring (c-s)  Spring k 2       593.71600    eV*Ang^-2 0.000  0.800
                            Spring k 4       0.0000000    eV*Ang^-4 
--------------------------------------------------------------------------------
Cl   c Cl   s Spring (c-s)  Spring k 2       29.380000    eV*Ang^-2 0.000  0.800
                            Spring k 4       0.0000000    eV*Ang^-4 
--------------------------------------------------------------------------------
Mg   c Mg   s Spring (c-s)  Spring k 2       361.60000    eV*Ang^-2 0.000  0.800
                            Spring k 4       0.0000000    eV*Ang^-4 
--------------------------------------------------------------------------------
Ca   c Ca   s Spring (c-s)  Spring k 2       110.20000    eV*Ang^-2 0.000  0.800
                            Spring k 4       0.0000000    eV*Ang^-4 
--------------------------------------------------------------------------------
Sr   c Sr   s Spring (c-s)  Spring k 2       71.700000    eV*Ang^-2 0.000  0.800
                            Spring k 4       0.0000000    eV*Ang^-4 
--------------------------------------------------------------------------------
Ba   c Ba   s Spring (c-s)  Spring k 2       495.20000    eV*Ang^-2 0.000  0.800
                            Spring k 4       0.0000000    eV*Ang^-4 
--------------------------------------------------------------------------------
Na   c Na   c Buckingham    Buckingham A     1788.1900    eV        0.000 12.000
                            Buckingham rho  0.15900000    Ang       
                            Buckingham C     0.0000000    eV*Ang^6  
--------------------------------------------------------------------------------
Na   c O    s Buckingham    Buckingham A     588.38000    eV        0.000 12.000
                            Buckingham rho  0.33800000    Ang       
                            Buckingham C     0.0000000    eV*Ang^6  
--------------------------------------------------------------------------------
Na   c Cl   s Buckingham    Buckingham A     1170.4100    eV        0.000 12.000
                            Buckingham rho  0.31500000    Ang       
                            Buckingham C     0.0000000    eV*Ang^6  
--------------------------------------------------------------------------------
O    s O    s Buckingham    Buckingham A     22764.300    eV        0.000 12.000
                            Buckingham rho  0.14900000    Ang       
                            Buckingham C     13.190000    eV*Ang^6  
--------------------------------------------------------------------------------
O    s Cl   s Buckingham    Buckingham A     8286.9100    eV        0.000 12.000
                            Buckingham rho  0.25900000    Ang       
                            Buckingham C     62.200000    eV*Ang^6  
--------------------------------------------------------------------------------
Cl   s Cl   s Buckingham    Buckingham A     1227.2000    eV        0.000 12.000
                            Buckingham rho  0.32100000    Ang       
                            Buckingham C     14.530000    eV*Ang^6  
--------------------------------------------------------------------------------
O    s Mg   s Buckingham    Buckingham A     1428.5000    eV        0.000 12.000
                            Buckingham rho  0.29450000    Ang       
                            Buckingham C     0.0000000    eV*Ang^6  
--------------------------------------------------------------------------------
Mg   s Cl   s Buckingham    Buckingham A     4914.5400    eV        0.000 12.000
                            Buckingham rho  0.25700000    Ang       
                            Buckingham C     0.0000000    eV*Ang^6  
--------------------------------------------------------------------------------
O    s Ca   s Buckingham    Buckingham A     1090.4000    eV        0.000 12.000
                            Buckingham rho  0.34370000    Ang       
                            Buckingham C     0.0000000    eV*Ang^6  
--------------------------------------------------------------------------------
Cl   s Ca   s Buckingham    Buckingham A     2302.0000    eV        0.000 12.000
                            Buckingham rho  0.34020000    Ang       
                            Buckingham C     0.0000000    eV*Ang^6  
--------------------------------------------------------------------------------
O    s Sr   s Buckingham    Buckingham A     959.10000    eV        0.000 12.000
                            Buckingham rho  0.37210000    Ang       
                            Buckingham C     0.0000000    eV*Ang^6  
--------------------------------------------------------------------------------
Cl   s Sr   s Buckingham    Buckingham A     2191.0900    eV        0.000 12.000
                            Buckingham rho  0.34570000    Ang       
                            Buckingham C     0.0000000    eV*Ang^6  
--------------------------------------------------------------------------------
O    s Ba   s Buckingham    Buckingham A     905.70000    eV        0.000 12.000
                            Buckingham rho  0.39760000    Ang       
                            Buckingham C     0.0000000    eV*Ang^6  
--------------------------------------------------------------------------------
Cl   s Ba   s Buckingham    Buckingham A     2704.5500    eV        0.000 12.000
                            Buckingham rho  0.35280000    Ang       
                            Buckingham C     0.0000000    eV*Ang^6  
--------------------------------------------------------------------------------

********************************************************************************
*  Output for configuration   1                                                *
********************************************************************************


  Components of energy : 

--------------------------------------------------------------------------------
  Interatomic potentials     =           4.94315381 eV    
  Monopole - monopole (real) =         -10.03624526 eV    
  Monopole - monopole (recip)=         -29.53581274 eV    
  Monopole - monopole (total)=         -39.57205800 eV    
--------------------------------------------------------------------------------
  Total lattice energy       =         -34.62890419 eV    
--------------------------------------------------------------------------------
  Total lattice energy       =           -3341.1599 kJ/(mole unit cells)
--------------------------------------------------------------------------------


  Number of variables =        1

  Maximum number of calculations  =          1000
  Maximum Hessian update interval =            10
  Maximum step size               =   1.000000000
  Maximum parameter tolerance     =   0.000010000
  Maximum function  tolerance     =   0.000010000
  Maximum gradient  tolerance     =   0.001000000
  Maximum gradient  component     =   0.010000000

  Symmetry constrained optimisation

  Symmetry used for second derivatives

  Cell parameters to be optimised using strains

  Newton-Raphson optimiser to be used

  BFGS hessian update to be used

  Lower half triangular hessian to be used

  Start of bulk optimisation :

  Cycle:      0 Energy:       -34.628904  Gnorm:      4.328237  CPU:    0.008
  ** Hessian calculated **
  Cycle:      1 Energy:       -34.677667  Gnorm:      0.044008  CPU:    0.010
  Cycle:      2 Energy:       -34.677671  Gnorm:      0.003653  CPU:    0.012


  **** Optimisation achieved ****


  Final energy =     -34.67767136 eV
  Final Gnorm  =       0.00000010

  Components of energy : 

--------------------------------------------------------------------------------
  Interatomic potentials     =           5.77546103 eV    
  Monopole - monopole (real) =         -10.25970290 eV    
  Monopole - monopole (recip)=         -30.19342950 eV    
  Monopole - monopole (total)=         -40.45313239 eV    
--------------------------------------------------------------------------------
  Total lattice energy       =         -34.67767136 eV    
--------------------------------------------------------------------------------
  Total lattice energy       =           -3345.8652 kJ/(mole unit cells)
--------------------------------------------------------------------------------

  Final asymmetric unit coordinates :

--------------------------------------------------------------------------------
   No.  Atomic        x           y           z         Radius
        Label       (Frac)      (Frac)      (Frac)       (Angs) 
--------------------------------------------------------------------------------
     1  Cl    c     0.000000    0.000000    0.000000    0.000000
     2  O     c     0.500000    0.500000    0.500000    0.000000
     3  Na    c     0.500000    0.500000    0.000000    0.000000
     4  Cl    s     0.000000    0.000000    0.000000    0.000000
     5  O     s     0.500000    0.500000    0.500000    0.000000
--------------------------------------------------------------------------------

  Final Cartesian lattice vectors (Angstroms) :

        4.405902    0.000000    0.000000
        0.000000    4.405902    0.000000
        0.000000    0.000000    4.405902


  Final cell parameters and derivatives :

--------------------------------------------------------------------------------
       a            4.405902 Angstrom     dE/de1(xx)     0.000000 eV/strain
       b            4.405902 Angstrom     dE/de2(yy)     0.000000 eV/strain
       c            4.405902 Angstrom     dE/de3(zz)     0.000000 eV/strain
       alpha       90.000000 Degrees      dE/de4(yz)     0.000000 eV/strain
       beta        90.000000 Degrees      dE/de5(xz)     0.000000 eV/strain
       gamma       90.000000 Degrees      dE/de6(xy)     0.000000 eV/strain
--------------------------------------------------------------------------------

  Primitive cell volume =            85.527266 Angs**3

  Density of cell =      2.338030 g/cm**3

  Non-primitive cell volume =            85.527266 Angs**3


  Final internal derivatives :

--------------------------------------------------------------------------------
   No.  Atomic          a             b             c           Radius
        Label          (eV)          (eV)          (eV)        (eV/Angs)
--------------------------------------------------------------------------------
      1 Cl    c       0.000000      0.000000      0.000000      0.000000
      2 O     c       0.000000      0.000000      0.000000      0.000000
      3 Na    c       0.000000      0.000000      0.000000      0.000000
      4 Cl    s       0.000000      0.000000      0.000000      0.000000
      5 O     s       0.000000      0.000000      0.000000      0.000000
--------------------------------------------------------------------------------
  Maximum abs         0.000000      0.000000      0.000000      0.000000
--------------------------------------------------------------------------------

  Comparison of initial and final structures : 

--------------------------------------------------------------------------------
  Parameter   Initial value   Final value   Difference    Units      Percent
--------------------------------------------------------------------------------
    Volume        91.368216     85.527266    -5.840950    Angs**3     -6.39
    a              4.504000      4.405902    -0.098098    Angstroms   -2.18
    b              4.504000      4.405902    -0.098098    Angstroms   -2.18
    c              4.504000      4.405902    -0.098098    Angstroms   -2.18
    alpha         90.000000     90.000000     0.000000    Degrees      0.00
    beta          90.000000     90.000000     0.000000    Degrees      0.00
    gamma         90.000000     90.000000     0.000000    Degrees      0.00
      1 x          0.000000      0.000000     0.000000    Fractional   0.00
      1 y          0.000000      0.000000     0.000000    Fractional   0.00
      1 z          0.000000      0.000000     0.000000    Fractional   0.00
      2 x          0.500000      0.500000     0.000000    Fractional   0.00
      2 y          0.500000      0.500000     0.000000    Fractional   0.00
      2 z          0.500000      0.500000     0.000000    Fractional   0.00
      3 x          0.500000      0.500000     0.000000    Fractional   0.00
      3 y          0.500000      0.500000     0.000000    Fractional   0.00
      3 z          0.000000      0.000000     0.000000    Fractional   0.00
      4 x          0.000000      0.000000     0.000000    Fractional   0.00
      4 y          0.000000      0.000000     0.000000    Fractional   0.00
      4 z          0.000000      0.000000     0.000000    Fractional   0.00
      5 x          0.500000      0.500000     0.000000    Fractional   0.00
      5 y          0.500000      0.500000     0.000000    Fractional   0.00
      5 z          0.500000      0.500000     0.000000    Fractional   0.00
--------------------------------------------------------------------------------


  Born effective charge tensors : 

-------------------------------------------------------------------------------
  Atom             x           y             z
-------------------------------------------------------------------------------
    1 Cl    x      -0.9918     -0.0000     -0.0000
            y      -0.0000     -0.9918     -0.0000
            z      -0.0000     -0.0000     -0.9918
-------------------------------------------------------------------------------
    2 O     x      -2.2939      0.0000      0.0000
            y       0.0000     -2.2939      0.0000
            z       0.0000      0.0000     -2.2939
-------------------------------------------------------------------------------
    3 Na    x       1.2243      0.0000      0.0000
            y       0.0000      1.2243     -0.0000
            z       0.0000      0.0000      0.8372
-------------------------------------------------------------------------------




  Elastic Constant Matrix: (Units=GPa)

-------------------------------------------------------------------------------
  Indices      1         2         3         4         5         6    
-------------------------------------------------------------------------------
       1     82.7680   24.3534   24.3534   -0.0000    0.0000   -0.0000
       2     24.3534   82.7680   24.3534    0.0000   -0.0000   -0.0000
       3     24.3534   24.3534   82.7680    0.0000   -0.0000    0.0000
       4     -0.0000    0.0000    0.0000   24.3534   -0.0000    0.0000
       5      0.0000   -0.0000   -0.0000   -0.0000   24.3534    0.0000
       6     -0.0000   -0.0000    0.0000    0.0000    0.0000   24.3534
-------------------------------------------------------------------------------


  Elastic Compliance Matrix: (Units=1/GPa)

-------------------------------------------------------------------------------
  Indices      1         2         3         4         5         6    
-------------------------------------------------------------------------------
       1    0.013948 -0.003171 -0.003171  0.000000 -0.000000  0.000000
       2   -0.003171  0.013948 -0.003171 -0.000000  0.000000 -0.000000
       3   -0.003171 -0.003171  0.013948 -0.000000  0.000000 -0.000000
       4    0.000000 -0.000000 -0.000000  0.041062  0.000000 -0.000000
       5   -0.000000  0.000000  0.000000  0.000000  0.041062 -0.000000
       6    0.000000 -0.000000 -0.000000 -0.000000 -0.000000  0.041062
-------------------------------------------------------------------------------

  Mechanical properties :

-------------------------------------------------------------------------------
  Convention :                    Reuss         Voigt         Hill
-------------------------------------------------------------------------------
  Bulk  Modulus (GPa)     =      43.82493      43.82493      43.82493
  Shear Modulus (GPa)     =      26.08758      26.29496      26.19127
-------------------------------------------------------------------------------
  Velocity S-wave (km/s)  =       3.34035       3.35360       3.34698
  Velocity P-wave (km/s)  =       5.79842       5.80861       5.80351
-------------------------------------------------------------------------------
  Compressibility (1/GPa) =    0.02281806
-------------------------------------------------------------------------------
  Stress axis :                     x             y             z
-------------------------------------------------------------------------------
  Youngs Moduli (GPa)     =      71.69479      71.69479      71.69479
-------------------------------------------------------------------------------
  Poissons Ratio (x)      =                     0.22734       0.22734
  Poissons Ratio (y)      =       0.22734                     0.22734
  Poissons Ratio (z)      =       0.22734       0.22734
-------------------------------------------------------------------------------


  Piezoelectric Strain Matrix: (Units=C/m**2)

-------------------------------------------------------------------------------
  Indices      1         2         3         4         5         6    
-------------------------------------------------------------------------------
       x    -0.00000  -0.00000  -0.00000  -0.00000   0.00000  -0.00000
       y     0.00000  -0.00000   0.00000   0.00000  -0.00000   0.00000
       z    -0.00000  -0.00000   0.00000  -0.00000   0.00000  -0.00000
-------------------------------------------------------------------------------


  Piezoelectric Stress Matrix: (Units=10**-11 C/N)

-------------------------------------------------------------------------------
  Indices      1         2         3         4         5         6    
-------------------------------------------------------------------------------
       x     0.00000  -0.00000  -0.00000  -0.00000   0.00000  -0.00000
       y     0.00000  -0.00000   0.00000   0.00000  -0.00000   0.00000
       z    -0.00000  -0.00000   0.00000  -0.00000   0.00000  -0.00000
-------------------------------------------------------------------------------


  Static dielectric constant tensor : 

-------------------------------------------------------------------------------
              x         y         z
-------------------------------------------------------------------------------
       x    11.08357   0.00000   0.00000
       y     0.00000  11.08357   0.00000
       z     0.00000   0.00000  11.08357
--------------------------------------------------------------------------------

  High frequency dielectric constant tensor : 

-------------------------------------------------------------------------------
              x         y         z
-------------------------------------------------------------------------------
       x     1.50771   0.00000   0.00000
       y     0.00000   1.50771   0.00000
       z     0.00000   0.00000   1.50771
-------------------------------------------------------------------------------

  Static refractive indices : 

-------------------------------------------------------------------------------
    1 =    3.32920      2 =    3.32920      3 =    3.32920
-------------------------------------------------------------------------------

  High frequency refractive indices : 

-------------------------------------------------------------------------------
    1 =    1.22789      2 =    1.22789      3 =    1.22789
-------------------------------------------------------------------------------


  Time to end of optimisation =       0.0172 seconds

********************************************************************************
*  Defect calculation for configuration   1 :                                  *
********************************************************************************

  Total number of defects =      1

  Total charge on defect  =   1.00

  Defect centre is at   0.5000   0.5000   0.0000  Frac

  Region 1 radius =  16.0000      Number of ions =   1372

  Number of symmetry inequivalent region 1 ions  =    141

  Region 2 radius =  24.0000      Number of ions =   3404

  Number of symmetry inequivalent region 2a ions =    274

  Region 2a mode = 4 : screened electrostatics due to region 1 
                       neglect correction to region 1 forces from 2a
                       region 2a displacements based on defects only

  Region 2a ions will only interact with defects in region 1

  Impurities:

--------------------------------------------------------------------------------
    Specification type     Symbol/Number         x          y          z
--------------------------------------------------------------------------------
    Frac/Symbol             Sr               0.500000   0.500000   0.000000
--------------------------------------------------------------------------------


  Symmetry reduced region 1 (Relative to defect centre) :

--------------------------------------------------------------------------------
   No.   Atomic       x            y             z       Radius  Multiplicity   
         Label      (Angs)       (Angs)        (Angs)    (Angs)     
--------------------------------------------------------------------------------
     1  Sr    c      0.0000       0.0000       0.0000    0.0000     1    Defect
     2  O     c      0.0000       0.0000      -2.2030 *  0.0000     2          
     3  Cl    c      2.2030 *     2.2030       0.0000    0.0000     4          
     4  Na    c      2.2030 *     0.0000      -2.2030 *  0.0000     8          
     5  Na    c      0.0000       0.0000       4.4059 *  0.0000     2          
     6  Na    c      0.0000       4.4059 *     0.0000    0.0000     4          
     7  O     c      0.0000       4.4059 *    -2.2030 *  0.0000     8          
     8  Na    c      2.2030 *     4.4059 *    -2.2030 *  0.0000    16          
     9  Cl    c      2.2030 *     2.2030       4.4059 *  0.0000     8          
    10  Na    c      0.0000       4.4059 *     4.4059 *  0.0000     8          
    11  Na    c      4.4059 *     4.4059       0.0000    0.0000     4          
    12  O     c      0.0000       0.0000       6.6089 *  0.0000     2          
    13  O     c      4.4059 *     4.4059      -2.2030 *  0.0000     8          
    14  Cl    c      2.2030 *     6.6089 *     0.0000    0.0000     8          
    15  Na    c      2.2030 *     0.0000       6.6089 *  0.0000     8          
    16  Na    c      6.6089 *     0.0000      -2.2030 *  0.0000     8          
    17  Na    c      4.4059 *     4.4059       4.4059 *  0.0000     8          
    18  O     c      0.0000       4.4059 *     6.6089 *  0.0000     8          
    19  Cl    c      2.2030 *     6.6089 *     4.4059 *  0.0000    16          
    20  Na    c      2.2030 *     4.4059 *     6.6089 *  0.0000    16          
    21  Na    c      6.6089 *     4.4059 *    -2.2030 *  0.0000    16          
    22  Na    c      0.0000       0.0000       8.8118 *  0.0000     2          
    23  Na    c      0.0000       8.8118 *     0.0000    0.0000     4          
    24  O     c      4.4059 *     4.4059       6.6089 *  0.0000     8          
    25  O     c      0.0000       8.8118 *    -2.2030 *  0.0000     8          
    26  Cl    c      2.2030 *     2.2030       8.8118 *  0.0000     8          
    27  Cl    c      6.6089 *     6.6089       0.0000    0.0000     4          
    28  Na    c      6.6089 *     0.0000       6.6089 *  0.0000     8          
    29  Na    c      2.2030 *     8.8118 *    -2.2030 *  0.0000    16          
    30  Na    c      0.0000       4.4059 *     8.8118 *  0.0000     8          
    31  Na    c      0.0000       8.8118 *     4.4059 *  0.0000     8          
    32  Na    c      4.4059 *     8.8118 *     0.0000    0.0000     8          
    33  O     c      4.4059 *     8.8118 *    -2.2030 *  0.0000    16          
    34  Cl    c      6.6089 *     6.6089       4.4059 *  0.0000     8          
    35  Na    c      6.6089 *     4.4059 *     6.6089 *  0.0000    16          
    36  Na    c      4.4059 *     8.8118 *     4.4059 *  0.0000    16          
    37  Na    c      4.4059 *     4.4059       8.8118 *  0.0000     8          
    38  O     c      0.0000       0.0000      11.0148 *  0.0000     2          
    39  O     c      0.0000       8.8118 *     6.6089 *  0.0000     8          
    40  Cl    c      2.2030 *     6.6089 *     8.8118 *  0.0000    16          
    41  Cl    c      2.2030 *    11.0148 *     0.0000    0.0000     8          
    42  Na    c      2.2030 *     0.0000      11.0148 *  0.0000     8          
    43  Na    c      2.2030 *     8.8118 *     6.6089 *  0.0000    16          
    44  Na    c     11.0148 *     0.0000      -2.2030 *  0.0000     8          
    45  Na    c      6.6089 *     8.8118 *    -2.2030 *  0.0000    16          
    46  O     c      0.0000       4.4059 *    11.0148 *  0.0000     8          
    47  O     c      4.4059 *     8.8118 *     6.6089 *  0.0000    16          
    48  Cl    c      2.2030 *    11.0148 *     4.4059 *  0.0000    16          
    49  Na    c      2.2030 *     4.4059 *    11.0148 *  0.0000    16          
    50  Na    c     11.0148 *     4.4059 *    -2.2030 *  0.0000    16          
    51  Na    c      0.0000       8.8118 *     8.8118 *  0.0000     8          
    52  Na    c      8.8118 *     8.8118       0.0000    0.0000     4          
    53  O     c      4.4059 *     4.4059      11.0148 *  0.0000     8          
    54  O     c      8.8118 *     8.8118      -2.2030 *  0.0000     8          
    55  Cl    c      6.6089 *     6.6089       8.8118 *  0.0000     8          
    56  Cl    c      6.6089 *    11.0148 *     0.0000    0.0000     8          
    57  Na    c      6.6089 *     0.0000      11.0148 *  0.0000     8          
    58  Na    c     11.0148 *     0.0000       6.6089 *  0.0000     8          
    59  Na    c      6.6089 *     8.8118 *     6.6089 *  0.0000    16          
    60  Na    c      0.0000       0.0000      13.2177 *  0.0000     2          
    61  Na    c      0.0000      13.2177 *     0.0000    0.0000     4          
    62  Na    c      4.4059 *     8.8118 *     8.8118 *  0.0000    16          
    63  Na    c      8.8118 *     8.8118       4.4059 *  0.0000     8          
    64  O     c      0.0000      13.2177 *    -2.2030 *  0.0000     8          
    65  Cl    c      6.6089 *    11.0148 *     4.4059 *  0.0000    16          
    66  Na    c      2.2030 *    13.2177 *    -2.2030 *  0.0000    16          
    67  Cl    c      2.2030 *     2.2030      13.2177 *  0.0000     8          
    68  Na    c      6.6089 *     4.4059 *    11.0148 *  0.0000    16          
    69  Na    c     11.0148 *     4.4059 *     6.6089 *  0.0000    16          
    70  Na    c      0.0000       4.4059 *    13.2177 *  0.0000     8          
    71  Na    c      0.0000      13.2177 *     4.4059 *  0.0000     8          
    72  Na    c      4.4059 *    13.2177 *     0.0000    0.0000     8          
    73  O     c      4.4059 *    13.2177 *    -2.2030 *  0.0000    16          
    74  O     c      0.0000       8.8118 *    11.0148 *  0.0000     8          
    75  O     c      8.8118 *     8.8118       6.6089 *  0.0000     8          
    76  Cl    c      2.2030 *    11.0148 *     8.8118 *  0.0000    16          
    77  Na    c      2.2030 *     8.8118 *    11.0148 *  0.0000    16          
    78  Na    c     11.0148 *     8.8118 *    -2.2030 *  0.0000    16          
    79  Na    c      4.4059 *    13.2177 *     4.4059 *  0.0000    16          
    80  Na    c      4.4059 *     4.4059      13.2177 *  0.0000     8          
    81  O     c      4.4059 *     8.8118 *    11.0148 *  0.0000    16          
    82  O     c      0.0000      13.2177 *     6.6089 *  0.0000     8          
    83  Cl    c      2.2030 *     6.6089 *    13.2177 *  0.0000    16          
    84  Na    c      2.2030 *    13.2177 *     6.6089 *  0.0000    16          
    85  Na    c      6.6089 *    13.2177 *    -2.2030 *  0.0000    16          
    86  Na    c      8.8118 *     8.8118       8.8118 *  0.0000     8          
    87  O     c      0.0000       0.0000      15.4207 *  0.0000     2          
    88  O     c      4.4059 *    13.2177 *     6.6089 *  0.0000    16          
    89  Cl    c      2.2030 *    15.4207 *     0.0000    0.0000     8          
    90  Cl    c      6.6089 *    11.0148 *     8.8118 *  0.0000    16          
    91  Cl    c     11.0148 *    11.0148       0.0000    0.0000     4          
    92  Na    c      2.2030 *     0.0000      15.4207 *  0.0000     8          
    93  Na    c     11.0148 *     0.0000      11.0148 *  0.0000     8          
    94  Na    c     15.4207 *     0.0000      -2.2030 *  0.0000     8          
    95  Na    c      6.6089 *     8.8118 *    11.0148 *  0.0000    16          
    96  Na    c     11.0148 *     8.8118 *     6.6089 *  0.0000    16          
    97  Na    c      0.0000       8.8118 *    13.2177 *  0.0000     8          
    98  Na    c      0.0000      13.2177 *     8.8118 *  0.0000     8          
    99  Na    c      8.8118 *    13.2177 *     0.0000    0.0000     8          
   100  Sr    s      0.0000       0.0000       0.0000    0.0000     1    Defect
   101  O     s      0.0000       0.0000      -2.2030 *  0.0000     2          
   102  Cl    s      2.2030 *     2.2030       0.0000    0.0000     4          
   103  O     s      0.0000       4.4059 *    -2.2030 *  0.0000     8          
   104  Cl    s      2.2030 *     2.2030       4.4059 *  0.0000     8          
   105  O     s      0.0000       0.0000       6.6089 *  0.0000     2          
   106  O     s      4.4059 *     4.4059      -2.2030 *  0.0000     8          
   107  Cl    s      2.2030 *     6.6089 *     0.0000    0.0000     8          
   108  O     s      0.0000       4.4059 *     6.6089 *  0.0000     8          
   109  Cl    s      2.2030 *     6.6089 *     4.4059 *  0.0000    16          
   110  O     s      4.4059 *     4.4059       6.6089 *  0.0000     8          
   111  O     s      0.0000       8.8118 *    -2.2030 *  0.0000     8          
   112  Cl    s      2.2030 *     2.2030       8.8118 *  0.0000     8          
   113  Cl    s      6.6089 *     6.6089       0.0000    0.0000     4          
   114  O     s      4.4059 *     8.8118 *    -2.2030 *  0.0000    16          
   115  Cl    s      6.6089 *     6.6089       4.4059 *  0.0000     8          
   116  O     s      0.0000       0.0000      11.0148 *  0.0000     2          
   117  O     s      0.0000       8.8118 *     6.6089 *  0.0000     8          
   118  Cl    s      2.2030 *     6.6089 *     8.8118 *  0.0000    16          
   119  Cl    s      2.2030 *    11.0148 *     0.0000    0.0000     8          
   120  O     s      0.0000       4.4059 *    11.0148 *  0.0000     8          
   121  O     s      4.4059 *     8.8118 *     6.6089 *  0.0000    16          
   122  Cl    s      2.2030 *    11.0148 *     4.4059 *  0.0000    16          
   123  O     s      4.4059 *     4.4059      11.0148 *  0.0000     8          
   124  O     s      8.8118 *     8.8118      -2.2030 *  0.0000     8          
   125  Cl    s      6.6089 *     6.6089       8.8118 *  0.0000     8          
   126  Cl    s      6.6089 *    11.0148 *     0.0000    0.0000     8          
   127  O     s      0.0000      13.2177 *    -2.2030 *  0.0000     8          
   128  Cl    s      6.6089 *    11.0148 *     4.4059 *  0.0000    16          
   129  Cl    s      2.2030 *     2.2030      13.2177 *  0.0000     8          
   130  O     s      4.4059 *    13.2177 *    -2.2030 *  0.0000    16          
   131  O     s      0.0000       8.8118 *    11.0148 *  0.0000     8          
   132  O     s      8.8118 *     8.8118       6.6089 *  0.0000     8          
   133  Cl    s      2.2030 *    11.0148 *     8.8118 *  0.0000    16          
   134  O     s      4.4059 *     8.8118 *    11.0148 *  0.0000    16          
   135  O     s      0.0000      13.2177 *     6.6089 *  0.0000     8          
   136  Cl    s      2.2030 *     6.6089 *    13.2177 *  0.0000    16          
   137  O     s      0.0000       0.0000      15.4207 *  0.0000     2          
   138  O     s      4.4059 *    13.2177 *     6.6089 *  0.0000    16          
   139  Cl    s      2.2030 *    15.4207 *     0.0000    0.0000     8          
   140  Cl    s      6.6089 *    11.0148 *     8.8118 *  0.0000    16          
   141  Cl    s     11.0148 *    11.0148       0.0000    0.0000     4          
--------------------------------------------------------------------------------


  Constraints on symmetry reduced coordinates :

--------------------------------------------------------------------------------
  Constraint no.      Unconstrained     Constrained    Coefficient    
                         Variable         Variable
--------------------------------------------------------------------------------
           1                 3 x             3 y         1.00000
           2                 9 x             9 y         1.00000
           3                11 x            11 y         1.00000
           4                13 x            13 y         1.00000
           5                17 x            17 y         1.00000
           6                24 x            24 y         1.00000
           7                26 x            26 y         1.00000
           8                27 x            27 y         1.00000
           9                34 x            34 y         1.00000
          10                37 x            37 y         1.00000
          11                52 x            52 y         1.00000
          12                53 x            53 y         1.00000
          13                54 x            54 y         1.00000
          14                55 x            55 y         1.00000
          15                63 x            63 y         1.00000
          16                67 x            67 y         1.00000
          17                75 x            75 y         1.00000
          18                80 x            80 y         1.00000
          19                86 x            86 y         1.00000
          20                91 x            91 y         1.00000
          21               102 x           102 y         1.00000
          22               104 x           104 y         1.00000
          23               106 x           106 y         1.00000
          24               110 x           110 y         1.00000
          25               112 x           112 y         1.00000
          26               113 x           113 y         1.00000
          27               115 x           115 y         1.00000
          28               123 x           123 y         1.00000
          29               124 x           124 y         1.00000
          30               125 x           125 y         1.00000
          31               129 x           129 y         1.00000
          32               132 x           132 y         1.00000
          33               141 x           141 y         1.00000
--------------------------------------------------------------------------------


  Components of defect energy : 

--------------------------------------------------------------------------------
  Region 1 - region 1                   =      6.94091930 eV
  Region 1 - region 2a (unrelaxed)      =    -13.23428675 eV
  Region 1 - 2a (relaxed - correction)  =     -0.27991503 eV
  Region 1 (Total)                      =     -6.57328248 eV
  Region 2a                             =      0.13997706 eV
  Region 2b                             =     -0.27216525 eV
--------------------------------------------------------------------------------
  Total defect energy                   =     -6.70547068 eV
--------------------------------------------------------------------------------

  Largest displacement in region 2 =   0.0090 Angstroms


  Number of variables =      302

  Maximum number of calculations  =        1000
  Maximum Hessian update interval =          10
  Maximum step size               =   1.0000000
  Maximum parameter tolerance     =   0.0000100
  Maximum function  tolerance     =   0.0000100
  Maximum gradient  tolerance     =   0.0010000

  Symmetry adapted optimisation

  Symmetry to be used for second derivatives

  Newton-Raphson optimiser to be used

  BFGS hessian update to be used

  Lower half triangular hessian to be used

  Start of defect optimisation :

  Cycle:      0 Defect Energy:  -6.705471  Gnorm:     0.131252  CPU:   11.758
  ** Hessian calculated **
  Cycle:      1 Defect Energy:  -9.228400  Gnorm:     0.033003  CPU:   18.243
  Cycle:      2 Defect Energy:  -9.404851  Gnorm:     0.002720  CPU:   22.785
  Cycle:      3 Defect Energy:  -9.409594  Gnorm:     0.001794  CPU:   23.771
  Cycle:      4 Defect Energy:  -9.411246  Gnorm:     0.001210  CPU:   24.519
  Cycle:      5 Defect Energy:  -9.412071  Gnorm:     0.000851  CPU:   25.171
  Cycle:      6 Defect Energy:  -9.412477  Gnorm:     0.000594  CPU:   25.830
  Cycle:      7 Defect Energy:  -9.412676  Gnorm:     0.000418  CPU:   26.481
  Cycle:      8 Defect Energy:  -9.412773  Gnorm:     0.000293  CPU:   27.123
  Cycle:      9 Defect Energy:  -9.412821  Gnorm:     0.000206  CPU:   27.754
  Cycle:     10 Defect Energy:  -9.412843  Gnorm:     0.000146  CPU:   28.391
  ** Hessian calculated **
  Cycle:     11 Defect Energy:  -9.412854  Gnorm:     0.000100  CPU:   30.097
  Cycle:     12 Defect Energy:  -9.412860  Gnorm:     0.000076  CPU:   30.743


  **** Optimisation achieved ****


  Final defect energy  =       -9.41286203
  Final defect Gnorm   =        0.00004907

  Components of defect energy : 

--------------------------------------------------------------------------------
  Region 1 - region 1                   =      2.92238420 eV
  Region 1 - region 2a (unrelaxed)      =    -11.94059754 eV
  Region 1 - 2a (relaxed - correction)  =     -0.24493304 eV
  Region 1 (Total)                      =     -9.26314637 eV
  Region 2a                             =      0.12244959 eV
  Region 2b                             =     -0.27216525 eV
--------------------------------------------------------------------------------
  Total defect energy                   =     -9.41286203 eV
--------------------------------------------------------------------------------

  Largest displacement in region 2 =   0.0090 Angstroms

  Final coordinates of region 1 :

--------------------------------------------------------------------------------
   No.  Atomic        x           y           z          Radius      Charge
        Label       (Angs)      (Angs)      (Angs)       (Angs)       (e) 
--------------------------------------------------------------------------------
     1  Sr    c     2.202951    2.202951    0.000000    0.000000   -1.251000
     2  O     c     2.202951    2.202951   -2.263905    0.000000    0.183000
     3  O     c     2.202951    2.202951    2.263905    0.000000    0.183000
     4  Cl    c     4.356986    4.356986    0.000000    0.000000    1.485000
     5  Cl    c     4.356986    0.048916    0.000000    0.000000    1.485000
     6  Cl    c     0.048916    4.356986    0.000000    0.000000    1.485000
     7  Cl    c     0.048916    0.048916    0.000000    0.000000    1.485000
     8  Na    c     4.474035    2.202951   -2.505529    0.000000    1.000000
     9  Na    c     4.474035    2.202951    2.505529    0.000000    1.000000
    10  Na    c    -0.068133    2.202951   -2.505529    0.000000    1.000000
    11  Na    c    -0.068133    2.202951    2.505529    0.000000    1.000000
    12  Na    c     2.202951    4.474035   -2.505529    0.000000    1.000000
    13  Na    c     2.202951    4.474035    2.505529    0.000000    1.000000
    14  Na    c     2.202951   -0.068133   -2.505529    0.000000    1.000000
    15  Na    c     2.202951   -0.068133    2.505529    0.000000    1.000000
    16  Na    c     2.202951    2.202951    4.496218    0.000000    1.000000
    17  Na    c     2.202951    2.202951   -4.496218    0.000000    1.000000
    18  Na    c     2.202951    6.518769    0.000000    0.000000    1.000000
    19  Na    c     2.202951   -2.112866    0.000000    0.000000    1.000000
    20  Na    c     6.518769    2.202951    0.000000    0.000000    1.000000
    21  Na    c    -2.112866    2.202951    0.000000    0.000000    1.000000
    22  O     c     2.202951    6.620460   -2.219970    0.000000    0.183000
    23  O     c     2.202951    6.620460    2.219970    0.000000    0.183000
    24  O     c     2.202951   -2.214558   -2.219970    0.000000    0.183000
    25  O     c     2.202951   -2.214558    2.219970    0.000000    0.183000
    26  O     c     6.620460    2.202951   -2.219970    0.000000    0.183000
    27  O     c     6.620460    2.202951    2.219970    0.000000    0.183000
    28  O     c    -2.214558    2.202951   -2.219970    0.000000    0.183000
    29  O     c    -2.214558    2.202951    2.219970    0.000000    0.183000
    30  Na    c     4.410038    6.651785   -2.207762    0.000000    1.000000
    31  Na    c     4.410038    6.651785    2.207762    0.000000    1.000000
    32  Na    c     4.410038   -2.245883   -2.207762    0.000000    1.000000
    33  Na    c     4.410038   -2.245883    2.207762    0.000000    1.000000
    34  Na    c    -0.004136    6.651785   -2.207762    0.000000    1.000000
    35  Na    c    -0.004136    6.651785    2.207762    0.000000    1.000000
    36  Na    c    -0.004136   -2.245883   -2.207762    0.000000    1.000000
    37  Na    c    -0.004136   -2.245883    2.207762    0.000000    1.000000
    38  Na    c     6.651785    4.410038   -2.207762    0.000000    1.000000
    39  Na    c     6.651785    4.410038    2.207762    0.000000    1.000000
    40  Na    c     6.651785   -0.004136   -2.207762    0.000000    1.000000
    41  Na    c     6.651785   -0.004136    2.207762    0.000000    1.000000
    42  Na    c    -2.245883    4.410038   -2.207762    0.000000    1.000000
    43  Na    c    -2.245883    4.410038    2.207762    0.000000    1.000000
    44  Na    c    -2.245883   -0.004136   -2.207762    0.000000    1.000000
    45  Na    c    -2.245883   -0.004136    2.207762    0.000000    1.000000
    46  Cl    c     4.376497    4.376497    4.408771    0.000000    1.485000
    47  Cl    c     4.376497    4.376497   -4.408771    0.000000    1.485000
    48  Cl    c     4.376497    0.029405    4.408771    0.000000    1.485000
    49  Cl    c     4.376497    0.029405   -4.408771    0.000000    1.485000
    50  Cl    c     0.029405    4.376497    4.408771    0.000000    1.485000
    51  Cl    c     0.029405    4.376497   -4.408771    0.000000    1.485000
    52  Cl    c     0.029405    0.029405    4.408771    0.000000    1.485000
    53  Cl    c     0.029405    0.029405   -4.408771    0.000000    1.485000
    54  Na    c     2.202951    6.791243    4.436014    0.000000    1.000000
    55  Na    c     2.202951    6.791243   -4.436014    0.000000    1.000000
    56  Na    c     2.202951   -2.385340    4.436014    0.000000    1.000000
    57  Na    c     2.202951   -2.385340   -4.436014    0.000000    1.000000
    58  Na    c     6.791243    2.202951    4.436014    0.000000    1.000000
    59  Na    c     6.791243    2.202951   -4.436014    0.000000    1.000000
    60  Na    c    -2.385340    2.202951    4.436014    0.000000    1.000000
    61  Na    c    -2.385340    2.202951   -4.436014    0.000000    1.000000
    62  Na    c     6.645341    6.645341    0.000000    0.000000    1.000000
    63  Na    c     6.645341   -2.239439    0.000000    0.000000    1.000000
    64  Na    c    -2.239439    6.645341    0.000000    0.000000    1.000000
    65  Na    c    -2.239439   -2.239439    0.000000    0.000000    1.000000
    66  O     c     2.202951    2.202951    6.639966    0.000000    0.183000
    67  O     c     2.202951    2.202951   -6.639966    0.000000    0.183000
    68  O     c     6.606406    6.606406   -2.201522    0.000000    0.183000
    69  O     c     6.606406    6.606406    2.201522    0.000000    0.183000
    70  O     c     6.606406   -2.200504   -2.201522    0.000000    0.183000
    71  O     c     6.606406   -2.200504    2.201522    0.000000    0.183000
    72  O     c    -2.200504    6.606406   -2.201522    0.000000    0.183000
    73  O     c    -2.200504    6.606406    2.201522    0.000000    0.183000
    74  O     c    -2.200504   -2.200504   -2.201522    0.000000    0.183000
    75  O     c    -2.200504   -2.200504    2.201522    0.000000    0.183000
    76  Cl    c     4.401353    8.781674    0.000000    0.000000    1.485000
    77  Cl    c     4.401353   -4.375771    0.000000    0.000000    1.485000
    78  Cl    c     8.781674    4.401353    0.000000    0.000000    1.485000
    79  Cl    c     8.781674    0.004550    0.000000    0.000000    1.485000
    80  Cl    c     0.004550    8.781674    0.000000    0.000000    1.485000
    81  Cl    c     0.004550   -4.375771    0.000000    0.000000    1.485000
    82  Cl    c    -4.375771    4.401353    0.000000    0.000000    1.485000
    83  Cl    c    -4.375771    0.004550    0.000000    0.000000    1.485000
    84  Na    c     4.421054    2.202951    6.637315    0.000000    1.000000
    85  Na    c     4.421054    2.202951   -6.637315    0.000000    1.000000
    86  Na    c    -0.015152    2.202951    6.637315    0.000000    1.000000
    87  Na    c    -0.015152    2.202951   -6.637315    0.000000    1.000000
    88  Na    c     2.202951    4.421054    6.637315    0.000000    1.000000
    89  Na    c     2.202951    4.421054   -6.637315    0.000000    1.000000
    90  Na    c     2.202951   -0.015152    6.637315    0.000000    1.000000
    91  Na    c     2.202951   -0.015152   -6.637315    0.000000    1.000000
    92  Na    c     8.827009    2.202951   -2.099272    0.000000    1.000000
    93  Na    c     8.827009    2.202951    2.099272    0.000000    1.000000
    94  Na    c    -4.421107    2.202951   -2.099272    0.000000    1.000000
    95  Na    c    -4.421107    2.202951    2.099272    0.000000    1.000000
    96  Na    c     2.202951    8.827009   -2.099272    0.000000    1.000000
    97  Na    c     2.202951    8.827009    2.099272    0.000000    1.000000
    98  Na    c     2.202951   -4.421107   -2.099272    0.000000    1.000000
    99  Na    c     2.202951   -4.421107    2.099272    0.000000    1.000000
   100  Na    c     6.620460    6.620460    4.409909    0.000000    1.000000
   101  Na    c     6.620460    6.620460   -4.409909    0.000000    1.000000
   102  Na    c     6.620460   -2.214558    4.409909    0.000000    1.000000
   103  Na    c     6.620460   -2.214558   -4.409909    0.000000    1.000000
   104  Na    c    -2.214558    6.620460    4.409909    0.000000    1.000000
   105  Na    c    -2.214558    6.620460   -4.409909    0.000000    1.000000
   106  Na    c    -2.214558   -2.214558    4.409909    0.000000    1.000000
   107  Na    c    -2.214558   -2.214558   -4.409909    0.000000    1.000000
   108  O     c     2.202951    6.626622    6.625384    0.000000    0.183000
   109  O     c     2.202951    6.626622   -6.625384    0.000000    0.183000
   110  O     c     2.202951   -2.220719    6.625384    0.000000    0.183000
   111  O     c     2.202951   -2.220719   -6.625384    0.000000    0.183000
   112  O     c     6.626622    2.202951    6.625384    0.000000    0.183000
   113  O     c     6.626622    2.202951   -6.625384    0.000000    0.183000
   114  O     c    -2.220719    2.202951    6.625384    0.000000    0.183000
   115  O     c    -2.220719    2.202951   -6.625384    0.000000    0.183000
   116  Cl    c     4.405255    8.800977    4.400151    0.000000    1.485000
   117  Cl    c     4.405255    8.800977   -4.400151    0.000000    1.485000
   118  Cl    c     4.405255   -4.395075    4.400151    0.000000    1.485000
   119  Cl    c     4.405255   -4.395075   -4.400151    0.000000    1.485000
   120  Cl    c     8.800977    4.405255    4.400151    0.000000    1.485000
   121  Cl    c     8.800977    4.405255   -4.400151    0.000000    1.485000
   122  Cl    c     8.800977    0.000648    4.400151    0.000000    1.485000
   123  Cl    c     8.800977    0.000648   -4.400151    0.000000    1.485000
   124  Cl    c     0.000648    8.800977    4.400151    0.000000    1.485000
   125  Cl    c     0.000648    8.800977   -4.400151    0.000000    1.485000
   126  Cl    c     0.000648   -4.395075    4.400151    0.000000    1.485000
   127  Cl    c     0.000648   -4.395075   -4.400151    0.000000    1.485000
   128  Cl    c    -4.395075    4.405255    4.400151    0.000000    1.485000
   129  Cl    c    -4.395075    4.405255   -4.400151    0.000000    1.485000
   130  Cl    c    -4.395075    0.000648    4.400151    0.000000    1.485000
   131  Cl    c    -4.395075    0.000648   -4.400151    0.000000    1.485000
   132  Na    c     4.406920    6.620513    6.631543    0.000000    1.000000
   133  Na    c     4.406920    6.620513   -6.631543    0.000000    1.000000
   134  Na    c     4.406920   -2.214611    6.631543    0.000000    1.000000
   135  Na    c     4.406920   -2.214611   -6.631543    0.000000    1.000000
   136  Na    c    -0.001017    6.620513    6.631543    0.000000    1.000000
   137  Na    c    -0.001017    6.620513   -6.631543    0.000000    1.000000
   138  Na    c    -0.001017   -2.214611    6.631543    0.000000    1.000000
   139  Na    c    -0.001017   -2.214611   -6.631543    0.000000    1.000000
   140  Na    c     6.620513    4.406920    6.631543    0.000000    1.000000
   141  Na    c     6.620513    4.406920   -6.631543    0.000000    1.000000
   142  Na    c     6.620513   -0.001017    6.631543    0.000000    1.000000
   143  Na    c     6.620513   -0.001017   -6.631543    0.000000    1.000000
   144  Na    c    -2.214611    4.406920    6.631543    0.000000    1.000000
   145  Na    c    -2.214611    4.406920   -6.631543    0.000000    1.000000
   146  Na    c    -2.214611   -0.001017    6.631543    0.000000    1.000000
   147  Na    c    -2.214611   -0.001017   -6.631543    0.000000    1.000000
   148  Na    c     8.818395    6.622122   -2.212610    0.000000    1.000000
   149  Na    c     8.818395    6.622122    2.212610    0.000000    1.000000
   150  Na    c     8.818395   -2.216220   -2.212610    0.000000    1.000000
   151  Na    c     8.818395   -2.216220    2.212610    0.000000    1.000000
   152  Na    c    -4.412493    6.622122   -2.212610    0.000000    1.000000
   153  Na    c    -4.412493    6.622122    2.212610    0.000000    1.000000
   154  Na    c    -4.412493   -2.216220   -2.212610    0.000000    1.000000
   155  Na    c    -4.412493   -2.216220    2.212610    0.000000    1.000000
   156  Na    c     6.622122    8.818395   -2.212610    0.000000    1.000000
   157  Na    c     6.622122    8.818395    2.212610    0.000000    1.000000
   158  Na    c     6.622122   -4.412493   -2.212610    0.000000    1.000000
   159  Na    c     6.622122   -4.412493    2.212610    0.000000    1.000000
   160  Na    c    -2.216220    8.818395   -2.212610    0.000000    1.000000
   161  Na    c    -2.216220    8.818395    2.212610    0.000000    1.000000
   162  Na    c    -2.216220   -4.412493   -2.212610    0.000000    1.000000
   163  Na    c    -2.216220   -4.412493    2.212610    0.000000    1.000000
   164  Na    c     2.202951    2.202951    8.833250    0.000000    1.000000
   165  Na    c     2.202951    2.202951   -8.833250    0.000000    1.000000
   166  Na    c     2.202951   11.126564    0.000000    0.000000    1.000000
   167  Na    c     2.202951   -6.720662    0.000000    0.000000    1.000000
   168  Na    c    11.126564    2.202951    0.000000    0.000000    1.000000
   169  Na    c    -6.720662    2.202951    0.000000    0.000000    1.000000
   170  O     c     6.606237    6.606237    6.608248    0.000000    0.183000
   171  O     c     6.606237    6.606237   -6.608248    0.000000    0.183000
   172  O     c     6.606237   -2.200335    6.608248    0.000000    0.183000
   173  O     c     6.606237   -2.200335   -6.608248    0.000000    0.183000
   174  O     c    -2.200335    6.606237    6.608248    0.000000    0.183000
   175  O     c    -2.200335    6.606237   -6.608248    0.000000    0.183000
   176  O     c    -2.200335   -2.200335    6.608248    0.000000    0.183000
   177  O     c    -2.200335   -2.200335   -6.608248    0.000000    0.183000
   178  O     c     2.202951   11.019468   -2.199324    0.000000    0.183000
   179  O     c     2.202951   11.019468    2.199324    0.000000    0.183000
   180  O     c     2.202951   -6.613566   -2.199324    0.000000    0.183000
   181  O     c     2.202951   -6.613566    2.199324    0.000000    0.183000
   182  O     c    11.019468    2.202951   -2.199324    0.000000    0.183000
   183  O     c    11.019468    2.202951    2.199324    0.000000    0.183000
   184  O     c    -6.613566    2.202951   -2.199324    0.000000    0.183000
   185  O     c    -6.613566    2.202951    2.199324    0.000000    0.183000
   186  Cl    c     4.406831    4.406831    8.803938    0.000000    1.485000
   187  Cl    c     4.406831    4.406831   -8.803938    0.000000    1.485000
   188  Cl    c     4.406831   -0.000928    8.803938    0.000000    1.485000
   189  Cl    c     4.406831   -0.000928   -8.803938    0.000000    1.485000
   190  Cl    c    -0.000928    4.406831    8.803938    0.000000    1.485000
   191  Cl    c    -0.000928    4.406831   -8.803938    0.000000    1.485000
   192  Cl    c    -0.000928   -0.000928    8.803938    0.000000    1.485000
   193  Cl    c    -0.000928   -0.000928   -8.803938    0.000000    1.485000
   194  Cl    c     8.797848    8.797848    0.000000    0.000000    1.485000
   195  Cl    c     8.797848   -4.391946    0.000000    0.000000    1.485000
   196  Cl    c    -4.391946    8.797848    0.000000    0.000000    1.485000
   197  Cl    c    -4.391946   -4.391946    0.000000    0.000000    1.485000
   198  Na    c     8.829358    2.202951    6.719640    0.000000    1.000000
   199  Na    c     8.829358    2.202951   -6.719640    0.000000    1.000000
   200  Na    c    -4.423455    2.202951    6.719640    0.000000    1.000000
   201  Na    c    -4.423455    2.202951   -6.719640    0.000000    1.000000
   202  Na    c     2.202951    8.829358    6.719640    0.000000    1.000000
   203  Na    c     2.202951    8.829358   -6.719640    0.000000    1.000000
   204  Na    c     2.202951   -4.423455    6.719640    0.000000    1.000000
   205  Na    c     2.202951   -4.423455   -6.719640    0.000000    1.000000
   206  Na    c     4.407110   11.029458   -2.211592    0.000000    1.000000
   207  Na    c     4.407110   11.029458    2.211592    0.000000    1.000000
   208  Na    c     4.407110   -6.623556   -2.211592    0.000000    1.000000
   209  Na    c     4.407110   -6.623556    2.211592    0.000000    1.000000
   210  Na    c    -0.001208   11.029458   -2.211592    0.000000    1.000000
   211  Na    c    -0.001208   11.029458    2.211592    0.000000    1.000000
   212  Na    c    -0.001208   -6.623556   -2.211592    0.000000    1.000000
   213  Na    c    -0.001208   -6.623556    2.211592    0.000000    1.000000
   214  Na    c    11.029458    4.407110   -2.211592    0.000000    1.000000
   215  Na    c    11.029458    4.407110    2.211592    0.000000    1.000000
   216  Na    c    11.029458   -0.001208   -2.211592    0.000000    1.000000
   217  Na    c    11.029458   -0.001208    2.211592    0.000000    1.000000
   218  Na    c    -6.623556    4.407110   -2.211592    0.000000    1.000000
   219  Na    c    -6.623556    4.407110    2.211592    0.000000    1.000000
   220  Na    c    -6.623556   -0.001208   -2.211592    0.000000    1.000000
   221  Na    c    -6.623556   -0.001208    2.211592    0.000000    1.000000
   222  Na    c     2.202951    6.592712    8.830046    0.000000    1.000000
   223  Na    c     2.202951    6.592712   -8.830046    0.000000    1.000000
   224  Na    c     2.202951   -2.186810    8.830046    0.000000    1.000000
   225  Na    c     2.202951   -2.186810   -8.830046    0.000000    1.000000
   226  Na    c     6.592712    2.202951    8.830046    0.000000    1.000000
   227  Na    c     6.592712    2.202951   -8.830046    0.000000    1.000000
   228  Na    c    -2.186810    2.202951    8.830046    0.000000    1.000000
   229  Na    c    -2.186810    2.202951   -8.830046    0.000000    1.000000
   230  Na    c     2.202951   10.957015    4.408730    0.000000    1.000000
   231  Na    c     2.202951   10.957015   -4.408730    0.000000    1.000000
   232  Na    c     2.202951   -6.551112    4.408730    0.000000    1.000000
   233  Na    c     2.202951   -6.551112   -4.408730    0.000000    1.000000
   234  Na    c    10.957015    2.202951    4.408730    0.000000    1.000000
   235  Na    c    10.957015    2.202951   -4.408730    0.000000    1.000000
   236  Na    c    -6.551112    2.202951    4.408730    0.000000    1.000000
   237  Na    c    -6.551112    2.202951   -4.408730    0.000000    1.000000
   238  Na    c     6.610585   11.024154    0.000000    0.000000    1.000000
   239  Na    c     6.610585   -6.618252    0.000000    0.000000    1.000000
   240  Na    c    11.024154    6.610585    0.000000    0.000000    1.000000
   241  Na    c    11.024154   -2.204683    0.000000    0.000000    1.000000
   242  Na    c    -2.204683   11.024154    0.000000    0.000000    1.000000
   243  Na    c    -2.204683   -6.618252    0.000000    0.000000    1.000000
   244  Na    c    -6.618252    6.610585    0.000000    0.000000    1.000000
   245  Na    c    -6.618252   -2.204683    0.000000    0.000000    1.000000
   246  O     c     6.608632   11.014754   -2.203015    0.000000    0.183000
   247  O     c     6.608632   11.014754    2.203015    0.000000    0.183000
   248  O     c     6.608632   -6.608852   -2.203015    0.000000    0.183000
   249  O     c     6.608632   -6.608852    2.203015    0.000000    0.183000
   250  O     c    11.014754    6.608632   -2.203015    0.000000    0.183000
   251  O     c    11.014754    6.608632    2.203015    0.000000    0.183000
   252  O     c    11.014754   -2.202730   -2.203015    0.000000    0.183000
   253  O     c    11.014754   -2.202730    2.203015    0.000000    0.183000
   254  O     c    -2.202730   11.014754   -2.203015    0.000000    0.183000
   255  O     c    -2.202730   11.014754    2.203015    0.000000    0.183000
   256  O     c    -2.202730   -6.608852   -2.203015    0.000000    0.183000
   257  O     c    -2.202730   -6.608852    2.203015    0.000000    0.183000
   258  O     c    -6.608852    6.608632   -2.203015    0.000000    0.183000
   259  O     c    -6.608852    6.608632    2.203015    0.000000    0.183000
   260  O     c    -6.608852   -2.202730   -2.203015    0.000000    0.183000
   261  O     c    -6.608852   -2.202730    2.203015    0.000000    0.183000
   262  Cl    c     8.800610    8.800610    4.397200    0.000000    1.485000
   263  Cl    c     8.800610    8.800610   -4.397200    0.000000    1.485000
   264  Cl    c     8.800610   -4.394707    4.397200    0.000000    1.485000
   265  Cl    c     8.800610   -4.394707   -4.397200    0.000000    1.485000
   266  Cl    c    -4.394707    8.800610    4.397200    0.000000    1.485000
   267  Cl    c    -4.394707    8.800610   -4.397200    0.000000    1.485000
   268  Cl    c    -4.394707   -4.394707    4.397200    0.000000    1.485000
   269  Cl    c    -4.394707   -4.394707   -4.397200    0.000000    1.485000
   270  Na    c     8.814227    6.613632    6.615188    0.000000    1.000000
   271  Na    c     8.814227    6.613632   -6.615188    0.000000    1.000000
   272  Na    c     8.814227   -2.207730    6.615188    0.000000    1.000000
   273  Na    c     8.814227   -2.207730   -6.615188    0.000000    1.000000
   274  Na    c    -4.408325    6.613632    6.615188    0.000000    1.000000
   275  Na    c    -4.408325    6.613632   -6.615188    0.000000    1.000000
   276  Na    c    -4.408325   -2.207730    6.615188    0.000000    1.000000
   277  Na    c    -4.408325   -2.207730   -6.615188    0.000000    1.000000
   278  Na    c     6.613632    8.814227    6.615188    0.000000    1.000000
   279  Na    c     6.613632    8.814227   -6.615188    0.000000    1.000000
   280  Na    c     6.613632   -4.408325    6.615188    0.000000    1.000000
   281  Na    c     6.613632   -4.408325   -6.615188    0.000000    1.000000
   282  Na    c    -2.207730    8.814227    6.615188    0.000000    1.000000
   283  Na    c    -2.207730    8.814227   -6.615188    0.000000    1.000000
   284  Na    c    -2.207730   -4.408325    6.615188    0.000000    1.000000
   285  Na    c    -2.207730   -4.408325   -6.615188    0.000000    1.000000
   286  Na    c     6.617234   11.025077    4.407458    0.000000    1.000000
   287  Na    c     6.617234   11.025077   -4.407458    0.000000    1.000000
   288  Na    c     6.617234   -6.619174    4.407458    0.000000    1.000000
   289  Na    c     6.617234   -6.619174   -4.407458    0.000000    1.000000
   290  Na    c    11.025077    6.617234    4.407458    0.000000    1.000000
   291  Na    c    11.025077    6.617234   -4.407458    0.000000    1.000000
   292  Na    c    11.025077   -2.211332    4.407458    0.000000    1.000000
   293  Na    c    11.025077   -2.211332   -4.407458    0.000000    1.000000
   294  Na    c    -2.211332   11.025077    4.407458    0.000000    1.000000
   295  Na    c    -2.211332   11.025077   -4.407458    0.000000    1.000000
   296  Na    c    -2.211332   -6.619174    4.407458    0.000000    1.000000
   297  Na    c    -2.211332   -6.619174   -4.407458    0.000000    1.000000
   298  Na    c    -6.619174    6.617234    4.407458    0.000000    1.000000
   299  Na    c    -6.619174    6.617234   -4.407458    0.000000    1.000000
   300  Na    c    -6.619174   -2.211332    4.407458    0.000000    1.000000
   301  Na    c    -6.619174   -2.211332   -4.407458    0.000000    1.000000
   302  Na    c     6.612943    6.612943    8.816848    0.000000    1.000000
   303  Na    c     6.612943    6.612943   -8.816848    0.000000    1.000000
   304  Na    c     6.612943   -2.207041    8.816848    0.000000    1.000000
   305  Na    c     6.612943   -2.207041   -8.816848    0.000000    1.000000
   306  Na    c    -2.207041    6.612943    8.816848    0.000000    1.000000
   307  Na    c    -2.207041    6.612943   -8.816848    0.000000    1.000000
   308  Na    c    -2.207041   -2.207041    8.816848    0.000000    1.000000
   309  Na    c    -2.207041   -2.207041   -8.816848    0.000000    1.000000
   310  O     c     2.202951    2.202951   11.029599    0.000000    0.183000
   311  O     c     2.202951    2.202951  -11.029599    0.000000    0.183000
   312  O     c     2.202951   11.017427    6.614206    0.000000    0.183000
   313  O     c     2.202951   11.017427   -6.614206    0.000000    0.183000
   314  O     c     2.202951   -6.611525    6.614206    0.000000    0.183000
   315  O     c     2.202951   -6.611525   -6.614206    0.000000    0.183000
   316  O     c    11.017427    2.202951    6.614206    0.000000    0.183000
   317  O     c    11.017427    2.202951   -6.614206    0.000000    0.183000
   318  O     c    -6.611525    2.202951    6.614206    0.000000    0.183000
   319  O     c    -6.611525    2.202951   -6.614206    0.000000    0.183000
   320  Cl    c     4.402846    8.807199    8.808288    0.000000    1.485000
   321  Cl    c     4.402846    8.807199   -8.808288    0.000000    1.485000
   322  Cl    c     4.402846   -4.401297    8.808288    0.000000    1.485000
   323  Cl    c     4.402846   -4.401297   -8.808288    0.000000    1.485000
   324  Cl    c     8.807199    4.402846    8.808288    0.000000    1.485000
   325  Cl    c     8.807199    4.402846   -8.808288    0.000000    1.485000
   326  Cl    c     8.807199    0.003056    8.808288    0.000000    1.485000
   327  Cl    c     8.807199    0.003056   -8.808288    0.000000    1.485000
   328  Cl    c     0.003056    8.807199    8.808288    0.000000    1.485000
   329  Cl    c     0.003056    8.807199   -8.808288    0.000000    1.485000
   330  Cl    c     0.003056   -4.401297    8.808288    0.000000    1.485000
   331  Cl    c     0.003056   -4.401297   -8.808288    0.000000    1.485000
   332  Cl    c    -4.401297    4.402846    8.808288    0.000000    1.485000
   333  Cl    c    -4.401297    4.402846   -8.808288    0.000000    1.485000
   334  Cl    c    -4.401297    0.003056    8.808288    0.000000    1.485000
   335  Cl    c    -4.401297    0.003056   -8.808288    0.000000    1.485000
   336  Cl    c     4.405401   13.209127    0.000000    0.000000    1.485000
   337  Cl    c     4.405401   -8.803224    0.000000    0.000000    1.485000
   338  Cl    c    13.209127    4.405401    0.000000    0.000000    1.485000
   339  Cl    c    13.209127    0.000502    0.000000    0.000000    1.485000
   340  Cl    c     0.000502   13.209127    0.000000    0.000000    1.485000
   341  Cl    c     0.000502   -8.803224    0.000000    0.000000    1.485000
   342  Cl    c    -8.803224    4.405401    0.000000    0.000000    1.485000
   343  Cl    c    -8.803224    0.000502    0.000000    0.000000    1.485000
   344  Na    c     4.405928    2.202951   11.043594    0.000000    1.000000
   345  Na    c     4.405928    2.202951  -11.043594    0.000000    1.000000
   346  Na    c    -0.000026    2.202951   11.043594    0.000000    1.000000
   347  Na    c    -0.000026    2.202951  -11.043594    0.000000    1.000000
   348  Na    c     2.202951    4.405928   11.043594    0.000000    1.000000
   349  Na    c     2.202951    4.405928  -11.043594    0.000000    1.000000
   350  Na    c     2.202951   -0.000026   11.043594    0.000000    1.000000
   351  Na    c     2.202951   -0.000026  -11.043594    0.000000    1.000000
   352  Na    c     4.407373   11.028247    6.611547    0.000000    1.000000
   353  Na    c     4.407373   11.028247   -6.611547    0.000000    1.000000
   354  Na    c     4.407373   -6.622344    6.611547    0.000000    1.000000
   355  Na    c     4.407373   -6.622344   -6.611547    0.000000    1.000000
   356  Na    c    -0.001471   11.028247    6.611547    0.000000    1.000000
   357  Na    c    -0.001471   11.028247   -6.611547    0.000000    1.000000
   358  Na    c    -0.001471   -6.622344    6.611547    0.000000    1.000000
   359  Na    c    -0.001471   -6.622344   -6.611547    0.000000    1.000000
   360  Na    c    11.028247    4.407373    6.611547    0.000000    1.000000
   361  Na    c    11.028247    4.407373   -6.611547    0.000000    1.000000
   362  Na    c    11.028247   -0.001471    6.611547    0.000000    1.000000
   363  Na    c    11.028247   -0.001471   -6.611547    0.000000    1.000000
   364  Na    c    -6.622344    4.407373    6.611547    0.000000    1.000000
   365  Na    c    -6.622344    4.407373   -6.611547    0.000000    1.000000
   366  Na    c    -6.622344   -0.001471    6.611547    0.000000    1.000000
   367  Na    c    -6.622344   -0.001471   -6.611547    0.000000    1.000000
   368  Na    c    13.223892    2.202951   -2.267899    0.000000    1.000000
   369  Na    c    13.223892    2.202951    2.267899    0.000000    1.000000
   370  Na    c    -8.817989    2.202951   -2.267899    0.000000    1.000000
   371  Na    c    -8.817989    2.202951    2.267899    0.000000    1.000000
   372  Na    c     2.202951   13.223892   -2.267899    0.000000    1.000000
   373  Na    c     2.202951   13.223892    2.267899    0.000000    1.000000
   374  Na    c     2.202951   -8.817989   -2.267899    0.000000    1.000000
   375  Na    c     2.202951   -8.817989    2.267899    0.000000    1.000000
   376  Na    c     8.814512   11.025383   -2.202811    0.000000    1.000000
   377  Na    c     8.814512   11.025383    2.202811    0.000000    1.000000
   378  Na    c     8.814512   -6.619481   -2.202811    0.000000    1.000000
   379  Na    c     8.814512   -6.619481    2.202811    0.000000    1.000000
   380  Na    c    -4.408609   11.025383   -2.202811    0.000000    1.000000
   381  Na    c    -4.408609   11.025383    2.202811    0.000000    1.000000
   382  Na    c    -4.408609   -6.619481   -2.202811    0.000000    1.000000
   383  Na    c    -4.408609   -6.619481    2.202811    0.000000    1.000000
   384  Na    c    11.025383    8.814512   -2.202811    0.000000    1.000000
   385  Na    c    11.025383    8.814512    2.202811    0.000000    1.000000
   386  Na    c    11.025383   -4.408609   -2.202811    0.000000    1.000000
   387  Na    c    11.025383   -4.408609    2.202811    0.000000    1.000000
   388  Na    c    -6.619481    8.814512   -2.202811    0.000000    1.000000
   389  Na    c    -6.619481    8.814512    2.202811    0.000000    1.000000
   390  Na    c    -6.619481   -4.408609   -2.202811    0.000000    1.000000
   391  Na    c    -6.619481   -4.408609    2.202811    0.000000    1.000000
   392  O     c     2.202951    6.608295   11.020372    0.000000    0.183000
   393  O     c     2.202951    6.608295  -11.020372    0.000000    0.183000
   394  O     c     2.202951   -2.202393   11.020372    0.000000    0.183000
   395  O     c     2.202951   -2.202393  -11.020372    0.000000    0.183000
   396  O     c     6.608295    2.202951   11.020372    0.000000    0.183000
   397  O     c     6.608295    2.202951  -11.020372    0.000000    0.183000
   398  O     c    -2.202393    2.202951   11.020372    0.000000    0.183000
   399  O     c    -2.202393    2.202951  -11.020372    0.000000    0.183000
   400  O     c     6.609161   11.014204    6.607621    0.000000    0.183000
   401  O     c     6.609161   11.014204   -6.607621    0.000000    0.183000
   402  O     c     6.609161   -6.608302    6.607621    0.000000    0.183000
   403  O     c     6.609161   -6.608302   -6.607621    0.000000    0.183000
   404  O     c    11.014204    6.609161    6.607621    0.000000    0.183000
   405  O     c    11.014204    6.609161   -6.607621    0.000000    0.183000
   406  O     c    11.014204   -2.203259    6.607621    0.000000    0.183000
   407  O     c    11.014204   -2.203259   -6.607621    0.000000    0.183000
   408  O     c    -2.203259   11.014204    6.607621    0.000000    0.183000
   409  O     c    -2.203259   11.014204   -6.607621    0.000000    0.183000
   410  O     c    -2.203259   -6.608302    6.607621    0.000000    0.183000
   411  O     c    -2.203259   -6.608302   -6.607621    0.000000    0.183000
   412  O     c    -6.608302    6.609161    6.607621    0.000000    0.183000
   413  O     c    -6.608302    6.609161   -6.607621    0.000000    0.183000
   414  O     c    -6.608302   -2.203259    6.607621    0.000000    0.183000
   415  O     c    -6.608302   -2.203259   -6.607621    0.000000    0.183000
   416  Cl    c     4.404059   13.207920    4.401997    0.000000    1.485000
   417  Cl    c     4.404059   13.207920   -4.401997    0.000000    1.485000
   418  Cl    c     4.404059   -8.802018    4.401997    0.000000    1.485000
   419  Cl    c     4.404059   -8.802018   -4.401997    0.000000    1.485000
   420  Cl    c    13.207920    4.404059    4.401997    0.000000    1.485000
   421  Cl    c    13.207920    4.404059   -4.401997    0.000000    1.485000
   422  Cl    c    13.207920    0.001843    4.401997    0.000000    1.485000
   423  Cl    c    13.207920    0.001843   -4.401997    0.000000    1.485000
   424  Cl    c     0.001843   13.207920    4.401997    0.000000    1.485000
   425  Cl    c     0.001843   13.207920   -4.401997    0.000000    1.485000
   426  Cl    c     0.001843   -8.802018    4.401997    0.000000    1.485000
   427  Cl    c     0.001843   -8.802018   -4.401997    0.000000    1.485000
   428  Cl    c    -8.802018    4.404059    4.401997    0.000000    1.485000
   429  Cl    c    -8.802018    4.404059   -4.401997    0.000000    1.485000
   430  Cl    c    -8.802018    0.001843    4.401997    0.000000    1.485000
   431  Cl    c    -8.802018    0.001843   -4.401997    0.000000    1.485000
   432  Na    c     4.407744    6.614134   11.029150    0.000000    1.000000
   433  Na    c     4.407744    6.614134  -11.029150    0.000000    1.000000
   434  Na    c     4.407744   -2.208232   11.029150    0.000000    1.000000
   435  Na    c     4.407744   -2.208232  -11.029150    0.000000    1.000000
   436  Na    c    -0.001841    6.614134   11.029150    0.000000    1.000000
   437  Na    c    -0.001841    6.614134  -11.029150    0.000000    1.000000
   438  Na    c    -0.001841   -2.208232   11.029150    0.000000    1.000000
   439  Na    c    -0.001841   -2.208232  -11.029150    0.000000    1.000000
   440  Na    c     6.614134    4.407744   11.029150    0.000000    1.000000
   441  Na    c     6.614134    4.407744  -11.029150    0.000000    1.000000
   442  Na    c     6.614134   -0.001841   11.029150    0.000000    1.000000
   443  Na    c     6.614134   -0.001841  -11.029150    0.000000    1.000000
   444  Na    c    -2.208232    4.407744   11.029150    0.000000    1.000000
   445  Na    c    -2.208232    4.407744  -11.029150    0.000000    1.000000
   446  Na    c    -2.208232   -0.001841   11.029150    0.000000    1.000000
   447  Na    c    -2.208232   -0.001841  -11.029150    0.000000    1.000000
   448  Na    c    13.220940    6.613406   -2.203839    0.000000    1.000000
   449  Na    c    13.220940    6.613406    2.203839    0.000000    1.000000
   450  Na    c    13.220940   -2.207503   -2.203839    0.000000    1.000000
   451  Na    c    13.220940   -2.207503    2.203839    0.000000    1.000000
   452  Na    c    -8.815038    6.613406   -2.203839    0.000000    1.000000
[...]
     61 y         15.420658     15.392853    -0.027805    Cartesian   -0.18
     61 z          0.000000      0.000000     0.000000    Cartesian    0.00
     62 x          6.608853      6.612884     0.004030    Cartesian    0.06
     62 y         11.014756     11.019181     0.004425    Cartesian    0.04
     62 z          8.811805      8.812795     0.000991    Cartesian    0.01
     63 x         11.014756     11.020693     0.005937    Cartesian    0.05
     63 y         11.014756     11.020693     0.005937    Cartesian    0.05
     63 z          4.405902      4.406369     0.000467    Cartesian    0.01
     64 x          2.202951      2.202951     0.000000    Cartesian    0.00
     64 y         15.420658     15.421104     0.000446    Cartesian    0.00
     64 z         -2.202951     -2.206834    -0.003883    Cartesian    0.18
     65 x          8.811805      8.808379    -0.003425    Cartesian   -0.04
     65 y         13.217707     13.210120    -0.007587    Cartesian   -0.06
     65 z          4.405902      4.402186    -0.003716    Cartesian   -0.08
     66 x          4.405902      4.406426     0.000524    Cartesian    0.01
     66 y         15.420658     15.427237     0.006578    Cartesian    0.04
     66 z         -2.202951     -2.196516     0.006435    Cartesian   -0.29
     67 x          4.405902      4.405917     0.000015    Cartesian    0.00
     67 y          4.405902      4.405917     0.000015    Cartesian    0.00
     67 z         13.217707     13.212059    -0.005648    Cartesian   -0.04
     68 x          8.811805      8.813634     0.001830    Cartesian    0.02
     68 y          6.608853      6.612715     0.003862    Cartesian    0.06
     68 z         11.014756     11.018370     0.003614    Cartesian    0.03
     69 x         13.217707     13.218774     0.001067    Cartesian    0.01
     69 y          6.608853      6.612450     0.003597    Cartesian    0.05
     69 z          6.608853      6.611395     0.002542    Cartesian    0.04
     70 x          2.202951      2.202951     0.000000    Cartesian    0.00
     70 y          6.608853      6.617882     0.009029    Cartesian    0.14
     70 z         13.217707     13.222188     0.004481    Cartesian    0.03
     71 x          2.202951      2.202951     0.000000    Cartesian    0.00
     71 y         15.420658     15.457806     0.037148    Cartesian    0.24
     71 z          4.405902      4.406408     0.000506    Cartesian    0.01
     72 x          6.608853      6.615825     0.006972    Cartesian    0.11
     72 y         15.420658     15.425577     0.004919    Cartesian    0.03
     72 z          0.000000      0.000000     0.000000    Cartesian    0.00
     73 x          6.608853      6.609367     0.000514    Cartesian    0.01
     73 y         15.420658     15.420323    -0.000335    Cartesian   -0.00
     73 z         -2.202951     -2.202365     0.000586    Cartesian   -0.03
     74 x          2.202951      2.202951     0.000000    Cartesian    0.00
     74 y         11.014756     11.021640     0.006884    Cartesian    0.06
     74 z         11.014756     11.017474     0.002718    Cartesian    0.02
     75 x         11.014756     11.015531     0.000776    Cartesian    0.01
     75 y         11.014756     11.015531     0.000776    Cartesian    0.01
     75 z          6.608853      6.608510    -0.000343    Cartesian   -0.01
     76 x          4.405902      4.405849    -0.000053    Cartesian   -0.00
     76 y         13.217707     13.211953    -0.005754    Cartesian   -0.04
     76 z          8.811805      8.808137    -0.003668    Cartesian   -0.04
     77 x          4.405902      4.406544     0.000642    Cartesian    0.01
     77 y         11.014756     11.016635     0.001879    Cartesian    0.02
     77 z         11.014756     11.020329     0.005573    Cartesian    0.05
     78 x         13.217707     13.220445     0.002738    Cartesian    0.02
     78 y         11.014756     11.018878     0.004123    Cartesian    0.04
     78 z         -2.202951     -2.200712     0.002239    Cartesian   -0.10
     79 x          6.608853      6.606895    -0.001958    Cartesian   -0.03
     79 y         15.420658     15.426375     0.005717    Cartesian    0.04
     79 z          4.405902      4.406079     0.000177    Cartesian    0.00
     80 x          6.608853      6.613993     0.005139    Cartesian    0.08
     80 y          6.608853      6.613993     0.005139    Cartesian    0.08
     80 z         13.217707     13.220989     0.003282    Cartesian    0.02
     81 x          6.608853      6.608872     0.000018    Cartesian    0.00
     81 y         11.014756     11.013520    -0.001236    Cartesian   -0.01
     81 z         11.014756     11.013708    -0.001048    Cartesian   -0.01
     82 x          2.202951      2.202951     0.000000    Cartesian    0.00
     82 y         15.420658     15.421827     0.001169    Cartesian    0.01
     82 z          6.608853      6.604765    -0.004089    Cartesian   -0.06
     83 x          4.405902      4.405084    -0.000818    Cartesian   -0.02
     83 y          8.811805      8.808744    -0.003061    Cartesian   -0.03
     83 z         13.217707     13.208695    -0.009012    Cartesian   -0.07
     84 x          4.405902      4.406060     0.000158    Cartesian    0.00
     84 y         15.420658     15.425243     0.004585    Cartesian    0.03
     84 z          6.608853      6.615505     0.006651    Cartesian    0.10
     85 x          8.811805      8.813554     0.001750    Cartesian    0.02
     85 y         15.420658     15.428337     0.007679    Cartesian    0.05
     85 z         -2.202951     -2.206106    -0.003155    Cartesian    0.14
     86 x         11.014756     11.017657     0.002901    Cartesian    0.03
     86 y         11.014756     11.017657     0.002901    Cartesian    0.03
     86 z          8.811805      8.813723     0.001919    Cartesian    0.02
     87 x          2.202951      2.202951     0.000000    Cartesian    0.00
     87 y          2.202951      2.202951     0.000000    Cartesian    0.00
     87 z         15.420658     15.423883     0.003225    Cartesian    0.02
     88 x          6.608853      6.607215    -0.001638    Cartesian   -0.02
     88 y         15.420658     15.417245    -0.003414    Cartesian   -0.02
     88 z          6.608853      6.607398    -0.001455    Cartesian   -0.02
     89 x          4.405902      4.403777    -0.002126    Cartesian   -0.05
     89 y         17.623609     17.610353    -0.013256    Cartesian   -0.08
     89 z          0.000000      0.000000     0.000000    Cartesian    0.00
     90 x          8.811805      8.807152    -0.004652    Cartesian   -0.05
     90 y         13.217707     13.208471    -0.009236    Cartesian   -0.07
     90 z          8.811805      8.805259    -0.006545    Cartesian   -0.07
     91 x         13.217707     13.209282    -0.008425    Cartesian   -0.06
     91 y         13.217707     13.209282    -0.008425    Cartesian   -0.06
     91 z          0.000000      0.000000     0.000000    Cartesian    0.00
     92 x          4.405902      4.407341     0.001438    Cartesian    0.03
     92 y          2.202951      2.202951     0.000000    Cartesian    0.00
     92 z         15.420658     15.432949     0.012291    Cartesian    0.08
     93 x         13.217707     13.224376     0.006669    Cartesian    0.05
     93 y          2.202951      2.202951     0.000000    Cartesian    0.00
     93 z         11.014756     11.039610     0.024855    Cartesian    0.23
     94 x         17.623609     17.626662     0.003053    Cartesian    0.02
     94 y          2.202951      2.202951     0.000000    Cartesian    0.00
     94 z         -2.202951     -2.189143     0.013808    Cartesian   -0.63
     95 x          8.811805      8.813189     0.001384    Cartesian    0.02
     95 y         11.014756     11.020695     0.005939    Cartesian    0.05
     95 z         11.014756     11.022622     0.007866    Cartesian    0.07
     96 x         13.217707     13.220401     0.002694    Cartesian    0.02
     96 y         11.014756     11.021582     0.006826    Cartesian    0.06
     96 z          6.608853      6.612820     0.003966    Cartesian    0.06
     97 x          2.202951      2.202951     0.000000    Cartesian    0.00
     97 y         11.014756     11.016407     0.001651    Cartesian    0.01
     97 z         13.217707     13.221804     0.004097    Cartesian    0.03
     98 x          2.202951      2.202951     0.000000    Cartesian    0.00
     98 y         15.420658     15.420427    -0.000231    Cartesian   -0.00
     98 z          8.811805      8.811957     0.000152    Cartesian    0.00
     99 x         11.014756     11.020531     0.005775    Cartesian    0.05
     99 y         15.420658     15.432449     0.011791    Cartesian    0.08
     99 z          0.000000      0.000000     0.000000    Cartesian    0.00
    100 x          2.202951      2.202951     0.000000    Cartesian    0.00
    100 y          2.202951      2.202951     0.000000    Cartesian    0.00
    100 z          0.000000      0.000000     0.000000    Cartesian    0.00
    101 x          2.202951      2.202951     0.000000    Cartesian    0.00
    101 y          2.202951      2.202951     0.000000    Cartesian    0.00
    101 z         -2.202951     -2.263495    -0.060544    Cartesian    2.75
    102 x          4.405902      4.330397    -0.075505    Cartesian   -1.71
    102 y          4.405902      4.330397    -0.075505    Cartesian   -1.71
    102 z          0.000000      0.000000     0.000000    Cartesian    0.00
    103 x          2.202951      2.202951     0.000000    Cartesian    0.00
    103 y          6.608853      6.620431     0.011578    Cartesian    0.18
    103 z         -2.202951     -2.220002    -0.017050    Cartesian    0.77
    104 x          4.405902      4.365143    -0.040759    Cartesian   -0.93
    104 y          4.405902      4.365143    -0.040759    Cartesian   -0.93
    104 z          4.405902      4.396449    -0.009454    Cartesian   -0.21
    105 x          2.202951      2.202951     0.000000    Cartesian    0.00
    105 y          2.202951      2.202951     0.000000    Cartesian    0.00
    105 z          6.608853      6.639900     0.031046    Cartesian    0.47
    106 x          6.608853      6.606409    -0.002444    Cartesian   -0.04
    106 y          6.608853      6.606409    -0.002444    Cartesian   -0.04
    106 z         -2.202951     -2.201521     0.001431    Cartesian   -0.06
    107 x          4.405902      4.399102    -0.006800    Cartesian   -0.15
    107 y          8.811805      8.776633    -0.035171    Cartesian   -0.40
    107 z          0.000000      0.000000     0.000000    Cartesian    0.00
    108 x          2.202951      2.202951     0.000000    Cartesian    0.00
    108 y          6.608853      6.626645     0.017791    Cartesian    0.27
    108 z          6.608853      6.625395     0.016541    Cartesian    0.25
    109 x          4.405902      4.402913    -0.002989    Cartesian   -0.07
    109 y          8.811805      8.796487    -0.015317    Cartesian   -0.17
    109 z          4.405902      4.398372    -0.007530    Cartesian   -0.17
    110 x          6.608853      6.606235    -0.002618    Cartesian   -0.04
    110 y          6.608853      6.606235    -0.002618    Cartesian   -0.04
    110 z          6.608853      6.608247    -0.000606    Cartesian   -0.01
    111 x          2.202951      2.202951     0.000000    Cartesian    0.00
    111 y         11.014756     11.019468     0.004712    Cartesian    0.04
    111 z         -2.202951     -2.199313     0.003639    Cartesian   -0.17
    112 x          4.405902      4.406677     0.000775    Cartesian    0.02
    112 y          4.405902      4.406677     0.000775    Cartesian    0.02
    112 z          8.811805      8.800731    -0.011074    Cartesian   -0.13
    113 x          8.811805      8.794441    -0.017364    Cartesian   -0.20
    113 y          8.811805      8.794441    -0.017364    Cartesian   -0.20
    113 z          0.000000      0.000000     0.000000    Cartesian    0.00
    114 x          6.608853      6.608633    -0.000221    Cartesian   -0.00
    114 y         11.014756     11.014750    -0.000005    Cartesian   -0.00
    114 z         -2.202951     -2.203017    -0.000066    Cartesian    0.00
    115 x          8.811805      8.798190    -0.013615    Cartesian   -0.15
    115 y          8.811805      8.798190    -0.013615    Cartesian   -0.15
    115 z          4.405902      4.395413    -0.010490    Cartesian   -0.24
    116 x          2.202951      2.202951     0.000000    Cartesian    0.00
    116 y          2.202951      2.202951     0.000000    Cartesian    0.00
    116 z         11.014756     11.029603     0.014847    Cartesian    0.13
    117 x          2.202951      2.202951     0.000000    Cartesian    0.00
    117 y         11.014756     11.017414     0.002659    Cartesian    0.02
    117 z          6.608853      6.614217     0.005364    Cartesian    0.08
    118 x          4.405902      4.401280    -0.004622    Cartesian   -0.10
    118 y          8.811805      8.805307    -0.006497    Cartesian   -0.07
    118 z          8.811805      8.805502    -0.006303    Cartesian   -0.07
    119 x          4.405902      4.404478    -0.001424    Cartesian   -0.03
    119 y         13.217707     13.206435    -0.011272    Cartesian   -0.09
    119 z          0.000000      0.000000     0.000000    Cartesian    0.00
    120 x          2.202951      2.202951     0.000000    Cartesian    0.00
    120 y          6.608853      6.608289    -0.000565    Cartesian   -0.01
    120 z         11.014756     11.020364     0.005608    Cartesian    0.05
    121 x          6.608853      6.609161     0.000307    Cartesian    0.00
    121 y         11.014756     11.014205    -0.000550    Cartesian   -0.00
    121 z          6.608853      6.607619    -0.001234    Cartesian   -0.02
    122 x          4.405902      4.403370    -0.002532    Cartesian   -0.06
    122 y         13.217707     13.206239    -0.011468    Cartesian   -0.09
    122 z          4.405902      4.400908    -0.004994    Cartesian   -0.11
    123 x          6.608853      6.610351     0.001497    Cartesian    0.02
    123 y          6.608853      6.610351     0.001497    Cartesian    0.02
    123 z         11.014756     11.016576     0.001820    Cartesian    0.02
    124 x         11.014756     11.014911     0.000155    Cartesian    0.00
    124 y         11.014756     11.014911     0.000155    Cartesian    0.00
    124 z         -2.202951     -2.202276     0.000676    Cartesian   -0.03
    125 x          8.811805      8.803646    -0.008159    Cartesian   -0.09
    125 y          8.811805      8.803646    -0.008159    Cartesian   -0.09
    125 z          8.811805      8.802070    -0.009735    Cartesian   -0.11
    126 x          8.811805      8.805644    -0.006160    Cartesian   -0.07
    126 y         13.217707     13.207051    -0.010656    Cartesian   -0.08
    126 z          0.000000      0.000000     0.000000    Cartesian    0.00
    127 x          2.202951      2.202951     0.000000    Cartesian    0.00
    127 y         15.420658     15.421099     0.000441    Cartesian    0.00
    127 z         -2.202951     -2.206847    -0.003896    Cartesian    0.18
    128 x          8.811805      8.807489    -0.004316    Cartesian   -0.05
    128 y         13.217707     13.208698    -0.009009    Cartesian   -0.07
    128 z          4.405902      4.401590    -0.004312    Cartesian   -0.10
    129 x          4.405902      4.405649    -0.000253    Cartesian   -0.01
    129 y          4.405902      4.405649    -0.000253    Cartesian   -0.01
    129 z         13.217707     13.210038    -0.007669    Cartesian   -0.06
    130 x          6.608853      6.609367     0.000514    Cartesian    0.01
    130 y         15.420658     15.420323    -0.000335    Cartesian   -0.00
    130 z         -2.202951     -2.202363     0.000588    Cartesian   -0.03
    131 x          2.202951      2.202951     0.000000    Cartesian    0.00
    131 y         11.014756     11.021649     0.006893    Cartesian    0.06
    131 z         11.014756     11.017471     0.002715    Cartesian    0.02
    132 x         11.014756     11.015531     0.000775    Cartesian    0.01
    132 y         11.014756     11.015531     0.000775    Cartesian    0.01
    132 z          6.608853      6.608510    -0.000343    Cartesian   -0.01
    133 x          4.405902      4.405690    -0.000213    Cartesian   -0.00
    133 y         13.217707     13.210232    -0.007475    Cartesian   -0.06
    133 z          8.811805      8.807621    -0.004184    Cartesian   -0.05
    134 x          6.608853      6.608871     0.000017    Cartesian    0.00
    134 y         11.014756     11.013518    -0.001238    Cartesian   -0.01
    134 z         11.014756     11.013708    -0.001048    Cartesian   -0.01
    135 x          2.202951      2.202951     0.000000    Cartesian    0.00
    135 y         15.420658     15.421833     0.001175    Cartesian    0.01
    135 z          6.608853      6.604754    -0.004100    Cartesian   -0.06
    136 x          4.405902      4.404988    -0.000914    Cartesian   -0.02
    136 y          8.811805      8.808007    -0.003797    Cartesian   -0.04
    136 z         13.217707     13.207484    -0.010223    Cartesian   -0.08
    137 x          2.202951      2.202951     0.000000    Cartesian    0.00
    137 y          2.202951      2.202951     0.000000    Cartesian    0.00
    137 z         15.420658     15.423881     0.003223    Cartesian    0.02
    138 x          6.608853      6.607212    -0.001641    Cartesian   -0.02
    138 y         15.420658     15.417240    -0.003419    Cartesian   -0.02
    138 z          6.608853      6.607398    -0.001456    Cartesian   -0.02
    139 x          4.405902      4.403527    -0.002376    Cartesian   -0.05
    139 y         17.623609     17.608974    -0.014635    Cartesian   -0.08
    139 z          0.000000      0.000000     0.000000    Cartesian    0.00
    140 x          8.811805      8.806390    -0.005415    Cartesian   -0.06
    140 y         13.217707     13.207184    -0.010523    Cartesian   -0.08
    140 z          8.811805      8.804281    -0.007523    Cartesian   -0.09
    141 x         13.217707     13.207951    -0.009756    Cartesian   -0.07
    141 y         13.217707     13.207951    -0.009756    Cartesian   -0.07
    141 z          0.000000      0.000000     0.000000    Cartesian    0.00
--------------------------------------------------------------------------------


  Time to end of optimisation  =       31.4397 seconds


  Peak dynamic memory used =     319.74 MB 


  Timing analysis for GULP :

--------------------------------------------------------------------------------
  Task / Subroutine                                          Time (Seconds)
--------------------------------------------------------------------------------
  Calculation of reciprocal space energy and derivatives          0.0004
  Calculation of reciprocal space energy using symmetry           0.0006
  Calculation of real space energy and derivatives                0.0021
  Calculation of real space energy using symmetry                 0.0065
  Calculation for region 1 energy and derivatives (2-b)          18.5652
  Calculation for region 2a energy                               11.8489
  Calculation for region 2b energy                                0.0004
  Calculation and manipulation of Hessian matrix                  0.6400
  Calculation of matrix inversion                                 0.0291
  Symmetry generation of equivalent positions                     0.0026
--------------------------------------------------------------------------------
  Total CPU time                                                 31.4398
--------------------------------------------------------------------------------


  Dump file written as Na3OCl.grs


  Job Finished at 13:20.12  2nd February   2021                               

