 # Na10097 Mg27 Cl3375 O3375
 
       16874  atoms
           4  atom types
 
      0.000000000000      67.515000000000  xlo xhi
      0.000000000000      67.515000000000  ylo yhi
      0.000000000000      67.515000000000  zlo zhi
 
Masses
 
            1   24.30500000             # Mg
            2   22.98976928             # Na
            3   15.99900000             # O
            4   35.45000000             # Cl
 
Atoms # charge
 
         1    1   2.000000        2.250499774950       2.250499774950       0.000000000000
         2    1   2.000000        2.250499774950       2.250499774950      22.504999774950
         3    1   2.000000        2.250499774950       2.250499774950      45.010000225050
         4    1   2.000000        2.250499774950      24.755500225050       0.000000000000
         5    1   2.000000        2.250499774950      24.755500225050      22.504999774950
         6    1   2.000000        2.250499774950      24.755500225050      45.010000225050
         7    1   2.000000        2.250499774950      47.260500000000       0.000000000000
         8    1   2.000000        2.250499774950      47.260500000000      22.504999774950
         9    1   2.000000        2.250499774950      47.260500000000      45.010000225050
        10    1   2.000000       24.755500225050       2.250499774950       0.000000000000
        11    1   2.000000       24.755500225050       2.250499774950      22.504999774950
        12    1   2.000000       24.755500225050       2.250499774950      45.010000225050
        13    1   2.000000       24.755500225050      24.755500225050       0.000000000000
        14    1   2.000000       24.755500225050      24.755500225050      22.504999774950
        15    1   2.000000       24.755500225050      24.755500225050      45.010000225050
        16    1   2.000000       24.755500225050      47.260500000000       0.000000000000
        17    1   2.000000       24.755500225050      47.260500000000      22.504999774950
        18    1   2.000000       24.755500225050      47.260500000000      45.010000225050
        19    1   2.000000       47.260500000000       2.250499774950       0.000000000000
        20    1   2.000000       47.260500000000       2.250499774950      22.504999774950
        21    1   2.000000       47.260500000000       2.250499774950      45.010000225050
        22    1   2.000000       47.260500000000      24.755500225050       0.000000000000
        23    1   2.000000       47.260500000000      24.755500225050      22.504999774950
        24    1   2.000000       47.260500000000      24.755500225050      45.010000225050
        25    1   2.000000       47.260500000000      47.260500000000       0.000000000000
        26    1   2.000000       47.260500000000      47.260500000000      22.504999774950
        27    1   2.000000       47.260500000000      47.260500000000      45.010000225050
        28    2   1.000000        2.250499774950       2.250499774950       4.501000225050
        29    2   1.000000        2.250499774950       2.250499774950      27.006000000000
        30    2   1.000000        2.250499774950       2.250499774950      49.510999774950
        31    2   1.000000        2.250499774950      24.755500225050       4.501000225050
        32    2   1.000000        2.250499774950      24.755500225050      27.006000000000
        33    2   1.000000        2.250499774950      24.755500225050      49.510999774950
        34    2   1.000000        2.250499774950      47.260500000000       4.501000225050
        35    2   1.000000        2.250499774950      47.260500000000      27.006000000000
        36    2   1.000000        2.250499774950      47.260500000000      49.510999774950
        37    2   1.000000       24.755500225050       2.250499774950       4.501000225050
        38    2   1.000000       24.755500225050       2.250499774950      27.006000000000
        39    2   1.000000       24.755500225050       2.250499774950      49.510999774950
        40    2   1.000000       24.755500225050      24.755500225050       4.501000225050
        41    2   1.000000       24.755500225050      24.755500225050      27.006000000000
        42    2   1.000000       24.755500225050      24.755500225050      49.510999774950
        43    2   1.000000       24.755500225050      47.260500000000       4.501000225050
        44    2   1.000000       24.755500225050      47.260500000000      27.006000000000
        45    2   1.000000       24.755500225050      47.260500000000      49.510999774950
        46    2   1.000000       47.260500000000       2.250499774950       4.501000225050
        47    2   1.000000       47.260500000000       2.250499774950      27.006000000000
        48    2   1.000000       47.260500000000       2.250499774950      49.510999774950
        49    2   1.000000       47.260500000000      24.755500225050       4.501000225050
        50    2   1.000000       47.260500000000      24.755500225050      27.006000000000
        51    2   1.000000       47.260500000000      24.755500225050      49.510999774950
        52    2   1.000000       47.260500000000      47.260500000000       4.501000225050
        53    2   1.000000       47.260500000000      47.260500000000      27.006000000000
        54    2   1.000000       47.260500000000      47.260500000000      49.510999774950
        55    2   1.000000        2.250499774950       2.250499774950       9.001999774950
        56    2   1.000000        2.250499774950       2.250499774950      31.507000225050
        57    2   1.000000        2.250499774950       2.250499774950      54.012000000000
        58    2   1.000000        2.250499774950      24.755500225050       9.001999774950
        59    2   1.000000        2.250499774950      24.755500225050      31.507000225050
        60    2   1.000000        2.250499774950      24.755500225050      54.012000000000
        61    2   1.000000        2.250499774950      47.260500000000       9.001999774950
        62    2   1.000000        2.250499774950      47.260500000000      31.507000225050
        63    2   1.000000        2.250499774950      47.260500000000      54.012000000000
        64    2   1.000000       24.755500225050       2.250499774950       9.001999774950
        65    2   1.000000       24.755500225050       2.250499774950      31.507000225050
        66    2   1.000000       24.755500225050       2.250499774950      54.012000000000
        67    2   1.000000       24.755500225050      24.755500225050       9.001999774950
        68    2   1.000000       24.755500225050      24.755500225050      31.507000225050
        69    2   1.000000       24.755500225050      24.755500225050      54.012000000000
        70    2   1.000000       24.755500225050      47.260500000000       9.001999774950
        71    2   1.000000       24.755500225050      47.260500000000      31.507000225050
        72    2   1.000000       24.755500225050      47.260500000000      54.012000000000
        73    2   1.000000       47.260500000000       2.250499774950       9.001999774950
        74    2   1.000000       47.260500000000       2.250499774950      31.507000225050
        75    2   1.000000       47.260500000000       2.250499774950      54.012000000000
        76    2   1.000000       47.260500000000      24.755500225050       9.001999774950
        77    2   1.000000       47.260500000000      24.755500225050      31.507000225050
        78    2   1.000000       47.260500000000      24.755500225050      54.012000000000
        79    2   1.000000       47.260500000000      47.260500000000       9.001999774950
        80    2   1.000000       47.260500000000      47.260500000000      31.507000225050
        81    2   1.000000       47.260500000000      47.260500000000      54.012000000000
        82    2   1.000000        2.250499774950       2.250499774950      13.503000000000
        83    2   1.000000        2.250499774950       2.250499774950      36.007999774950
        84    2   1.000000        2.250499774950       2.250499774950      58.513000225050
        85    2   1.000000        2.250499774950      24.755500225050      13.503000000000
        86    2   1.000000        2.250499774950      24.755500225050      36.007999774950
        87    2   1.000000        2.250499774950      24.755500225050      58.513000225050
        88    2   1.000000        2.250499774950      47.260500000000      13.503000000000
        89    2   1.000000        2.250499774950      47.260500000000      36.007999774950
        90    2   1.000000        2.250499774950      47.260500000000      58.513000225050
        91    2   1.000000       24.755500225050       2.250499774950      13.503000000000
        92    2   1.000000       24.755500225050       2.250499774950      36.007999774950
        93    2   1.000000       24.755500225050       2.250499774950      58.513000225050
        94    2   1.000000       24.755500225050      24.755500225050      13.503000000000
        95    2   1.000000       24.755500225050      24.755500225050      36.007999774950
        96    2   1.000000       24.755500225050      24.755500225050      58.513000225050
        97    2   1.000000       24.755500225050      47.260500000000      13.503000000000
        98    2   1.000000       24.755500225050      47.260500000000      36.007999774950
        99    2   1.000000       24.755500225050      47.260500000000      58.513000225050
       100    2   1.000000       47.260500000000       2.250499774950      13.503000000000
       101    2   1.000000       47.260500000000       2.250499774950      36.007999774950
       102    2   1.000000       47.260500000000       2.250499774950      58.513000225050
       103    2   1.000000       47.260500000000      24.755500225050      13.503000000000
       104    2   1.000000       47.260500000000      24.755500225050      36.007999774950
       105    2   1.000000       47.260500000000      24.755500225050      58.513000225050
       106    2   1.000000       47.260500000000      47.260500000000      13.503000000000
       107    2   1.000000       47.260500000000      47.260500000000      36.007999774950
       108    2   1.000000       47.260500000000      47.260500000000      58.513000225050
       109    2   1.000000        2.250499774950       2.250499774950      18.004000225050
       110    2   1.000000        2.250499774950       2.250499774950      40.509000000000
       111    2   1.000000        2.250499774950       2.250499774950      63.013999774950
       112    2   1.000000        2.250499774950      24.755500225050      18.004000225050
       113    2   1.000000        2.250499774950      24.755500225050      40.509000000000
       114    2   1.000000        2.250499774950      24.755500225050      63.013999774950
       115    2   1.000000        2.250499774950      47.260500000000      18.004000225050
       116    2   1.000000        2.250499774950      47.260500000000      40.509000000000
       117    2   1.000000        2.250499774950      47.260500000000      63.013999774950
       118    2   1.000000       24.755500225050       2.250499774950      18.004000225050
       119    2   1.000000       24.755500225050       2.250499774950      40.509000000000
       120    2   1.000000       24.755500225050       2.250499774950      63.013999774950
       121    2   1.000000       24.755500225050      24.755500225050      18.004000225050
       122    2   1.000000       24.755500225050      24.755500225050      40.509000000000
       123    2   1.000000       24.755500225050      24.755500225050      63.013999774950
       124    2   1.000000       24.755500225050      47.260500000000      18.004000225050
       125    2   1.000000       24.755500225050      47.260500000000      40.509000000000
       126    2   1.000000       24.755500225050      47.260500000000      63.013999774950
       127    2   1.000000       47.260500000000       2.250499774950      18.004000225050
       128    2   1.000000       47.260500000000       2.250499774950      40.509000000000
       129    2   1.000000       47.260500000000       2.250499774950      63.013999774950
       130    2   1.000000       47.260500000000      24.755500225050      18.004000225050
       131    2   1.000000       47.260500000000      24.755500225050      40.509000000000
       132    2   1.000000       47.260500000000      24.755500225050      63.013999774950
       133    2   1.000000       47.260500000000      47.260500000000      18.004000225050
       134    2   1.000000       47.260500000000      47.260500000000      40.509000000000
       135    2   1.000000       47.260500000000      47.260500000000      63.013999774950
       136    2   1.000000        2.250499774950       6.751500000000       0.000000000000
       137    2   1.000000        2.250499774950       6.751500000000      22.504999774950
       138    2   1.000000        2.250499774950       6.751500000000      45.010000225050
       139    2   1.000000        2.250499774950      29.256499774950       0.000000000000
       140    2   1.000000        2.250499774950      29.256499774950      22.504999774950
       141    2   1.000000        2.250499774950      29.256499774950      45.010000225050
       142    2   1.000000        2.250499774950      51.761500225050       0.000000000000
       143    2   1.000000        2.250499774950      51.761500225050      22.504999774950
       144    2   1.000000        2.250499774950      51.761500225050      45.010000225050
       145    2   1.000000       24.755500225050       6.751500000000       0.000000000000
       146    2   1.000000       24.755500225050       6.751500000000      22.504999774950
       147    2   1.000000       24.755500225050       6.751500000000      45.010000225050
       148    2   1.000000       24.755500225050      29.256499774950       0.000000000000
       149    2   1.000000       24.755500225050      29.256499774950      22.504999774950
       150    2   1.000000       24.755500225050      29.256499774950      45.010000225050
       151    2   1.000000       24.755500225050      51.761500225050       0.000000000000
       152    2   1.000000       24.755500225050      51.761500225050      22.504999774950
       153    2   1.000000       24.755500225050      51.761500225050      45.010000225050
       154    2   1.000000       47.260500000000       6.751500000000       0.000000000000
       155    2   1.000000       47.260500000000       6.751500000000      22.504999774950
       156    2   1.000000       47.260500000000       6.751500000000      45.010000225050
       157    2   1.000000       47.260500000000      29.256499774950       0.000000000000
       158    2   1.000000       47.260500000000      29.256499774950      22.504999774950
       159    2   1.000000       47.260500000000      29.256499774950      45.010000225050
       160    2   1.000000       47.260500000000      51.761500225050       0.000000000000
       161    2   1.000000       47.260500000000      51.761500225050      22.504999774950
       162    2   1.000000       47.260500000000      51.761500225050      45.010000225050
       163    2   1.000000        2.250499774950       6.751500000000       4.501000225050
       164    2   1.000000        2.250499774950       6.751500000000      27.006000000000
       165    2   1.000000        2.250499774950       6.751500000000      49.510999774950
       166    2   1.000000        2.250499774950      29.256499774950       4.501000225050
       167    2   1.000000        2.250499774950      29.256499774950      27.006000000000
       168    2   1.000000        2.250499774950      29.256499774950      49.510999774950
       169    2   1.000000        2.250499774950      51.761500225050       4.501000225050
       170    2   1.000000        2.250499774950      51.761500225050      27.006000000000
       171    2   1.000000        2.250499774950      51.761500225050      49.510999774950
       172    2   1.000000       24.755500225050       6.751500000000       4.501000225050
       173    2   1.000000       24.755500225050       6.751500000000      27.006000000000
       174    2   1.000000       24.755500225050       6.751500000000      49.510999774950
       175    2   1.000000       24.755500225050      29.256499774950       4.501000225050
       176    2   1.000000       24.755500225050      29.256499774950      27.006000000000
       177    2   1.000000       24.755500225050      29.256499774950      49.510999774950
       178    2   1.000000       24.755500225050      51.761500225050       4.501000225050
       179    2   1.000000       24.755500225050      51.761500225050      27.006000000000
       180    2   1.000000       24.755500225050      51.761500225050      49.510999774950
       181    2   1.000000       47.260500000000       6.751500000000       4.501000225050
       182    2   1.000000       47.260500000000       6.751500000000      27.006000000000
       183    2   1.000000       47.260500000000       6.751500000000      49.510999774950
       184    2   1.000000       47.260500000000      29.256499774950       4.501000225050
       185    2   1.000000       47.260500000000      29.256499774950      27.006000000000
       186    2   1.000000       47.260500000000      29.256499774950      49.510999774950
       187    2   1.000000       47.260500000000      51.761500225050       4.501000225050
       188    2   1.000000       47.260500000000      51.761500225050      27.006000000000
       189    2   1.000000       47.260500000000      51.761500225050      49.510999774950
       190    2   1.000000        2.250499774950       6.751500000000       9.001999774950
       191    2   1.000000        2.250499774950       6.751500000000      31.507000225050
       192    2   1.000000        2.250499774950       6.751500000000      54.012000000000
       193    2   1.000000        2.250499774950      29.256499774950       9.001999774950
       194    2   1.000000        2.250499774950      29.256499774950      31.507000225050
       195    2   1.000000        2.250499774950      29.256499774950      54.012000000000
       196    2   1.000000        2.250499774950      51.761500225050       9.001999774950
       197    2   1.000000        2.250499774950      51.761500225050      31.507000225050
       198    2   1.000000        2.250499774950      51.761500225050      54.012000000000
       199    2   1.000000       24.755500225050       6.751500000000       9.001999774950
       200    2   1.000000       24.755500225050       6.751500000000      31.507000225050
       201    2   1.000000       24.755500225050       6.751500000000      54.012000000000
       202    2   1.000000       24.755500225050      29.256499774950       9.001999774950
       203    2   1.000000       24.755500225050      29.256499774950      31.507000225050
       204    2   1.000000       24.755500225050      29.256499774950      54.012000000000
       205    2   1.000000       24.755500225050      51.761500225050       9.001999774950
       206    2   1.000000       24.755500225050      51.761500225050      31.507000225050
       207    2   1.000000       24.755500225050      51.761500225050      54.012000000000
       208    2   1.000000       47.260500000000       6.751500000000       9.001999774950
       209    2   1.000000       47.260500000000       6.751500000000      31.507000225050
       210    2   1.000000       47.260500000000       6.751500000000      54.012000000000
       211    2   1.000000       47.260500000000      29.256499774950       9.001999774950
       212    2   1.000000       47.260500000000      29.256499774950      31.507000225050
       213    2   1.000000       47.260500000000      29.256499774950      54.012000000000
       214    2   1.000000       47.260500000000      51.761500225050       9.001999774950
       215    2   1.000000       47.260500000000      51.761500225050      31.507000225050
       216    2   1.000000       47.260500000000      51.761500225050      54.012000000000
       217    2   1.000000        2.250499774950       6.751500000000      13.503000000000
       218    2   1.000000        2.250499774950       6.751500000000      36.007999774950
       219    2   1.000000        2.250499774950       6.751500000000      58.513000225050
       220    2   1.000000        2.250499774950      29.256499774950      13.503000000000
       221    2   1.000000        2.250499774950      29.256499774950      36.007999774950
       222    2   1.000000        2.250499774950      29.256499774950      58.513000225050
       223    2   1.000000        2.250499774950      51.761500225050      13.503000000000
       224    2   1.000000        2.250499774950      51.761500225050      36.007999774950
       225    2   1.000000        2.250499774950      51.761500225050      58.513000225050
       226    2   1.000000       24.755500225050       6.751500000000      13.503000000000
       227    2   1.000000       24.755500225050       6.751500000000      36.007999774950
       228    2   1.000000       24.755500225050       6.751500000000      58.513000225050
       229    2   1.000000       24.755500225050      29.256499774950      13.503000000000
       230    2   1.000000       24.755500225050      29.256499774950      36.007999774950
       231    2   1.000000       24.755500225050      29.256499774950      58.513000225050
       232    2   1.000000       24.755500225050      51.761500225050      13.503000000000
       233    2   1.000000       24.755500225050      51.761500225050      36.007999774950
       234    2   1.000000       24.755500225050      51.761500225050      58.513000225050
       235    2   1.000000       47.260500000000       6.751500000000      13.503000000000
       236    2   1.000000       47.260500000000       6.751500000000      36.007999774950
       237    2   1.000000       47.260500000000       6.751500000000      58.513000225050
       238    2   1.000000       47.260500000000      29.256499774950      13.503000000000
       239    2   1.000000       47.260500000000      29.256499774950      36.007999774950
       240    2   1.000000       47.260500000000      29.256499774950      58.513000225050
       241    2   1.000000       47.260500000000      51.761500225050      13.503000000000
       242    2   1.000000       47.260500000000      51.761500225050      36.007999774950
       243    2   1.000000       47.260500000000      51.761500225050      58.513000225050
       244    2   1.000000        2.250499774950       6.751500000000      18.004000225050
       245    2   1.000000        2.250499774950       6.751500000000      40.509000000000
       246    2   1.000000        2.250499774950       6.751500000000      63.013999774950
       247    2   1.000000        2.250499774950      29.256499774950      18.004000225050
       248    2   1.000000        2.250499774950      29.256499774950      40.509000000000
       249    2   1.000000        2.250499774950      29.256499774950      63.013999774950
       250    2   1.000000        2.250499774950      51.761500225050      18.004000225050
       251    2   1.000000        2.250499774950      51.761500225050      40.509000000000
       252    2   1.000000        2.250499774950      51.761500225050      63.013999774950
       253    2   1.000000       24.755500225050       6.751500000000      18.004000225050
       254    2   1.000000       24.755500225050       6.751500000000      40.509000000000
       255    2   1.000000       24.755500225050       6.751500000000      63.013999774950
       256    2   1.000000       24.755500225050      29.256499774950      18.004000225050
       257    2   1.000000       24.755500225050      29.256499774950      40.509000000000
       258    2   1.000000       24.755500225050      29.256499774950      63.013999774950
       259    2   1.000000       24.755500225050      51.761500225050      18.004000225050
       260    2   1.000000       24.755500225050      51.761500225050      40.509000000000
       261    2   1.000000       24.755500225050      51.761500225050      63.013999774950
       262    2   1.000000       47.260500000000       6.751500000000      18.004000225050
       263    2   1.000000       47.260500000000       6.751500000000      40.509000000000
       264    2   1.000000       47.260500000000       6.751500000000      63.013999774950
       265    2   1.000000       47.260500000000      29.256499774950      18.004000225050
       266    2   1.000000       47.260500000000      29.256499774950      40.509000000000
       267    2   1.000000       47.260500000000      29.256499774950      63.013999774950
       268    2   1.000000       47.260500000000      51.761500225050      18.004000225050
       269    2   1.000000       47.260500000000      51.761500225050      40.509000000000
       270    2   1.000000       47.260500000000      51.761500225050      63.013999774950
       271    2   1.000000        2.250499774950      11.252500225050       0.000000000000
       272    2   1.000000        2.250499774950      11.252500225050      22.504999774950
       273    2   1.000000        2.250499774950      11.252500225050      45.010000225050
       274    2   1.000000        2.250499774950      33.757500000000       0.000000000000
       275    2   1.000000        2.250499774950      33.757500000000      22.504999774950
       276    2   1.000000        2.250499774950      33.757500000000      45.010000225050
       277    2   1.000000        2.250499774950      56.262499774950       0.000000000000
       278    2   1.000000        2.250499774950      56.262499774950      22.504999774950
       279    2   1.000000        2.250499774950      56.262499774950      45.010000225050
       280    2   1.000000       24.755500225050      11.252500225050       0.000000000000
       281    2   1.000000       24.755500225050      11.252500225050      22.504999774950
       282    2   1.000000       24.755500225050      11.252500225050      45.010000225050
       283    2   1.000000       24.755500225050      33.757500000000       0.000000000000
       284    2   1.000000       24.755500225050      33.757500000000      22.504999774950
       285    2   1.000000       24.755500225050      33.757500000000      45.010000225050
       286    2   1.000000       24.755500225050      56.262499774950       0.000000000000
       287    2   1.000000       24.755500225050      56.262499774950      22.504999774950
       288    2   1.000000       24.755500225050      56.262499774950      45.010000225050
       289    2   1.000000       47.260500000000      11.252500225050       0.000000000000
       290    2   1.000000       47.260500000000      11.252500225050      22.504999774950
       291    2   1.000000       47.260500000000      11.252500225050      45.010000225050
       292    2   1.000000       47.260500000000      33.757500000000       0.000000000000
       293    2   1.000000       47.260500000000      33.757500000000      22.504999774950
       294    2   1.000000       47.260500000000      33.757500000000      45.010000225050
       295    2   1.000000       47.260500000000      56.262499774950       0.000000000000
       296    2   1.000000       47.260500000000      56.262499774950      22.504999774950
       297    2   1.000000       47.260500000000      56.262499774950      45.010000225050
       298    2   1.000000        2.250499774950      11.252500225050       4.501000225050
       299    2   1.000000        2.250499774950      11.252500225050      27.006000000000
       300    2   1.000000        2.250499774950      11.252500225050      49.510999774950
       301    2   1.000000        2.250499774950      33.757500000000       4.501000225050
       302    2   1.000000        2.250499774950      33.757500000000      27.006000000000
       303    2   1.000000        2.250499774950      33.757500000000      49.510999774950
       304    2   1.000000        2.250499774950      56.262499774950       4.501000225050
       305    2   1.000000        2.250499774950      56.262499774950      27.006000000000
       306    2   1.000000        2.250499774950      56.262499774950      49.510999774950
       307    2   1.000000       24.755500225050      11.252500225050       4.501000225050
       308    2   1.000000       24.755500225050      11.252500225050      27.006000000000
       309    2   1.000000       24.755500225050      11.252500225050      49.510999774950
       310    2   1.000000       24.755500225050      33.757500000000       4.501000225050
       311    2   1.000000       24.755500225050      33.757500000000      27.006000000000
       312    2   1.000000       24.755500225050      33.757500000000      49.510999774950
       313    2   1.000000       24.755500225050      56.262499774950       4.501000225050
       314    2   1.000000       24.755500225050      56.262499774950      27.006000000000
       315    2   1.000000       24.755500225050      56.262499774950      49.510999774950
       316    2   1.000000       47.260500000000      11.252500225050       4.501000225050
       317    2   1.000000       47.260500000000      11.252500225050      27.006000000000
       318    2   1.000000       47.260500000000      11.252500225050      49.510999774950
       319    2   1.000000       47.260500000000      33.757500000000       4.501000225050
       320    2   1.000000       47.260500000000      33.757500000000      27.006000000000
       321    2   1.000000       47.260500000000      33.757500000000      49.510999774950
       322    2   1.000000       47.260500000000      56.262499774950       4.501000225050
       323    2   1.000000       47.260500000000      56.262499774950      27.006000000000
       324    2   1.000000       47.260500000000      56.262499774950      49.510999774950