********************************************************************************
*                       GENERAL UTILITY LATTICE PROGRAM                        *
*                                 Julian Gale                                  *
*                       Curtin Institute for Computation                       *
*                    School of Molecular and Life Sciences                     *
*                    Curtin University, Western Australia                      *
********************************************************************************
* Version = 5.2.0 * Last modified =  10th September 2020                       *
********************************************************************************
*  optimise     - perform optimisation run                                     *
*  conp         - constant pressure calculation                                *
*  property     - calculate properties for final geometry                      *
*  defect       - perform defect calculation after bulk run                    *
*  compare      - compare initial and final structures                         *
********************************************************************************

  Job Started  at 16:16.28  8th January    2021                               

  Number of CPUs =     1


  Total number of configurations input =      1

********************************************************************************
*  Input for Configuration =   1                                               *
********************************************************************************

  Formula = ClONa3                                                      

  Number of irreducible atoms/shells =       5


  Total number atoms/shells =       7

  Dimensionality = 3               :  Bulk   


  Symmetry :

  Crystal family                   :  Cubic       
  Crystal class  (Groth - 1921)    :  Cubic Hexakisoctahedral              

  Space group (centrosymmetric)    :  P M 3 M         

  Patterson group                  :  P m -3 m 

  Cartesian lattice vectors (Angstroms) :

        4.504000    0.000000    0.000000
        0.000000    4.504000    0.000000
        0.000000    0.000000    4.504000

  Cell parameters (Angstroms/Degrees):

  a =       4.5040    alpha =  90.0000
  b =       4.5040    beta  =  90.0000
  c =       4.5040    gamma =  90.0000

  Initial cell volume =          91.368216 Angs**3

  Temperature of configuration =   0.00     K 

  Pressure of configuration =         0.000 GPa 

  Fractional coordinates of asymmetric unit :

--------------------------------------------------------------------------------
   No.  Atomic       x           y          z         Charge      Occupancy
        Label      (Frac)      (Frac)     (Frac)        (e)         (Frac)  
--------------------------------------------------------------------------------
      1 Cl    c    0.000000    0.000000    0.000000     1.48500    1.000000    
      2 O     c    0.500000    0.500000    0.500000     0.18300    1.000000    
      3 Na    c    0.500000    0.500000    0.000000     1.00000    1.000000    
      4 Cl    s    0.000000    0.000000    0.000000    -2.48500    1.000000    
      5 O     s    0.500000    0.500000    0.500000    -2.18300    1.000000    
--------------------------------------------------------------------------------


  Constraints : 

--------------------------------------------------------------------------------
  Constraint no.      Unconstrained     Constrained    Coefficient    Offset
                         Variable         Variable
--------------------------------------------------------------------------------
           1              Strain 1        Strain 2       1.00000      0.0000
           2              Strain 1        Strain 3       1.00000      0.0000
--------------------------------------------------------------------------------


********************************************************************************
*  General input information                                                   *
********************************************************************************

  Species output for all configurations : 

--------------------------------------------------------------------------------
  Species    Type    Atomic    Atomic    Charge       Radii (Angs)     Library
                     Number     Mass       (e)     Cova   Ionic  VDW   Symbol
--------------------------------------------------------------------------------
    Na       Core       11      22.99   1.000000   0.970  0.000  2.300          
    O        Core        8      16.00   0.183000   0.730  0.000  1.360          
    O        Shell       8       0.00  -2.183000   0.730  0.000  1.360          
    Cl       Core       17      35.45   1.485000   0.990  0.000  1.650          
    Cl       Shell      17       0.00  -2.485000   0.990  0.000  1.650          
    Mg       Core       12      24.31   0.415000   1.100  0.000  0.000          
    Mg       Shell      12       0.00   1.585000   1.100  0.000  0.000          
    Ca       Core       20      40.08  -1.135000   0.990  0.000  0.000          
    Ca       Shell      20       0.00   3.135000   0.990  0.000  0.000          
    Sr       Core       38      87.62  -1.251000   1.120  0.000  0.000          
    Sr       Shell      38       0.00   3.251000   1.120  0.000  0.000          
    Ba       Core       56     137.33  -7.203000   1.340  0.000  0.000          
    Ba       Shell      56       0.00   9.203000   1.340  0.000  0.000          
--------------------------------------------------------------------------------


  Lattice summation method               =    Ewald          (3-D)
                                         =    Parry          (2-D)
                                         =    Saunders et al (1-D)
  Accuracy factor for lattice sums       =   12.000


  Analytic derivatives to be used

  Time limit = Infinity

  Maximum range for interatomic potentials =    100000.000000 Angstroms

  General interatomic potentials :

--------------------------------------------------------------------------------
Atom  Types   Potential      Parameter       Value         Units   Cutoffs(Ang)
  1     2                                                            Min /  Max 
--------------------------------------------------------------------------------
O    c O    s Spring (c-s)  Spring k 2       593.71600    eV*Ang^-2 0.000  0.800
                            Spring k 4       0.0000000    eV*Ang^-4 
--------------------------------------------------------------------------------
Cl   c Cl   s Spring (c-s)  Spring k 2       29.380000    eV*Ang^-2 0.000  0.800
                            Spring k 4       0.0000000    eV*Ang^-4 
--------------------------------------------------------------------------------
Mg   c Mg   s Spring (c-s)  Spring k 2       361.60000    eV*Ang^-2 0.000  0.800
                            Spring k 4       0.0000000    eV*Ang^-4 
--------------------------------------------------------------------------------
Ca   c Ca   s Spring (c-s)  Spring k 2       110.20000    eV*Ang^-2 0.000  0.800
                            Spring k 4       0.0000000    eV*Ang^-4 
--------------------------------------------------------------------------------
Sr   c Sr   s Spring (c-s)  Spring k 2       71.700000    eV*Ang^-2 0.000  0.800
                            Spring k 4       0.0000000    eV*Ang^-4 
--------------------------------------------------------------------------------
Ba   c Ba   s Spring (c-s)  Spring k 2       495.20000    eV*Ang^-2 0.000  0.800
                            Spring k 4       0.0000000    eV*Ang^-4 
--------------------------------------------------------------------------------
Na   c Na   c Buckingham    Buckingham A     1788.1900    eV        0.000 12.000
                            Buckingham rho  0.15900000    Ang       
                            Buckingham C     0.0000000    eV*Ang^6  
--------------------------------------------------------------------------------
Na   c O    s Buckingham    Buckingham A     588.38000    eV        0.000 12.000
                            Buckingham rho  0.33800000    Ang       
                            Buckingham C     0.0000000    eV*Ang^6  
--------------------------------------------------------------------------------
Na   c Cl   s Buckingham    Buckingham A     1170.4100    eV        0.000 12.000
                            Buckingham rho  0.31500000    Ang       
                            Buckingham C     0.0000000    eV*Ang^6  
--------------------------------------------------------------------------------
O    s O    s Buckingham    Buckingham A     22764.300    eV        0.000 12.000
                            Buckingham rho  0.14900000    Ang       
                            Buckingham C     13.190000    eV*Ang^6  
--------------------------------------------------------------------------------
O    s Cl   s Buckingham    Buckingham A     8286.9100    eV        0.000 12.000
                            Buckingham rho  0.25900000    Ang       
                            Buckingham C     62.200000    eV*Ang^6  
--------------------------------------------------------------------------------
Cl   s Cl   s Buckingham    Buckingham A     1227.2000    eV        0.000 12.000
                            Buckingham rho  0.32100000    Ang       
                            Buckingham C     14.530000    eV*Ang^6  
--------------------------------------------------------------------------------
O    s Mg   s Buckingham    Buckingham A     1428.5000    eV        0.000 12.000
                            Buckingham rho  0.29450000    Ang       
                            Buckingham C     0.0000000    eV*Ang^6  
--------------------------------------------------------------------------------
Mg   s Cl   s Buckingham    Buckingham A     4914.5400    eV        0.000 12.000
                            Buckingham rho  0.25700000    Ang       
                            Buckingham C     0.0000000    eV*Ang^6  
--------------------------------------------------------------------------------
O    s Ca   s Buckingham    Buckingham A     1090.4000    eV        0.000 12.000
                            Buckingham rho  0.34370000    Ang       
                            Buckingham C     0.0000000    eV*Ang^6  
--------------------------------------------------------------------------------
Cl   s Ca   s Buckingham    Buckingham A     2302.0000    eV        0.000 12.000
                            Buckingham rho  0.34020000    Ang       
                            Buckingham C     0.0000000    eV*Ang^6  
--------------------------------------------------------------------------------
O    s Sr   s Buckingham    Buckingham A     959.10000    eV        0.000 12.000
                            Buckingham rho  0.37210000    Ang       
                            Buckingham C     0.0000000    eV*Ang^6  
--------------------------------------------------------------------------------
Cl   s Sr   s Buckingham    Buckingham A     2191.0900    eV        0.000 12.000
                            Buckingham rho  0.34570000    Ang       
                            Buckingham C     0.0000000    eV*Ang^6  
--------------------------------------------------------------------------------
O    s Ba   s Buckingham    Buckingham A     905.70000    eV        0.000 12.000
                            Buckingham rho  0.39760000    Ang       
                            Buckingham C     0.0000000    eV*Ang^6  
--------------------------------------------------------------------------------
Cl   s Ba   s Buckingham    Buckingham A     2704.5500    eV        0.000 12.000
                            Buckingham rho  0.35280000    Ang       
                            Buckingham C     0.0000000    eV*Ang^6  
--------------------------------------------------------------------------------

********************************************************************************
*  Output for configuration   1                                                *
********************************************************************************


  Components of energy : 

--------------------------------------------------------------------------------
  Interatomic potentials     =           4.94315381 eV    
  Monopole - monopole (real) =         -10.03624526 eV    
  Monopole - monopole (recip)=         -29.53581274 eV    
  Monopole - monopole (total)=         -39.57205800 eV    
--------------------------------------------------------------------------------
  Total lattice energy       =         -34.62890419 eV    
--------------------------------------------------------------------------------
  Total lattice energy       =           -3341.1599 kJ/(mole unit cells)
--------------------------------------------------------------------------------


  Number of variables =        1

  Maximum number of calculations  =          1000
  Maximum Hessian update interval =            10
  Maximum step size               =   1.000000000
  Maximum parameter tolerance     =   0.000010000
  Maximum function  tolerance     =   0.000010000
  Maximum gradient  tolerance     =   0.001000000
  Maximum gradient  component     =   0.010000000

  Symmetry constrained optimisation

  Symmetry used for second derivatives

  Cell parameters to be optimised using strains

  Newton-Raphson optimiser to be used

  BFGS hessian update to be used

  Lower half triangular hessian to be used

  Start of bulk optimisation :

  Cycle:      0 Energy:       -34.628904  Gnorm:      4.328237  CPU:    0.012
  ** Hessian calculated **
  Cycle:      1 Energy:       -34.677667  Gnorm:      0.044008  CPU:    0.014
  Cycle:      2 Energy:       -34.677671  Gnorm:      0.003653  CPU:    0.016


  **** Optimisation achieved ****


  Final energy =     -34.67767136 eV
  Final Gnorm  =       0.00000010

  Components of energy : 

--------------------------------------------------------------------------------
  Interatomic potentials     =           5.77546103 eV    
  Monopole - monopole (real) =         -10.25970290 eV    
  Monopole - monopole (recip)=         -30.19342950 eV    
  Monopole - monopole (total)=         -40.45313239 eV    
--------------------------------------------------------------------------------
  Total lattice energy       =         -34.67767136 eV    
--------------------------------------------------------------------------------
  Total lattice energy       =           -3345.8652 kJ/(mole unit cells)
--------------------------------------------------------------------------------

  Final asymmetric unit coordinates :

--------------------------------------------------------------------------------
   No.  Atomic        x           y           z         Radius
        Label       (Frac)      (Frac)      (Frac)       (Angs) 
--------------------------------------------------------------------------------
     1  Cl    c     0.000000    0.000000    0.000000    0.000000
     2  O     c     0.500000    0.500000    0.500000    0.000000
     3  Na    c     0.500000    0.500000    0.000000    0.000000
     4  Cl    s     0.000000    0.000000    0.000000    0.000000
     5  O     s     0.500000    0.500000    0.500000    0.000000
--------------------------------------------------------------------------------

  Final Cartesian lattice vectors (Angstroms) :

        4.405902    0.000000    0.000000
        0.000000    4.405902    0.000000
        0.000000    0.000000    4.405902


  Final cell parameters and derivatives :

--------------------------------------------------------------------------------
       a            4.405902 Angstrom     dE/de1(xx)     0.000000 eV/strain
       b            4.405902 Angstrom     dE/de2(yy)     0.000000 eV/strain
       c            4.405902 Angstrom     dE/de3(zz)     0.000000 eV/strain
       alpha       90.000000 Degrees      dE/de4(yz)     0.000000 eV/strain
       beta        90.000000 Degrees      dE/de5(xz)     0.000000 eV/strain
       gamma       90.000000 Degrees      dE/de6(xy)     0.000000 eV/strain
--------------------------------------------------------------------------------

  Primitive cell volume =            85.527266 Angs**3

  Density of cell =      2.338030 g/cm**3

  Non-primitive cell volume =            85.527266 Angs**3


  Final internal derivatives :

--------------------------------------------------------------------------------
   No.  Atomic          a             b             c           Radius
        Label          (eV)          (eV)          (eV)        (eV/Angs)
--------------------------------------------------------------------------------
      1 Cl    c       0.000000      0.000000      0.000000      0.000000
      2 O     c       0.000000      0.000000      0.000000      0.000000
      3 Na    c       0.000000      0.000000      0.000000      0.000000
      4 Cl    s       0.000000      0.000000      0.000000      0.000000
      5 O     s       0.000000      0.000000      0.000000      0.000000
--------------------------------------------------------------------------------
  Maximum abs         0.000000      0.000000      0.000000      0.000000
--------------------------------------------------------------------------------

  Comparison of initial and final structures : 

--------------------------------------------------------------------------------
  Parameter   Initial value   Final value   Difference    Units      Percent
--------------------------------------------------------------------------------
    Volume        91.368216     85.527266    -5.840950    Angs**3     -6.39
    a              4.504000      4.405902    -0.098098    Angstroms   -2.18
    b              4.504000      4.405902    -0.098098    Angstroms   -2.18
    c              4.504000      4.405902    -0.098098    Angstroms   -2.18
    alpha         90.000000     90.000000     0.000000    Degrees      0.00
    beta          90.000000     90.000000     0.000000    Degrees      0.00
    gamma         90.000000     90.000000     0.000000    Degrees      0.00
      1 x          0.000000      0.000000     0.000000    Fractional   0.00
      1 y          0.000000      0.000000     0.000000    Fractional   0.00
      1 z          0.000000      0.000000     0.000000    Fractional   0.00
      2 x          0.500000      0.500000     0.000000    Fractional   0.00
      2 y          0.500000      0.500000     0.000000    Fractional   0.00
      2 z          0.500000      0.500000     0.000000    Fractional   0.00
      3 x          0.500000      0.500000     0.000000    Fractional   0.00
      3 y          0.500000      0.500000     0.000000    Fractional   0.00
      3 z          0.000000      0.000000     0.000000    Fractional   0.00
      4 x          0.000000      0.000000     0.000000    Fractional   0.00
      4 y          0.000000      0.000000     0.000000    Fractional   0.00
      4 z          0.000000      0.000000     0.000000    Fractional   0.00
      5 x          0.500000      0.500000     0.000000    Fractional   0.00
      5 y          0.500000      0.500000     0.000000    Fractional   0.00
      5 z          0.500000      0.500000     0.000000    Fractional   0.00
--------------------------------------------------------------------------------


  Born effective charge tensors : 

-------------------------------------------------------------------------------
  Atom             x           y             z
-------------------------------------------------------------------------------
    1 Cl    x      -0.9918     -0.0000     -0.0000
            y      -0.0000     -0.9918     -0.0000
            z      -0.0000     -0.0000     -0.9918
-------------------------------------------------------------------------------
    2 O     x      -2.2939      0.0000      0.0000
            y       0.0000     -2.2939      0.0000
            z       0.0000      0.0000     -2.2939
-------------------------------------------------------------------------------
    3 Na    x       1.2243      0.0000      0.0000
            y       0.0000      1.2243     -0.0000
            z       0.0000      0.0000      0.8372
-------------------------------------------------------------------------------




  Elastic Constant Matrix: (Units=GPa)

-------------------------------------------------------------------------------
  Indices      1         2         3         4         5         6    
-------------------------------------------------------------------------------
       1     82.7680   24.3534   24.3534   -0.0000    0.0000   -0.0000
       2     24.3534   82.7680   24.3534    0.0000   -0.0000   -0.0000
       3     24.3534   24.3534   82.7680    0.0000   -0.0000    0.0000
       4     -0.0000    0.0000    0.0000   24.3534   -0.0000    0.0000
       5      0.0000   -0.0000   -0.0000   -0.0000   24.3534    0.0000
       6     -0.0000   -0.0000    0.0000    0.0000    0.0000   24.3534
-------------------------------------------------------------------------------


  Elastic Compliance Matrix: (Units=1/GPa)

-------------------------------------------------------------------------------
  Indices      1         2         3         4         5         6    
-------------------------------------------------------------------------------
       1    0.013948 -0.003171 -0.003171  0.000000 -0.000000  0.000000
       2   -0.003171  0.013948 -0.003171 -0.000000  0.000000 -0.000000
       3   -0.003171 -0.003171  0.013948 -0.000000  0.000000 -0.000000
       4    0.000000 -0.000000 -0.000000  0.041062  0.000000 -0.000000
       5   -0.000000  0.000000  0.000000  0.000000  0.041062 -0.000000
       6    0.000000 -0.000000 -0.000000 -0.000000 -0.000000  0.041062
-------------------------------------------------------------------------------

  Mechanical properties :

-------------------------------------------------------------------------------
  Convention :                    Reuss         Voigt         Hill
-------------------------------------------------------------------------------
  Bulk  Modulus (GPa)     =      43.82493      43.82493      43.82493
  Shear Modulus (GPa)     =      26.08758      26.29496      26.19127
-------------------------------------------------------------------------------
  Velocity S-wave (km/s)  =       3.34035       3.35360       3.34698
  Velocity P-wave (km/s)  =       5.79842       5.80861       5.80351
-------------------------------------------------------------------------------
  Compressibility (1/GPa) =    0.02281806
-------------------------------------------------------------------------------
  Stress axis :                     x             y             z
-------------------------------------------------------------------------------
  Youngs Moduli (GPa)     =      71.69479      71.69479      71.69479
-------------------------------------------------------------------------------
  Poissons Ratio (x)      =                     0.22734       0.22734
  Poissons Ratio (y)      =       0.22734                     0.22734
  Poissons Ratio (z)      =       0.22734       0.22734
-------------------------------------------------------------------------------


  Piezoelectric Strain Matrix: (Units=C/m**2)

-------------------------------------------------------------------------------
  Indices      1         2         3         4         5         6    
-------------------------------------------------------------------------------
       x    -0.00000  -0.00000  -0.00000  -0.00000   0.00000  -0.00000
       y     0.00000  -0.00000   0.00000   0.00000  -0.00000   0.00000
       z    -0.00000  -0.00000   0.00000  -0.00000   0.00000  -0.00000
-------------------------------------------------------------------------------


  Piezoelectric Stress Matrix: (Units=10**-11 C/N)

-------------------------------------------------------------------------------
  Indices      1         2         3         4         5         6    
-------------------------------------------------------------------------------
       x     0.00000  -0.00000  -0.00000  -0.00000   0.00000  -0.00000
       y     0.00000  -0.00000   0.00000   0.00000  -0.00000   0.00000
       z    -0.00000  -0.00000   0.00000  -0.00000   0.00000  -0.00000
-------------------------------------------------------------------------------


  Static dielectric constant tensor : 

-------------------------------------------------------------------------------
              x         y         z
-------------------------------------------------------------------------------
       x    11.08357   0.00000   0.00000
       y     0.00000  11.08357   0.00000
       z     0.00000   0.00000  11.08357
--------------------------------------------------------------------------------

  High frequency dielectric constant tensor : 

-------------------------------------------------------------------------------
              x         y         z
-------------------------------------------------------------------------------
       x     1.50771   0.00000   0.00000
       y     0.00000   1.50771   0.00000
       z     0.00000   0.00000   1.50771
-------------------------------------------------------------------------------

  Static refractive indices : 

-------------------------------------------------------------------------------
    1 =    3.32920      2 =    3.32920      3 =    3.32920
-------------------------------------------------------------------------------

  High frequency refractive indices : 

-------------------------------------------------------------------------------
    1 =    1.22789      2 =    1.22789      3 =    1.22789
-------------------------------------------------------------------------------


  Time to end of optimisation =       0.0210 seconds

********************************************************************************
*  Defect calculation for configuration   1 :                                  *
********************************************************************************

  Total number of defects =      3

  Total charge on defect  =   1.00

  Defect centre is at   2.2520   0.0000   0.0000  Angs

  Region 1 radius =  12.0000      Number of ions =    622

  Number of symmetry inequivalent region 1 ions  =    120

  Region 2 radius =  16.0000      Number of ions =    760

  Number of symmetry inequivalent region 2a ions =    123

  Region 2a mode = 4 : screened electrostatics due to region 1 
                       neglect correction to region 1 forces from 2a
                       region 2a displacements based on defects only

  Region 2a ions will only interact with defects in region 1

  Vacancies:

--------------------------------------------------------------------------------
    Specification type     Symbol/Number         x          y          z
--------------------------------------------------------------------------------
    Cartesian                                4.504000   0.000000   0.000000
    Cartesian                                0.000000   0.000000   0.000000
--------------------------------------------------------------------------------

  Interstitials:

--------------------------------------------------------------------------------
    Specification type     Symbol/Number         x          y          z
--------------------------------------------------------------------------------
    Atom/Cartesian          Cl               1.171040   0.000000   0.000000
--------------------------------------------------------------------------------


  Symmetry reduced region 1 (Relative to defect centre) :

--------------------------------------------------------------------------------
   No.   Atomic       x            y             z       Radius  Multiplicity   
         Label      (Angs)       (Angs)        (Angs)    (Angs)     
--------------------------------------------------------------------------------
     1  Cl    c     -1.0810       0.0000       0.0000    0.0000     1    Defect
     2  Na    c     -0.0490 *    -2.2030 *     0.0000    0.0000     4          
     3  O     c     -0.0490 *    -2.2030 *    -2.2030    0.0000     4          
     4  Na    c      2.1539 *    -2.2030 *    -2.2030    0.0000     4          
     5  Na    c     -2.2520 *    -2.2030 *    -2.2030    0.0000     4          
     6  Na    c      4.3569 *    -2.2030 *     0.0000    0.0000     4          
     7  Cl    c      2.1539 *     0.0000       4.4059 *  0.0000     4          
     8  Na    c     -0.0490 *    -2.2030 *     4.4059 *  0.0000     8          
     9  Cl    c     -2.2520 *     0.0000       4.4059 *  0.0000     4          
    10  Na    c     -4.4550 *    -2.2030 *     0.0000    0.0000     4          
    11  O     c      4.3569 *    -2.2030 *    -2.2030    0.0000     4          
    12  O     c     -4.4550 *    -2.2030 *    -2.2030    0.0000     4          
    13  Cl    c      6.5598 *     0.0000       0.0000    0.0000     1          
    14  Na    c      4.3569 *     4.4059 *    -2.2030 *  0.0000     8          
    15  Cl    c      2.1539 *     4.4059 *     4.4059    0.0000     4          
    16  Na    c     -0.0490 *     6.6089 *     0.0000    0.0000     4          
    17  Cl    c     -2.2520 *     4.4059 *     4.4059    0.0000     4          
    18  Na    c     -4.4550 *    -2.2030 *     4.4059 *  0.0000     8          
    19  Cl    c     -6.6579 *     0.0000       0.0000    0.0000     1          
    20  O     c     -0.0490 *    -2.2030 *     6.6089 *  0.0000     8          
    21  Na    c      6.5598 *    -2.2030 *    -2.2030    0.0000     4          
    22  Na    c      2.1539 *    -2.2030 *     6.6089 *  0.0000     8          
    23  Na    c     -2.2520 *     6.6089 *    -2.2030 *  0.0000     8          
    24  Na    c     -6.6579 *    -2.2030 *    -2.2030    0.0000     4          
    25  Cl    c      6.5598 *     0.0000       4.4059 *  0.0000     4          
    26  Na    c      4.3569 *     6.6089 *     0.0000    0.0000     4          
    27  Na    c     -0.0490 *     6.6089 *     4.4059 *  0.0000     8          
    28  Na    c     -4.4550 *     6.6089 *     0.0000    0.0000     4          
    29  Cl    c     -6.6579 *     0.0000       4.4059 *  0.0000     4          
    30  O     c      4.3569 *    -2.2030 *     6.6089 *  0.0000     8          
    31  O     c     -4.4550 *    -2.2030 *     6.6089 *  0.0000     8          
    32  Na    c      8.7628 *    -2.2030 *     0.0000    0.0000     4          
    33  Cl    c      6.5598 *     4.4059 *     4.4059    0.0000     4          
    34  Na    c      4.3569 *     6.6089 *     4.4059 *  0.0000     8          
    35  Cl    c      2.1539 *     0.0000       8.8118 *  0.0000     4          
    36  Na    c     -0.0490 *    -2.2030 *     8.8118 *  0.0000     8          
    37  Cl    c     -2.2520 *     0.0000       8.8118 *  0.0000     4          
    38  Na    c     -4.4550 *     6.6089 *     4.4059 *  0.0000     8          
    39  Cl    c     -6.6579 *     4.4059 *     4.4059    0.0000     4          
    40  Na    c     -8.8609 *    -2.2030 *     0.0000    0.0000     4          
    41  O     c      8.7628 *    -2.2030 *    -2.2030    0.0000     4          
    42  O     c     -0.0490 *     6.6089 *     6.6089    0.0000     4          
    43  O     c     -8.8609 *    -2.2030 *    -2.2030    0.0000     4          
    44  Na    c      6.5598 *    -2.2030 *     6.6089 *  0.0000     8          
    45  Na    c      2.1539 *     6.6089 *     6.6089    0.0000     4          
    46  Na    c     -2.2520 *     6.6089 *     6.6089    0.0000     4          
    47  Na    c     -6.6579 *    -2.2030 *     6.6089 *  0.0000     8          
    48  Na    c      8.7628 *     4.4059 *    -2.2030 *  0.0000     8          
    49  Na    c      4.3569 *    -2.2030 *     8.8118 *  0.0000     8          
    50  Cl    c      2.1539 *     4.4059 *     8.8118 *  0.0000     8          
    51  Cl    c     -2.2520 *     4.4059 *     8.8118 *  0.0000     8          
    52  Na    c     -4.4550 *    -2.2030 *     8.8118 *  0.0000     8          
    53  Na    c     -8.8609 *    -2.2030 *     4.4059 *  0.0000     8          
    54  O     c      4.3569 *     6.6089 *     6.6089    0.0000     4          
    55  O     c     -4.4550 *     6.6089 *     6.6089    0.0000     4          
    56  Cl    c     10.9657 *     0.0000       0.0000    0.0000     1          
    57  Na    c      8.7628 *     6.6089 *     0.0000    0.0000     4          
    58  Cl    c      6.5598 *     0.0000       8.8118 *  0.0000     4          
    59  Na    c     -0.0490 *     6.6089 *     8.8118 *  0.0000     8          
    60  Na    c     -0.0490 *    11.0148 *     0.0000    0.0000     4          
    61  Cl    c     -6.6579 *     0.0000       8.8118 *  0.0000     4          
    62  Na    c     -8.8609 *     6.6089 *     0.0000    0.0000     4          
    63  Cl    c    -11.0638 *     0.0000       0.0000    0.0000     1          
    64  O     c      8.7628 *    -2.2030 *     6.6089 *  0.0000     8          
    65  O     c     -0.0490 *    -2.2030 *    11.0148 *  0.0000     8          
    66  O     c     -8.8609 *     6.6089 *    -2.2030 *  0.0000     8          
    67  Na    c     10.9657 *    -2.2030 *    -2.2030    0.0000     4          
    68  Na    c      6.5598 *     6.6089 *     6.6089    0.0000     4          
    69  Na    c      2.1539 *    -2.2030 *    11.0148 *  0.0000     8          
    70  Na    c     -2.2520 *    -2.2030 *    11.0148 *  0.0000     8          
    71  Na    c     -6.6579 *     6.6089 *     6.6089    0.0000     4          
    72  Na    c    -11.0638 *    -2.2030 *    -2.2030    0.0000     4          
    73  Cl    c     10.9657 *     0.0000       4.4059 *  0.0000     4          
    74  Na    c      8.7628 *     6.6089 *     4.4059 *  0.0000     8          
    75  Cl    c      6.5598 *     4.4059 *     8.8118 *  0.0000     8          
    76  Na    c      4.3569 *    11.0148 *     0.0000    0.0000     4          
    77  Na    c      4.3569 *     6.6089 *     8.8118 *  0.0000     8          
    78  Na    c     -0.0490 *    11.0148 *     4.4059 *  0.0000     8          
    79  Na    c     -4.4550 *    11.0148 *     0.0000    0.0000     4          
    80  Na    c     -4.4550 *     8.8118 *     6.6089 *  0.0000     8          
    81  Cl    c     -6.6579 *     4.4059 *     8.8118 *  0.0000     8          
    82  Na    c     -8.8609 *     6.6089 *     4.4059 *  0.0000     8          
    83  Cl    c    -11.0638 *     0.0000       4.4059 *  0.0000     4          
    84  Cl    s     -1.0810       0.0000       0.0000    0.0000     1    Defect
    85  O     s     -0.0490 *    -2.2030 *    -2.2030    0.0000     4          
    86  Cl    s      2.1539 *     0.0000       4.4059 *  0.0000     4          
    87  Cl    s     -2.2520 *     0.0000       4.4059 *  0.0000     4          
    88  O     s      4.3569 *    -2.2030 *    -2.2030    0.0000     4          
    89  O     s     -4.4550 *    -2.2030 *    -2.2030    0.0000     4          
    90  Cl    s      6.5598 *     0.0000       0.0000    0.0000     1          
    91  Cl    s      2.1539 *     4.4059 *     4.4059    0.0000     4          
    92  Cl    s     -2.2520 *     4.4059 *     4.4059    0.0000     4          
    93  Cl    s     -6.6579 *     0.0000       0.0000    0.0000     1          
    94  O     s     -0.0490 *    -2.2030 *     6.6089 *  0.0000     8          
    95  Cl    s      6.5598 *     0.0000       4.4059 *  0.0000     4          
    96  Cl    s     -6.6579 *     0.0000       4.4059 *  0.0000     4          
    97  O     s      4.3569 *    -2.2030 *     6.6089 *  0.0000     8          
    98  O     s     -4.4550 *    -2.2030 *     6.6089 *  0.0000     8          
    99  Cl    s      6.5598 *     4.4059 *     4.4059    0.0000     4          
   100  Cl    s      2.1539 *     0.0000       8.8118 *  0.0000     4          
   101  Cl    s     -2.2520 *     0.0000       8.8118 *  0.0000     4          
   102  Cl    s     -6.6579 *     4.4059 *     4.4059    0.0000     4          
   103  O     s      8.7628 *    -2.2030 *    -2.2030    0.0000     4          
   104  O     s     -0.0490 *     6.6089 *     6.6089    0.0000     4          
   105  O     s     -8.8609 *    -2.2030 *    -2.2030    0.0000     4          
   106  Cl    s      2.1539 *     4.4059 *     8.8118 *  0.0000     8          
   107  Cl    s     -2.2520 *     4.4059 *     8.8118 *  0.0000     8          
   108  O     s      4.3569 *     6.6089 *     6.6089    0.0000     4          
   109  O     s     -4.4550 *     6.6089 *     6.6089    0.0000     4          
   110  Cl    s     10.9657 *     0.0000       0.0000    0.0000     1          
   111  Cl    s      6.5598 *     0.0000       8.8118 *  0.0000     4          
   112  Cl    s     -6.6579 *     0.0000       8.8118 *  0.0000     4          
   113  Cl    s    -11.0638 *     0.0000       0.0000    0.0000     1          
   114  O     s      8.7628 *    -2.2030 *     6.6089 *  0.0000     8          
   115  O     s     -0.0490 *    -2.2030 *    11.0148 *  0.0000     8          
   116  O     s     -8.8609 *     6.6089 *    -2.2030 *  0.0000     8          
   117  Cl    s     10.9657 *     0.0000       4.4059 *  0.0000     4          
   118  Cl    s      6.5598 *     4.4059 *     8.8118 *  0.0000     8          
   119  Cl    s     -6.6579 *     4.4059 *     8.8118 *  0.0000     8          
   120  Cl    s    -11.0638 *     0.0000       4.4059 *  0.0000     4          
--------------------------------------------------------------------------------


  Constraints on symmetry reduced coordinates :

--------------------------------------------------------------------------------
  Constraint no.      Unconstrained     Constrained    Coefficient    
                         Variable         Variable
--------------------------------------------------------------------------------
           1                 3 y             3 z         1.00000
           2                 4 y             4 z         1.00000
           3                 5 y             5 z         1.00000
           4                11 y            11 z         1.00000
           5                12 y            12 z         1.00000
           6                15 y            15 z         1.00000
           7                17 y            17 z         1.00000
           8                21 y            21 z         1.00000
           9                24 y            24 z         1.00000
          10                33 y            33 z         1.00000
          11                39 y            39 z         1.00000
          12                41 y            41 z         1.00000
          13                42 y            42 z         1.00000
          14                43 y            43 z         1.00000
          15                45 y            45 z         1.00000
          16                46 y            46 z         1.00000
          17                54 y            54 z         1.00000
          18                55 y            55 z         1.00000
          19                67 y            67 z         1.00000
          20                68 y            68 z         1.00000
          21                71 y            71 z         1.00000
          22                72 y            72 z         1.00000
          23                85 y            85 z         1.00000
          24                88 y            88 z         1.00000
          25                89 y            89 z         1.00000
          26                91 y            91 z         1.00000
          27                92 y            92 z         1.00000
          28                99 y            99 z         1.00000
          29               102 y           102 z         1.00000
          30               103 y           103 z         1.00000
          31               104 y           104 z         1.00000
          32               105 y           105 z         1.00000
          33               108 y           108 z         1.00000
          34               109 y           109 z         1.00000
--------------------------------------------------------------------------------


  Components of defect energy : 

--------------------------------------------------------------------------------
  Region 1 - region 1                   =     34.31463804 eV
  Region 1 - region 2a (unrelaxed)      =    -25.68304581 eV
  Region 1 - 2a (relaxed - correction)  =     -0.24345349 eV
  Region 1 (Total)                      =      8.38813874 eV
  Region 2a                             =      0.12176773 eV
  Region 2b                             =     -0.41219186 eV
--------------------------------------------------------------------------------
  Total defect energy                   =      8.09771461 eV
--------------------------------------------------------------------------------

  Largest displacement in region 2 =   0.0184 Angstroms


  Number of variables =      271

  Maximum number of calculations  =        1000
  Maximum Hessian update interval =          10
  Maximum step size               =   1.0000000
  Maximum parameter tolerance     =   0.0000100
  Maximum function  tolerance     =   0.0000100
  Maximum gradient  tolerance     =   0.0010000

  Symmetry adapted optimisation

  Symmetry to be used for second derivatives

  Newton-Raphson optimiser to be used

  BFGS hessian update to be used

  Lower half triangular hessian to be used

  Start of defect optimisation :

  Cycle:      0 Defect Energy:   8.097715  Gnorm:     0.090553  CPU:    0.491
  ** Hessian calculated **
  Cycle:      1 Defect Energy:   6.105548  Gnorm:     0.034088  CPU:    1.266
  Cycle:      2 Defect Energy:   5.763626  Gnorm:     0.002958  CPU:    2.201
  Cycle:      3 Defect Energy:   5.752053  Gnorm:     0.001662  CPU:    2.551
  Cycle:      4 Defect Energy:   5.749453  Gnorm:     0.001101  CPU:    2.916
  Cycle:      5 Defect Energy:   5.748044  Gnorm:     0.000738  CPU:    3.258
  Cycle:      6 Defect Energy:   5.747336  Gnorm:     0.000512  CPU:    3.596
  Cycle:      7 Defect Energy:   5.747007  Gnorm:     0.000349  CPU:    3.933
  Cycle:      8 Defect Energy:   5.746854  Gnorm:     0.000244  CPU:    4.261
  Cycle:      9 Defect Energy:   5.746786  Gnorm:     0.000169  CPU:    4.589
  Cycle:     10 Defect Energy:   5.746757  Gnorm:     0.000118  CPU:    4.931
  ** Hessian calculated **
  Cycle:     11 Defect Energy:   5.746745  Gnorm:     0.000083  CPU:    5.826
  Cycle:     12 Defect Energy:   5.746741  Gnorm:     0.000058  CPU:    6.157


  **** Optimisation achieved ****


  Final defect energy  =        5.74674005
  Final defect Gnorm   =        0.00004064

  Components of defect energy : 

--------------------------------------------------------------------------------
  Region 1 - region 1                   =     29.48390357 eV
  Region 1 - region 2a (unrelaxed)      =    -23.23379811 eV
  Region 1 - 2a (relaxed - correction)  =     -0.18362744 eV
  Region 1 (Total)                      =      6.06647803 eV
  Region 2a                             =      0.09176957 eV
  Region 2b                             =     -0.41150754 eV
--------------------------------------------------------------------------------
  Total defect energy                   =      5.74674005 eV
--------------------------------------------------------------------------------

  Largest displacement in region 2 =   0.0184 Angstroms

  Final coordinates of region 1 :

--------------------------------------------------------------------------------
   No.  Atomic        x           y           z          Radius      Charge
        Label       (Angs)      (Angs)      (Angs)       (Angs)       (e) 
--------------------------------------------------------------------------------
     1  Cl    c     1.171040    0.000000    0.000000    0.000000    1.485000
     2  Na    c     2.311175   -2.375915    0.000000    0.000000    1.000000
     3  Na    c     2.311175    2.375915    0.000000    0.000000    1.000000
     4  Na    c     2.311175    0.000000   -2.375915    0.000000    1.000000
     5  Na    c     2.311175    0.000000    2.375915    0.000000    1.000000
     6  O     c     2.294337   -2.255631   -2.255631    0.000000    0.183000
     7  O     c     2.294337   -2.255631    2.255631    0.000000    0.183000
     8  O     c     2.294337    2.255631   -2.255631    0.000000    0.183000
     9  O     c     2.294337    2.255631    2.255631    0.000000    0.183000
    10  Na    c     4.443697   -2.403640   -2.403640    0.000000    1.000000
    11  Na    c     4.443697   -2.403640    2.403640    0.000000    1.000000
    12  Na    c     4.443697    2.403640   -2.403640    0.000000    1.000000
    13  Na    c     4.443697    2.403640    2.403640    0.000000    1.000000
    14  Na    c     0.082182   -2.122372   -2.122372    0.000000    1.000000
    15  Na    c     0.082182   -2.122372    2.122372    0.000000    1.000000
    16  Na    c     0.082182    2.122372   -2.122372    0.000000    1.000000
    17  Na    c     0.082182    2.122372    2.122372    0.000000    1.000000
    18  Na    c     6.699366   -2.332001    0.000000    0.000000    1.000000
    19  Na    c     6.699366    2.332001    0.000000    0.000000    1.000000
    20  Na    c     6.699366    0.000000   -2.332001    0.000000    1.000000
    21  Na    c     6.699366    0.000000    2.332001    0.000000    1.000000
    22  Cl    c     4.452974    0.000000    4.379820    0.000000    1.485000
    23  Cl    c     4.452974    0.000000   -4.379820    0.000000    1.485000
    24  Cl    c     4.452974    4.379820    0.000000    0.000000    1.485000
    25  Cl    c     4.452974   -4.379820    0.000000    0.000000    1.485000
    26  Na    c     2.141687   -2.257744    4.443068    0.000000    1.000000
    27  Na    c     2.141687   -2.257744   -4.443068    0.000000    1.000000
    28  Na    c     2.141687    2.257744    4.443068    0.000000    1.000000
    29  Na    c     2.141687    2.257744   -4.443068    0.000000    1.000000
    30  Na    c     2.141687    4.443068   -2.257744    0.000000    1.000000
    31  Na    c     2.141687    4.443068    2.257744    0.000000    1.000000
    32  Na    c     2.141687   -4.443068   -2.257744    0.000000    1.000000
    33  Na    c     2.141687   -4.443068    2.257744    0.000000    1.000000
    34  Cl    c     0.055420    0.000000    4.365246    0.000000    1.485000
    35  Cl    c     0.055420    0.000000   -4.365246    0.000000    1.485000
    36  Cl    c     0.055420    4.365246    0.000000    0.000000    1.485000
    37  Cl    c     0.055420   -4.365246    0.000000    0.000000    1.485000
    38  Na    c    -2.318892   -2.283886    0.000000    0.000000    1.000000
    39  Na    c    -2.318892    2.283886    0.000000    0.000000    1.000000
    40  Na    c    -2.318892    0.000000   -2.283886    0.000000    1.000000
    41  Na    c    -2.318892    0.000000    2.283886    0.000000    1.000000
    42  O     c     6.607810   -2.190134   -2.190134    0.000000    0.183000
    43  O     c     6.607810   -2.190134    2.190134    0.000000    0.183000
    44  O     c     6.607810    2.190134   -2.190134    0.000000    0.183000
    45  O     c     6.607810    2.190134    2.190134    0.000000    0.183000
    46  O     c    -2.138301   -2.178887   -2.178887    0.000000    0.183000
    47  O     c    -2.138301   -2.178887    2.178887    0.000000    0.183000
    48  O     c    -2.138301    2.178887   -2.178887    0.000000    0.183000
    49  O     c    -2.138301    2.178887    2.178887    0.000000    0.183000
    50  Cl    c     8.754751    0.000000    0.000000    0.000000    1.485000
    51  Na    c     6.689183    4.424755   -2.221529    0.000000    1.000000
    52  Na    c     6.689183    4.424755    2.221529    0.000000    1.000000
    53  Na    c     6.689183   -4.424755   -2.221529    0.000000    1.000000
    54  Na    c     6.689183   -4.424755    2.221529    0.000000    1.000000
    55  Na    c     6.689183   -2.221529    4.424755    0.000000    1.000000
    56  Na    c     6.689183   -2.221529   -4.424755    0.000000    1.000000
    57  Na    c     6.689183    2.221529    4.424755    0.000000    1.000000
    58  Na    c     6.689183    2.221529   -4.424755    0.000000    1.000000
    59  Cl    c     4.445618    4.427808    4.427808    0.000000    1.485000
    60  Cl    c     4.445618    4.427808   -4.427808    0.000000    1.485000
    61  Cl    c     4.445618   -4.427808    4.427808    0.000000    1.485000
    62  Cl    c     4.445618   -4.427808   -4.427808    0.000000    1.485000
    63  Na    c     2.217258    6.622621    0.000000    0.000000    1.000000
    64  Na    c     2.217258   -6.622621    0.000000    0.000000    1.000000
    65  Na    c     2.217258    0.000000    6.622621    0.000000    1.000000
    66  Na    c     2.217258    0.000000   -6.622621    0.000000    1.000000
    67  Cl    c     0.018989    4.402297    4.402297    0.000000    1.485000
    68  Cl    c     0.018989    4.402297   -4.402297    0.000000    1.485000
    69  Cl    c     0.018989   -4.402297    4.402297    0.000000    1.485000
    70  Cl    c     0.018989   -4.402297   -4.402297    0.000000    1.485000
    71  Na    c    -2.092325   -2.223413    4.402935    0.000000    1.000000
    72  Na    c    -2.092325   -2.223413   -4.402935    0.000000    1.000000
    73  Na    c    -2.092325    2.223413    4.402935    0.000000    1.000000
    74  Na    c    -2.092325    2.223413   -4.402935    0.000000    1.000000
    75  Na    c    -2.092325    4.402935   -2.223413    0.000000    1.000000
    76  Na    c    -2.092325    4.402935    2.223413    0.000000    1.000000
    77  Na    c    -2.092325   -4.402935   -2.223413    0.000000    1.000000
    78  Na    c    -2.092325   -4.402935    2.223413    0.000000    1.000000
    79  Cl    c    -4.337275    0.000000    0.000000    0.000000    1.485000
    80  O     c     2.212740   -2.207521    6.624239    0.000000    0.183000
    81  O     c     2.212740   -2.207521   -6.624239    0.000000    0.183000
    82  O     c     2.212740    2.207521    6.624239    0.000000    0.183000
    83  O     c     2.212740    2.207521   -6.624239    0.000000    0.183000
    84  O     c     2.212740    6.624239   -2.207521    0.000000    0.183000
    85  O     c     2.212740    6.624239    2.207521    0.000000    0.183000
    86  O     c     2.212740   -6.624239   -2.207521    0.000000    0.183000
    87  O     c     2.212740   -6.624239    2.207521    0.000000    0.183000
    88  Na    c     8.834495   -2.183278   -2.183278    0.000000    1.000000
    89  Na    c     8.834495   -2.183278    2.183278    0.000000    1.000000
    90  Na    c     8.834495    2.183278   -2.183278    0.000000    1.000000
    91  Na    c     8.834495    2.183278    2.183278    0.000000    1.000000
    92  Na    c     4.416285   -2.210226    6.595954    0.000000    1.000000
    93  Na    c     4.416285   -2.210226   -6.595954    0.000000    1.000000
    94  Na    c     4.416285    2.210226    6.595954    0.000000    1.000000
    95  Na    c     4.416285    2.210226   -6.595954    0.000000    1.000000
    96  Na    c     4.416285    6.595954   -2.210226    0.000000    1.000000
    97  Na    c     4.416285    6.595954    2.210226    0.000000    1.000000
    98  Na    c     4.416285   -6.595954   -2.210226    0.000000    1.000000
    99  Na    c     4.416285   -6.595954    2.210226    0.000000    1.000000
   100  Na    c     0.010230    6.700144   -2.204467    0.000000    1.000000
   101  Na    c     0.010230    6.700144    2.204467    0.000000    1.000000
   102  Na    c     0.010230   -6.700144   -2.204467    0.000000    1.000000
   103  Na    c     0.010230   -6.700144    2.204467    0.000000    1.000000
   104  Na    c     0.010230   -2.204467    6.700144    0.000000    1.000000
   105  Na    c     0.010230   -2.204467   -6.700144    0.000000    1.000000
   106  Na    c     0.010230    2.204467    6.700144    0.000000    1.000000
   107  Na    c     0.010230    2.204467   -6.700144    0.000000    1.000000
   108  Na    c    -4.380153   -2.269585   -2.269585    0.000000    1.000000
   109  Na    c    -4.380153   -2.269585    2.269585    0.000000    1.000000
   110  Na    c    -4.380153    2.269585   -2.269585    0.000000    1.000000
   111  Na    c    -4.380153    2.269585    2.269585    0.000000    1.000000
   112  Cl    c     8.793798    0.000000    4.374670    0.000000    1.485000
   113  Cl    c     8.793798    0.000000   -4.374670    0.000000    1.485000
   114  Cl    c     8.793798    4.374670    0.000000    0.000000    1.485000
   115  Cl    c     8.793798   -4.374670    0.000000    0.000000    1.485000
   116  Na    c     6.611715    6.627360    0.000000    0.000000    1.000000
   117  Na    c     6.611715   -6.627360    0.000000    0.000000    1.000000
   118  Na    c     6.611715    0.000000    6.627360    0.000000    1.000000
   119  Na    c     6.611715    0.000000   -6.627360    0.000000    1.000000
   120  Na    c     2.210163    6.651219    4.417737    0.000000    1.000000
   121  Na    c     2.210163    6.651219   -4.417737    0.000000    1.000000
   122  Na    c     2.210163   -6.651219    4.417737    0.000000    1.000000
   123  Na    c     2.210163   -6.651219   -4.417737    0.000000    1.000000
   124  Na    c     2.210163    4.417737    6.651219    0.000000    1.000000
   125  Na    c     2.210163    4.417737   -6.651219    0.000000    1.000000
   126  Na    c     2.210163   -4.417737    6.651219    0.000000    1.000000
   127  Na    c     2.210163   -4.417737   -6.651219    0.000000    1.000000
   128  Na    c    -2.216834    6.605580    0.000000    0.000000    1.000000
   129  Na    c    -2.216834   -6.605580    0.000000    0.000000    1.000000
   130  Na    c    -2.216834    0.000000    6.605580    0.000000    1.000000
   131  Na    c    -2.216834    0.000000   -6.605580    0.000000    1.000000
   132  Cl    c    -4.363555    0.000000    4.378598    0.000000    1.485000
   133  Cl    c    -4.363555    0.000000   -4.378598    0.000000    1.485000
   134  Cl    c    -4.363555    4.378598    0.000000    0.000000    1.485000
   135  Cl    c    -4.363555   -4.378598    0.000000    0.000000    1.485000
   136  O     c     6.618070   -2.204480    6.611779    0.000000    0.183000
   137  O     c     6.618070   -2.204480   -6.611779    0.000000    0.183000
   138  O     c     6.618070    2.204480    6.611779    0.000000    0.183000
   139  O     c     6.618070    2.204480   -6.611779    0.000000    0.183000
   140  O     c     6.618070    6.611779   -2.204480    0.000000    0.183000
   141  O     c     6.618070    6.611779    2.204480    0.000000    0.183000
   142  O     c     6.618070   -6.611779   -2.204480    0.000000    0.183000
   143  O     c     6.618070   -6.611779    2.204480    0.000000    0.183000
   144  O     c    -2.184758   -2.200476    6.603860    0.000000    0.183000
   145  O     c    -2.184758   -2.200476   -6.603860    0.000000    0.183000
   146  O     c    -2.184758    2.200476    6.603860    0.000000    0.183000
   147  O     c    -2.184758    2.200476   -6.603860    0.000000    0.183000
   148  O     c    -2.184758    6.603860   -2.200476    0.000000    0.183000
   149  O     c    -2.184758    6.603860    2.200476    0.000000    0.183000
   150  O     c    -2.184758   -6.603860   -2.200476    0.000000    0.183000
   151  O     c    -2.184758   -6.603860    2.200476    0.000000    0.183000
   152  Na    c    11.066502   -2.209624    0.000000    0.000000    1.000000
   153  Na    c    11.066502    2.209624    0.000000    0.000000    1.000000
   154  Na    c    11.066502    0.000000   -2.209624    0.000000    1.000000
   155  Na    c    11.066502    0.000000    2.209624    0.000000    1.000000
   156  Cl    c     8.799343    4.379186    4.379186    0.000000    1.485000
   157  Cl    c     8.799343    4.379186   -4.379186    0.000000    1.485000
   158  Cl    c     8.799343   -4.379186    4.379186    0.000000    1.485000
   159  Cl    c     8.799343   -4.379186   -4.379186    0.000000    1.485000
   160  Na    c     6.608757    6.629478    4.414757    0.000000    1.000000
   161  Na    c     6.608757    6.629478   -4.414757    0.000000    1.000000
   162  Na    c     6.608757   -6.629478    4.414757    0.000000    1.000000
   163  Na    c     6.608757   -6.629478   -4.414757    0.000000    1.000000
   164  Na    c     6.608757    4.414757    6.629478    0.000000    1.000000
   165  Na    c     6.608757    4.414757   -6.629478    0.000000    1.000000
   166  Na    c     6.608757   -4.414757    6.629478    0.000000    1.000000
   167  Na    c     6.608757   -4.414757   -6.629478    0.000000    1.000000
   168  Cl    c     4.413468    0.000000    8.799391    0.000000    1.485000
   169  Cl    c     4.413468    0.000000   -8.799391    0.000000    1.485000
   170  Cl    c     4.413468    8.799391    0.000000    0.000000    1.485000
   171  Cl    c     4.413468   -8.799391    0.000000    0.000000    1.485000
   172  Na    c     2.245581   -2.200601    8.826461    0.000000    1.000000
   173  Na    c     2.245581   -2.200601   -8.826461    0.000000    1.000000
   174  Na    c     2.245581    2.200601    8.826461    0.000000    1.000000
   175  Na    c     2.245581    2.200601   -8.826461    0.000000    1.000000
   176  Na    c     2.245581    8.826461   -2.200601    0.000000    1.000000
   177  Na    c     2.245581    8.826461    2.200601    0.000000    1.000000
   178  Na    c     2.245581   -8.826461   -2.200601    0.000000    1.000000
   179  Na    c     2.245581   -8.826461    2.200601    0.000000    1.000000
   180  Cl    c     0.009908    0.000000    8.801623    0.000000    1.485000
   181  Cl    c     0.009908    0.000000   -8.801623    0.000000    1.485000
   182  Cl    c     0.009908    8.801623    0.000000    0.000000    1.485000
   183  Cl    c     0.009908   -8.801623    0.000000    0.000000    1.485000
   184  Na    c    -2.202867    6.622226    4.408225    0.000000    1.000000
   185  Na    c    -2.202867    6.622226   -4.408225    0.000000    1.000000
   186  Na    c    -2.202867   -6.622226    4.408225    0.000000    1.000000
   187  Na    c    -2.202867   -6.622226   -4.408225    0.000000    1.000000
   188  Na    c    -2.202867    4.408225    6.622226    0.000000    1.000000
   189  Na    c    -2.202867    4.408225   -6.622226    0.000000    1.000000
   190  Na    c    -2.202867   -4.408225    6.622226    0.000000    1.000000
   191  Na    c    -2.202867   -4.408225   -6.622226    0.000000    1.000000
   192  Cl    c    -4.369421    4.385477    4.385477    0.000000    1.485000
   193  Cl    c    -4.369421    4.385477   -4.385477    0.000000    1.485000
   194  Cl    c    -4.369421   -4.385477    4.385477    0.000000    1.485000
   195  Cl    c    -4.369421   -4.385477   -4.385477    0.000000    1.485000
   196  Na    c    -6.563132   -2.201870    0.000000    0.000000    1.000000
   197  Na    c    -6.563132    2.201870    0.000000    0.000000    1.000000
   198  Na    c    -6.563132    0.000000   -2.201870    0.000000    1.000000
   199  Na    c    -6.563132    0.000000    2.201870    0.000000    1.000000
   200  O     c    11.022282   -2.201429   -2.201429    0.000000    0.183000
   201  O     c    11.022282   -2.201429    2.201429    0.000000    0.183000
   202  O     c    11.022282    2.201429   -2.201429    0.000000    0.183000
   203  O     c    11.022282    2.201429    2.201429    0.000000    0.183000
   204  O     c     2.206803    6.616298    6.616298    0.000000    0.183000
   205  O     c     2.206803    6.616298   -6.616298    0.000000    0.183000
   206  O     c     2.206803   -6.616298    6.616298    0.000000    0.183000
   207  O     c     2.206803   -6.616298   -6.616298    0.000000    0.183000
   208  O     c    -6.586521   -2.204278   -2.204278    0.000000    0.183000
   209  O     c    -6.586521   -2.204278    2.204278    0.000000    0.183000
   210  O     c    -6.586521    2.204278   -2.204278    0.000000    0.183000
   211  O     c    -6.586521    2.204278    2.204278    0.000000    0.183000
   212  Na    c     8.817923   -2.215287    6.656087    0.000000    1.000000
   213  Na    c     8.817923   -2.215287   -6.656087    0.000000    1.000000
   214  Na    c     8.817923    2.215287    6.656087    0.000000    1.000000
   215  Na    c     8.817923    2.215287   -6.656087    0.000000    1.000000
   216  Na    c     8.817923    6.656087   -2.215287    0.000000    1.000000
   217  Na    c     8.817923    6.656087    2.215287    0.000000    1.000000
   218  Na    c     8.817923   -6.656087   -2.215287    0.000000    1.000000
   219  Na    c     8.817923   -6.656087    2.215287    0.000000    1.000000
   220  Na    c     4.411423    6.624101    6.624101    0.000000    1.000000
   221  Na    c     4.411423    6.624101   -6.624101    0.000000    1.000000
   222  Na    c     4.411423   -6.624101    6.624101    0.000000    1.000000
   223  Na    c     4.411423   -6.624101   -6.624101    0.000000    1.000000
   224  Na    c     0.000697    6.615653    6.615653    0.000000    1.000000
   225  Na    c     0.000697    6.615653   -6.615653    0.000000    1.000000
   226  Na    c     0.000697   -6.615653    6.615653    0.000000    1.000000
   227  Na    c     0.000697   -6.615653   -6.615653    0.000000    1.000000
   228  Na    c    -4.396066   -2.217896    6.571650    0.000000    1.000000
   229  Na    c    -4.396066   -2.217896   -6.571650    0.000000    1.000000
   230  Na    c    -4.396066    2.217896    6.571650    0.000000    1.000000
   231  Na    c    -4.396066    2.217896   -6.571650    0.000000    1.000000
   232  Na    c    -4.396066    6.571650   -2.217896    0.000000    1.000000
   233  Na    c    -4.396066    6.571650    2.217896    0.000000    1.000000
   234  Na    c    -4.396066   -6.571650   -2.217896    0.000000    1.000000
   235  Na    c    -4.396066   -6.571650    2.217896    0.000000    1.000000
   236  Na    c    11.012369    4.408814   -2.209918    0.000000    1.000000
   237  Na    c    11.012369    4.408814    2.209918    0.000000    1.000000
   238  Na    c    11.012369   -4.408814   -2.209918    0.000000    1.000000
   239  Na    c    11.012369   -4.408814    2.209918    0.000000    1.000000
   240  Na    c    11.012369   -2.209918    4.408814    0.000000    1.000000
   241  Na    c    11.012369   -2.209918   -4.408814    0.000000    1.000000
   242  Na    c    11.012369    2.209918    4.408814    0.000000    1.000000
   243  Na    c    11.012369    2.209918   -4.408814    0.000000    1.000000
   244  Na    c     6.592274   -2.203491    8.817813    0.000000    1.000000
   245  Na    c     6.592274   -2.203491   -8.817813    0.000000    1.000000
   246  Na    c     6.592274    2.203491    8.817813    0.000000    1.000000
   247  Na    c     6.592274    2.203491   -8.817813    0.000000    1.000000
   248  Na    c     6.592274    8.817813   -2.203491    0.000000    1.000000
   249  Na    c     6.592274    8.817813    2.203491    0.000000    1.000000
   250  Na    c     6.592274   -8.817813   -2.203491    0.000000    1.000000
   251  Na    c     6.592274   -8.817813    2.203491    0.000000    1.000000
   252  Cl    c     4.410144    4.403305    8.804336    0.000000    1.485000
   253  Cl    c     4.410144    4.403305   -8.804336    0.000000    1.485000
   254  Cl    c     4.410144    8.804336    4.403305    0.000000    1.485000
   255  Cl    c     4.410144    8.804336   -4.403305    0.000000    1.485000
   256  Cl    c     4.410144   -4.403305    8.804336    0.000000    1.485000
   257  Cl    c     4.410144   -4.403305   -8.804336    0.000000    1.485000
   258  Cl    c     4.410144   -8.804336    4.403305    0.000000    1.485000
   259  Cl    c     4.410144   -8.804336   -4.403305    0.000000    1.485000
   260  Cl    c     0.007435    4.402466    8.803602    0.000000    1.485000
   261  Cl    c     0.007435    4.402466   -8.803602    0.000000    1.485000
   262  Cl    c     0.007435    8.803602    4.402466    0.000000    1.485000
   263  Cl    c     0.007435    8.803602   -4.402466    0.000000    1.485000
   264  Cl    c     0.007435   -4.402466    8.803602    0.000000    1.485000
   265  Cl    c     0.007435   -4.402466   -8.803602    0.000000    1.485000
   266  Cl    c     0.007435   -8.803602    4.402466    0.000000    1.485000
   267  Cl    c     0.007435   -8.803602   -4.402466    0.000000    1.485000
   268  Na    c    -2.234084   -2.192726    8.814284    0.000000    1.000000
   269  Na    c    -2.234084   -2.192726   -8.814284    0.000000    1.000000
   270  Na    c    -2.234084    2.192726    8.814284    0.000000    1.000000
   271  Na    c    -2.234084    2.192726   -8.814284    0.000000    1.000000
   272  Na    c    -2.234084    8.814284   -2.192726    0.000000    1.000000
   273  Na    c    -2.234084    8.814284    2.192726    0.000000    1.000000
   274  Na    c    -2.234084   -8.814284   -2.192726    0.000000    1.000000
   275  Na    c    -2.234084   -8.814284    2.192726    0.000000    1.000000
   276  Na    c    -6.635088   -2.198390    4.404888    0.000000    1.000000
   277  Na    c    -6.635088   -2.198390   -4.404888    0.000000    1.000000
   278  Na    c    -6.635088    2.198390    4.404888    0.000000    1.000000
   279  Na    c    -6.635088    2.198390   -4.404888    0.000000    1.000000
   280  Na    c    -6.635088    4.404888   -2.198390    0.000000    1.000000
   281  Na    c    -6.635088    4.404888    2.198390    0.000000    1.000000
   282  Na    c    -6.635088   -4.404888   -2.198390    0.000000    1.000000
   283  Na    c    -6.635088   -4.404888    2.198390    0.000000    1.000000
   284  O     c     6.614532    6.616196    6.616196    0.000000    0.183000
   285  O     c     6.614532    6.616196   -6.616196    0.000000    0.183000
   286  O     c     6.614532   -6.616196    6.616196    0.000000    0.183000
   287  O     c     6.614532   -6.616196   -6.616196    0.000000    0.183000
   288  O     c    -2.200968    6.610224    6.610224    0.000000    0.183000
   289  O     c    -2.200968    6.610224   -6.610224    0.000000    0.183000
   290  O     c    -2.200968   -6.610224    6.610224    0.000000    0.183000
   291  O     c    -2.200968   -6.610224   -6.610224    0.000000    0.183000
   292  Cl    c    13.199862    0.000000    0.000000    0.000000    1.485000
   293  Na    c    11.027894    6.616040    0.000000    0.000000    1.000000
   294  Na    c    11.027894   -6.616040    0.000000    0.000000    1.000000
   295  Na    c    11.027894    0.000000    6.616040    0.000000    1.000000
   296  Na    c    11.027894    0.000000   -6.616040    0.000000    1.000000
   297  Cl    c     8.812335    0.000000    8.798431    0.000000    1.485000
   298  Cl    c     8.812335    0.000000   -8.798431    0.000000    1.485000
   299  Cl    c     8.812335    8.798431    0.000000    0.000000    1.485000
   300  Cl    c     8.812335   -8.798431    0.000000    0.000000    1.485000
   301  Na    c     2.201269    6.623841    8.820151    0.000000    1.000000
   302  Na    c     2.201269    6.623841   -8.820151    0.000000    1.000000
   303  Na    c     2.201269   -6.623841    8.820151    0.000000    1.000000
   304  Na    c     2.201269   -6.623841   -8.820151    0.000000    1.000000
   305  Na    c     2.201269    8.820151    6.623841    0.000000    1.000000
   306  Na    c     2.201269    8.820151   -6.623841    0.000000    1.000000
   307  Na    c     2.201269   -8.820151    6.623841    0.000000    1.000000
   308  Na    c     2.201269   -8.820151   -6.623841    0.000000    1.000000
   309  Na    c     2.191623   11.030992    0.000000    0.000000    1.000000
   310  Na    c     2.191623  -11.030992    0.000000    0.000000    1.000000
   311  Na    c     2.191623    0.000000   11.030992    0.000000    1.000000
   312  Na    c     2.191623    0.000000  -11.030992    0.000000    1.000000
   313  Cl    c    -4.393689    0.000000    8.796617    0.000000    1.485000
   314  Cl    c    -4.393689    0.000000   -8.796617    0.000000    1.485000
   315  Cl    c    -4.393689    8.796617    0.000000    0.000000    1.485000
   316  Cl    c    -4.393689   -8.796617    0.000000    0.000000    1.485000
   317  Na    c    -6.604583    6.625639    0.000000    0.000000    1.000000
   318  Na    c    -6.604583   -6.625639    0.000000    0.000000    1.000000
   319  Na    c    -6.604583    0.000000    6.625639    0.000000    1.000000
   320  Na    c    -6.604583    0.000000   -6.625639    0.000000    1.000000
   321  Cl    c    -8.789341    0.000000    0.000000    0.000000    1.485000
   322  O     c    11.012979   -2.202507    6.607448    0.000000    0.183000
   323  O     c    11.012979   -2.202507   -6.607448    0.000000    0.183000
   324  O     c    11.012979    2.202507    6.607448    0.000000    0.183000
   325  O     c    11.012979    2.202507   -6.607448    0.000000    0.183000
   326  O     c    11.012979    6.607448   -2.202507    0.000000    0.183000
   327  O     c    11.012979    6.607448    2.202507    0.000000    0.183000
   328  O     c    11.012979   -6.607448   -2.202507    0.000000    0.183000
   329  O     c    11.012979   -6.607448    2.202507    0.000000    0.183000
   330  O     c     2.207789   -2.202447   11.018040    0.000000    0.183000
   331  O     c     2.207789   -2.202447  -11.018040    0.000000    0.183000
   332  O     c     2.207789    2.202447   11.018040    0.000000    0.183000
   333  O     c     2.207789    2.202447  -11.018040    0.000000    0.183000
   334  O     c     2.207789   11.018040   -2.202447    0.000000    0.183000
   335  O     c     2.207789   11.018040    2.202447    0.000000    0.183000
   336  O     c     2.207789  -11.018040   -2.202447    0.000000    0.183000
   337  O     c     2.207789  -11.018040    2.202447    0.000000    0.183000
   338  O     c    -6.602868    6.602082   -2.201788    0.000000    0.183000
   339  O     c    -6.602868    6.602082    2.201788    0.000000    0.183000
   340  O     c    -6.602868   -6.602082   -2.201788    0.000000    0.183000
   341  O     c    -6.602868   -6.602082    2.201788    0.000000    0.183000
   342  O     c    -6.602868   -2.201788    6.602082    0.000000    0.183000
   343  O     c    -6.602868   -2.201788   -6.602082    0.000000    0.183000
   344  O     c    -6.602868    2.201788    6.602082    0.000000    0.183000
   345  O     c    -6.602868    2.201788   -6.602082    0.000000    0.183000
   346  Na    c    13.226039   -2.218471   -2.218471    0.000000    1.000000
   347  Na    c    13.226039   -2.218471    2.218471    0.000000    1.000000
   348  Na    c    13.226039    2.218471   -2.218471    0.000000    1.000000
   349  Na    c    13.226039    2.218471    2.218471    0.000000    1.000000
   350  Na    c     8.815567    6.618289    6.618289    0.000000    1.000000
   351  Na    c     8.815567    6.618289   -6.618289    0.000000    1.000000
   352  Na    c     8.815567   -6.618289    6.618289    0.000000    1.000000
   353  Na    c     8.815567   -6.618289   -6.618289    0.000000    1.000000
   354  Na    c     4.409118   -2.202926   11.044161    0.000000    1.000000
   355  Na    c     4.409118   -2.202926  -11.044161    0.000000    1.000000
   356  Na    c     4.409118    2.202926   11.044161    0.000000    1.000000
   357  Na    c     4.409118    2.202926  -11.044161    0.000000    1.000000
   358  Na    c     4.409118   11.044161   -2.202926    0.000000    1.000000
   359  Na    c     4.409118   11.044161    2.202926    0.000000    1.000000
   360  Na    c     4.409118  -11.044161   -2.202926    0.000000    1.000000
   361  Na    c     4.409118  -11.044161    2.202926    0.000000    1.000000
   362  Na    c     0.000233   -2.211988   11.013964    0.000000    1.000000
   363  Na    c     0.000233   -2.211988  -11.013964    0.000000    1.000000
   364  Na    c     0.000233    2.211988   11.013964    0.000000    1.000000
   365  Na    c     0.000233    2.211988  -11.013964    0.000000    1.000000
   366  Na    c     0.000233   11.013964   -2.211988    0.000000    1.000000
   367  Na    c     0.000233   11.013964    2.211988    0.000000    1.000000
   368  Na    c     0.000233  -11.013964   -2.211988    0.000000    1.000000
   369  Na    c     0.000233  -11.013964    2.211988    0.000000    1.000000
   370  Na    c    -4.406368    6.614685    6.614685    0.000000    1.000000
   371  Na    c    -4.406368    6.614685   -6.614685    0.000000    1.000000
   372  Na    c    -4.406368   -6.614685    6.614685    0.000000    1.000000
   373  Na    c    -4.406368   -6.614685   -6.614685    0.000000    1.000000
   374  Na    c    -8.805346   -2.186361   -2.186361    0.000000    1.000000
   375  Na    c    -8.805346   -2.186361    2.186361    0.000000    1.000000
   376  Na    c    -8.805346    2.186361   -2.186361    0.000000    1.000000
   377  Na    c    -8.805346    2.186361    2.186361    0.000000    1.000000
   378  Cl    c    13.199083    0.000000    4.399703    0.000000    1.485000
   379  Cl    c    13.199083    0.000000   -4.399703    0.000000    1.485000
   380  Cl    c    13.199083    4.399703    0.000000    0.000000    1.485000
   381  Cl    c    13.199083   -4.399703    0.000000    0.000000    1.485000
   382  Na    c    11.030561    6.620698    4.408502    0.000000    1.000000
   383  Na    c    11.030561    6.620698   -4.408502    0.000000    1.000000
   384  Na    c    11.030561   -6.620698    4.408502    0.000000    1.000000
   385  Na    c    11.030561   -6.620698   -4.408502    0.000000    1.000000
   386  Na    c    11.030561    4.408502    6.620698    0.000000    1.000000
   387  Na    c    11.030561    4.408502   -6.620698    0.000000    1.000000
   388  Na    c    11.030561   -4.408502    6.620698    0.000000    1.000000
   389  Na    c    11.030561   -4.408502   -6.620698    0.000000    1.000000
   390  Cl    c     8.810119    4.398176    8.795325    0.000000    1.485000
   391  Cl    c     8.810119    4.398176   -8.795325    0.000000    1.485000
   392  Cl    c     8.810119    8.795325    4.398176    0.000000    1.485000
   393  Cl    c     8.810119    8.795325   -4.398176    0.000000    1.485000
   394  Cl    c     8.810119   -4.398176    8.795325    0.000000    1.485000
   395  Cl    c     8.810119   -4.398176   -8.795325    0.000000    1.485000
   396  Cl    c     8.810119   -8.795325    4.398176    0.000000    1.485000
   397  Cl    c     8.810119   -8.795325   -4.398176    0.000000    1.485000
   398  Na    c     6.617842   11.027772    0.000000    0.000000    1.000000
   399  Na    c     6.617842  -11.027772    0.000000    0.000000    1.000000
   400  Na    c     6.617842    0.000000   11.027772    0.000000    1.000000
   401  Na    c     6.617842    0.000000  -11.027772    0.000000    1.000000
   402  Na    c     6.615394    6.622964    8.819064    0.000000    1.000000
   403  Na    c     6.615394    6.622964   -8.819064    0.000000    1.000000
   404  Na    c     6.615394   -6.622964    8.819064    0.000000    1.000000
   405  Na    c     6.615394   -6.622964   -8.819064    0.000000    1.000000
   406  Na    c     6.615394    8.819064    6.622964    0.000000    1.000000
   407  Na    c     6.615394    8.819064   -6.622964    0.000000    1.000000
   408  Na    c     6.615394   -8.819064    6.622964    0.000000    1.000000
   409  Na    c     6.615394   -8.819064   -6.622964    0.000000    1.000000
   410  Na    c     2.202278   11.031216    4.408537    0.000000    1.000000
   411  Na    c     2.202278   11.031216   -4.408537    0.000000    1.000000
   412  Na    c     2.202278  -11.031216    4.408537    0.000000    1.000000
   413  Na    c     2.202278  -11.031216   -4.408537    0.000000    1.000000
   414  Na    c     2.202278    4.408537   11.031216    0.000000    1.000000
   415  Na    c     2.202278    4.408537  -11.031216    0.000000    1.000000
   416  Na    c     2.202278   -4.408537   11.031216    0.000000    1.000000
   417  Na    c     2.202278   -4.408537  -11.031216    0.000000    1.000000
   418  Na    c    -2.200303   11.039248    0.000000    0.000000    1.000000
   419  Na    c    -2.200303  -11.039248    0.000000    0.000000    1.000000
   420  Na    c    -2.200303    0.000000   11.039248    0.000000    1.000000
   421  Na    c    -2.200303    0.000000  -11.039248    0.000000    1.000000
   422  Na    c    -2.207458    8.816002    6.618947    0.000000    1.000000
   423  Na    c    -2.207458    8.816002   -6.618947    0.000000    1.000000
   424  Na    c    -2.207458   -8.816002    6.618947    0.000000    1.000000
   425  Na    c    -2.207458   -8.816002   -6.618947    0.000000    1.000000
   426  Na    c    -2.207458    6.618947    8.816002    0.000000    1.000000
   427  Na    c    -2.207458    6.618947   -8.816002    0.000000    1.000000
   428  Na    c    -2.207458   -6.618947    8.816002    0.000000    1.000000
   429  Na    c    -2.207458   -6.618947   -8.816002    0.000000    1.000000
   430  Cl    c    -4.394863    4.397748    8.793075    0.000000    1.485000
   431  Cl    c    -4.394863    4.397748   -8.793075    0.000000    1.485000
   432  Cl    c    -4.394863    8.793075    4.397748    0.000000    1.485000
   433  Cl    c    -4.394863    8.793075   -4.397748    0.000000    1.485000
   434  Cl    c    -4.394863   -4.397748    8.793075    0.000000    1.485000
   435  Cl    c    -4.394863   -4.397748   -8.793075    0.000000    1.485000
   436  Cl    c    -4.394863   -8.793075    4.397748    0.000000    1.485000
   437  Cl    c    -4.394863   -8.793075   -4.397748    0.000000    1.485000
   438  Na    c    -6.618953    6.619748    4.406601    0.000000    1.000000
   439  Na    c    -6.618953    6.619748   -4.406601    0.000000    1.000000
   440  Na    c    -6.618953   -6.619748    4.406601    0.000000    1.000000
   441  Na    c    -6.618953   -6.619748   -4.406601    0.000000    1.000000
   442  Na    c    -6.618953    4.406601    6.619748    0.000000    1.000000
   443  Na    c    -6.618953    4.406601   -6.619748    0.000000    1.000000
   444  Na    c    -6.618953   -4.406601    6.619748    0.000000    1.000000
   445  Na    c    -6.618953   -4.406601   -6.619748    0.000000    1.000000
   446  Cl    c    -8.786243    0.000000    4.395149    0.000000    1.485000
   447  Cl    c    -8.786243    0.000000   -4.395149    0.000000    1.485000
   448  Cl    c    -8.786243    4.395149    0.000000    0.000000    1.485000
   449  Cl    c    -8.786243   -4.395149    0.000000    0.000000    1.485000
   450  Cl    s     1.171040    0.000000    0.000000    0.000000   -2.485000
   451  O     s     2.294358   -2.255727   -2.255727    0.000000   -2.183000
   452  O     s     2.294358   -2.255727    2.255727    0.000000   -2.183000
   453  O     s     2.294358    2.255727   -2.255727    0.000000   -2.183000
   454  O     s     2.294358    2.255727    2.255727    0.000000   -2.183000
   455  Cl    s     4.452714    0.000000    4.373269    0.000000   -2.485000
   456  Cl    s     4.452714    0.000000   -4.373269    0.000000   -2.485000
   457  Cl    s     4.452714    4.373269    0.000000    0.000000   -2.485000
   458  Cl    s     4.452714   -4.373269    0.000000    0.000000   -2.485000
   459  Cl    s     0.061201    0.000000    4.358017    0.000000   -2.485000
   460  Cl    s     0.061201    0.000000   -4.358017    0.000000   -2.485000
   461  Cl    s     0.061201    4.358017    0.000000    0.000000   -2.485000
   462  Cl    s     0.061201   -4.358017    0.000000    0.000000   -2.485000
   463  O     s     6.607824   -2.190159   -2.190159    0.000000   -2.183000
   464  O     s     6.607824   -2.190159    2.190159    0.000000   -2.183000
   465  O     s     6.607824    2.190159   -2.190159    0.000000   -2.183000
   466  O     s     6.607824    2.190159    2.190159    0.000000   -2.183000
   467  O     s    -2.138327   -2.178877   -2.178877    0.000000   -2.183000
[...]
     40 y         -2.202951     -2.201870     0.001081    Cartesian   -0.05
     40 z          0.000000      0.000000     0.000000    Cartesian    0.00
     41 x         11.014756     11.022282     0.007527    Cartesian    0.07
     41 y         -2.202951     -2.201429     0.001522    Cartesian   -0.07
     41 z         -2.202951     -2.201429     0.001522    Cartesian   -0.07
     42 x          2.202951      2.206803     0.003851    Cartesian    0.17
     42 y          6.608853      6.616298     0.007445    Cartesian    0.11
     42 z          6.608853      6.616298     0.007445    Cartesian    0.11
     43 x         -6.608853     -6.586521     0.022333    Cartesian   -0.34
     43 y         -2.202951     -2.204278    -0.001327    Cartesian    0.06
     43 z         -2.202951     -2.204278    -0.001327    Cartesian    0.06
     44 x          8.811805      8.817923     0.006119    Cartesian    0.07
     44 y         -2.202951     -2.215287    -0.012336    Cartesian    0.56
     44 z          6.608853      6.656087     0.047233    Cartesian    0.71
     45 x          4.405902      4.411423     0.005520    Cartesian    0.13
     45 y          6.608853      6.624101     0.015247    Cartesian    0.23
     45 z          6.608853      6.624101     0.015247    Cartesian    0.23
     46 x          0.000000      0.000697     0.000697    Cartesian    0.00
     46 y          6.608853      6.615653     0.006800    Cartesian    0.10
     46 z          6.608853      6.615653     0.006800    Cartesian    0.10
     47 x         -4.405902     -4.396066     0.009837    Cartesian   -0.22
     47 y         -2.202951     -2.217896    -0.014945    Cartesian    0.68
     47 z          6.608853      6.571650    -0.037203    Cartesian   -0.56
     48 x         11.014756     11.012369    -0.002387    Cartesian   -0.02
     48 y          4.405902      4.408814     0.002911    Cartesian    0.07
     48 z         -2.202951     -2.209918    -0.006967    Cartesian    0.32
     49 x          6.608853      6.592274    -0.016580    Cartesian   -0.25
     49 y         -2.202951     -2.203491    -0.000540    Cartesian    0.02
     49 z          8.811805      8.817813     0.006009    Cartesian    0.07
     50 x          4.405902      4.410144     0.004242    Cartesian    0.10
     50 y          4.405902      4.403305    -0.002597    Cartesian   -0.06
     50 z          8.811805      8.804336    -0.007469    Cartesian   -0.08
     51 x          0.000000      0.007435     0.007435    Cartesian    0.00
     51 y          4.405902      4.402466    -0.003436    Cartesian   -0.08
     51 z          8.811805      8.803602    -0.008203    Cartesian   -0.09
     52 x         -2.202951     -2.234084    -0.031133    Cartesian    1.41
     52 y         -2.202951     -2.192726     0.010225    Cartesian   -0.46
     52 z          8.811805      8.814284     0.002479    Cartesian    0.03
     53 x         -6.608853     -6.635088    -0.026234    Cartesian    0.40
     53 y         -2.202951     -2.198390     0.004561    Cartesian   -0.21
     53 z          4.405902      4.404888    -0.001015    Cartesian   -0.02
     54 x          6.608853      6.614532     0.005679    Cartesian    0.09
     54 y          6.608853      6.616196     0.007343    Cartesian    0.11
     54 z          6.608853      6.616196     0.007343    Cartesian    0.11
     55 x         -2.202951     -2.200968     0.001983    Cartesian   -0.09
     55 y          6.608853      6.610224     0.001371    Cartesian    0.02
     55 z          6.608853      6.610224     0.001371    Cartesian    0.02
     56 x         13.217707     13.199862    -0.017845    Cartesian   -0.14
     56 y          0.000000      0.000000     0.000000    Cartesian    0.00
     56 z          0.000000      0.000000     0.000000    Cartesian    0.00
     57 x         11.014756     11.027894     0.013138    Cartesian    0.12
     57 y          6.608853      6.616040     0.007186    Cartesian    0.11
     57 z          0.000000      0.000000     0.000000    Cartesian    0.00
     58 x          8.811805      8.812335     0.000531    Cartesian    0.01
     58 y          0.000000      0.000000     0.000000    Cartesian    0.00
     58 z          8.811805      8.798431    -0.013374    Cartesian   -0.15
     59 x          2.202951      2.201269    -0.001682    Cartesian   -0.08
     59 y          6.608853      6.623841     0.014988    Cartesian    0.23
     59 z          8.811805      8.820151     0.008346    Cartesian    0.09
     60 x          2.202951      2.191623    -0.011328    Cartesian   -0.51
     60 y         11.014756     11.030992     0.016236    Cartesian    0.15
     60 z          0.000000      0.000000     0.000000    Cartesian    0.00
     61 x         -4.405902     -4.393689     0.012213    Cartesian   -0.28
     61 y          0.000000      0.000000     0.000000    Cartesian    0.00
     61 z          8.811805      8.796617    -0.015188    Cartesian   -0.17
     62 x         -6.608853     -6.604583     0.004271    Cartesian   -0.06
     62 y          6.608853      6.625639     0.016785    Cartesian    0.25
     62 z          0.000000      0.000000     0.000000    Cartesian    0.00
     63 x         -8.811805     -8.789341     0.022463    Cartesian   -0.25
     63 y          0.000000      0.000000     0.000000    Cartesian    0.00
     63 z          0.000000      0.000000     0.000000    Cartesian    0.00
     64 x         11.014756     11.012979    -0.001777    Cartesian   -0.02
     64 y         -2.202951     -2.202507     0.000444    Cartesian   -0.02
     64 z          6.608853      6.607448    -0.001406    Cartesian   -0.02
     65 x          2.202951      2.207789     0.004837    Cartesian    0.22
     65 y         -2.202951     -2.202447     0.000504    Cartesian   -0.02
     65 z         11.014756     11.018040     0.003285    Cartesian    0.03
     66 x         -6.608853     -6.602868     0.005986    Cartesian   -0.09
     66 y          6.608853      6.602082    -0.006772    Cartesian   -0.10
     66 z         -2.202951     -2.201788     0.001164    Cartesian   -0.05
     67 x         13.217707     13.226039     0.008332    Cartesian    0.06
     67 y         -2.202951     -2.218471    -0.015520    Cartesian    0.70
     67 z         -2.202951     -2.218471    -0.015520    Cartesian    0.70
     68 x          8.811805      8.815567     0.003762    Cartesian    0.04
     68 y          6.608853      6.618289     0.009436    Cartesian    0.14
     68 z          6.608853      6.618289     0.009436    Cartesian    0.14
     69 x          4.405902      4.409118     0.003215    Cartesian    0.07
     69 y         -2.202951     -2.202926     0.000025    Cartesian   -0.00
     69 z         11.014756     11.044161     0.029405    Cartesian    0.27
     70 x          0.000000      0.000233     0.000233    Cartesian    0.00
     70 y         -2.202951     -2.211988    -0.009037    Cartesian    0.41
     70 z         11.014756     11.013964    -0.000791    Cartesian   -0.01
     71 x         -4.405902     -4.406368    -0.000466    Cartesian    0.01
     71 y          6.608853      6.614685     0.005831    Cartesian    0.09
     71 z          6.608853      6.614685     0.005831    Cartesian    0.09
     72 x         -8.811805     -8.805346     0.006459    Cartesian   -0.07
     72 y         -2.202951     -2.186361     0.016590    Cartesian   -0.75
     72 z         -2.202951     -2.186361     0.016590    Cartesian   -0.75
     73 x         13.217707     13.199083    -0.018624    Cartesian   -0.14
     73 y          0.000000      0.000000     0.000000    Cartesian    0.00
     73 z          4.405902      4.399703    -0.006199    Cartesian   -0.14
     74 x         11.014756     11.030561     0.015805    Cartesian    0.14
     74 y          6.608853      6.620698     0.011845    Cartesian    0.18
     74 z          4.405902      4.408502     0.002599    Cartesian    0.06
     75 x          8.811805      8.810119    -0.001685    Cartesian   -0.02
     75 y          4.405902      4.398176    -0.007726    Cartesian   -0.18
     75 z          8.811805      8.795325    -0.016480    Cartesian   -0.19
     76 x          6.608853      6.617842     0.008988    Cartesian    0.14
     76 y         11.014756     11.027772     0.013016    Cartesian    0.12
     76 z          0.000000      0.000000     0.000000    Cartesian    0.00
     77 x          6.608853      6.615394     0.006540    Cartesian    0.10
     77 y          6.608853      6.622964     0.014110    Cartesian    0.21
     77 z          8.811805      8.819064     0.007259    Cartesian    0.08
     78 x          2.202951      2.202278    -0.000673    Cartesian   -0.03
     78 y         11.014756     11.031216     0.016460    Cartesian    0.15
     78 z          4.405902      4.408537     0.002635    Cartesian    0.06
     79 x         -2.202951     -2.200303     0.002648    Cartesian   -0.12
     79 y         11.014756     11.039248     0.024492    Cartesian    0.22
     79 z          0.000000      0.000000     0.000000    Cartesian    0.00
     80 x         -2.202951     -2.207458    -0.004507    Cartesian    0.20
     80 y          8.811805      8.816002     0.004197    Cartesian    0.05
     80 z          6.608853      6.618947     0.010093    Cartesian    0.15
     81 x         -4.405902     -4.394863     0.011039    Cartesian   -0.25
     81 y          4.405902      4.397748    -0.008154    Cartesian   -0.19
     81 z          8.811805      8.793075    -0.018730    Cartesian   -0.21
     82 x         -6.608853     -6.618953    -0.010099    Cartesian    0.15
     82 y          6.608853      6.619748     0.010894    Cartesian    0.16
     82 z          4.405902      4.406601     0.000699    Cartesian    0.02
     83 x         -8.811805     -8.786243     0.025562    Cartesian   -0.29
     83 y          0.000000      0.000000     0.000000    Cartesian    0.00
     83 z          4.405902      4.395149    -0.010753    Cartesian   -0.24
     84 x          1.171040      1.171040     0.000000    Cartesian    0.00
     84 y          0.000000      0.000000     0.000000    Cartesian    0.00
     84 z          0.000000      0.000000     0.000000    Cartesian    0.00
     85 x          2.202951      2.294358     0.091407    Cartesian    4.15
     85 y         -2.202951     -2.255727    -0.052776    Cartesian    2.40
     85 z         -2.202951     -2.255727    -0.052776    Cartesian    2.40
     86 x          4.405902      4.452714     0.046812    Cartesian    1.06
     86 y          0.000000      0.000000     0.000000    Cartesian    0.00
     86 z          4.405902      4.373269    -0.032633    Cartesian   -0.74
     87 x          0.000000      0.061201     0.061201    Cartesian    0.00
     87 y          0.000000      0.000000     0.000000    Cartesian    0.00
     87 z          4.405902      4.358017    -0.047885    Cartesian   -1.09
     88 x          6.608853      6.607824    -0.001030    Cartesian   -0.02
     88 y         -2.202951     -2.190159     0.012792    Cartesian   -0.58
     88 z         -2.202951     -2.190159     0.012792    Cartesian   -0.58
     89 x         -2.202951     -2.138327     0.064624    Cartesian   -2.93
     89 y         -2.202951     -2.178877     0.024074    Cartesian   -1.09
     89 z         -2.202951     -2.178877     0.024074    Cartesian   -1.09
     90 x          8.811805      8.750990    -0.060815    Cartesian   -0.69
     90 y          0.000000      0.000000     0.000000    Cartesian    0.00
     90 z          0.000000      0.000000     0.000000    Cartesian    0.00
     91 x          4.405902      4.448707     0.042805    Cartesian    0.97
     91 y          4.405902      4.420624     0.014721    Cartesian    0.33
     91 z          4.405902      4.420624     0.014721    Cartesian    0.33
     92 x          0.000000      0.020056     0.020056    Cartesian    0.00
     92 y          4.405902      4.398492    -0.007410    Cartesian   -0.17
     92 z          4.405902      4.398492    -0.007410    Cartesian   -0.17
     93 x         -4.405902     -4.331787     0.074115    Cartesian   -1.68
     93 y          0.000000      0.000000     0.000000    Cartesian    0.00
     93 z          0.000000      0.000000     0.000000    Cartesian    0.00
     94 x          2.202951      2.212733     0.009782    Cartesian    0.44
     94 y         -2.202951     -2.207526    -0.004575    Cartesian    0.21
     94 z          6.608853      6.624229     0.015375    Cartesian    0.23
     95 x          8.811805      8.783907    -0.027897    Cartesian   -0.32
     95 y          0.000000      0.000000     0.000000    Cartesian    0.00
     95 z          4.405902      4.364839    -0.041063    Cartesian   -0.93
     96 x         -4.405902     -4.357644     0.048259    Cartesian   -1.10
     96 y          0.000000      0.000000     0.000000    Cartesian    0.00
     96 z          4.405902      4.371092    -0.034810    Cartesian   -0.79
     97 x          6.608853      6.618078     0.009224    Cartesian    0.14
     97 y         -2.202951     -2.204479    -0.001528    Cartesian    0.07
     97 z          6.608853      6.611769     0.002915    Cartesian    0.04
     98 x         -2.202951     -2.184742     0.018209    Cartesian   -0.83
     98 y         -2.202951     -2.200474     0.002477    Cartesian   -0.11
     98 z          6.608853      6.603866    -0.004987    Cartesian   -0.08
     99 x          8.811805      8.794617    -0.017187    Cartesian   -0.20
     99 y          4.405902      4.374058    -0.031844    Cartesian   -0.72
     99 z          4.405902      4.374058    -0.031844    Cartesian   -0.72
    100 x          4.405902      4.413361     0.007459    Cartesian    0.17
    100 y          0.000000      0.000000     0.000000    Cartesian    0.00
    100 z          8.811805      8.796538    -0.015267    Cartesian   -0.17
    101 x          0.000000      0.010964     0.010964    Cartesian    0.00
    101 y          0.000000      0.000000     0.000000    Cartesian    0.00
    101 z          8.811805      8.797427    -0.014378    Cartesian   -0.16
    102 x         -4.405902     -4.367078     0.038824    Cartesian   -0.88
    102 y          4.405902      4.381937    -0.023965    Cartesian   -0.54
    102 z          4.405902      4.381937    -0.023965    Cartesian   -0.54
    103 x         11.014756     11.022276     0.007520    Cartesian    0.07
    103 y         -2.202951     -2.201426     0.001526    Cartesian   -0.07
    103 z         -2.202951     -2.201426     0.001526    Cartesian   -0.07
    104 x          2.202951      2.206804     0.003852    Cartesian    0.17
    104 y          6.608853      6.616301     0.007448    Cartesian    0.11
    104 z          6.608853      6.616301     0.007448    Cartesian    0.11
    105 x         -6.608853     -6.586518     0.022335    Cartesian   -0.34
    105 y         -2.202951     -2.204289    -0.001338    Cartesian    0.06
    105 z         -2.202951     -2.204289    -0.001338    Cartesian    0.06
    106 x          4.405902      4.410010     0.004108    Cartesian    0.09
    106 y          4.405902      4.402127    -0.003775    Cartesian   -0.09
    106 z          8.811805      8.801947    -0.009858    Cartesian   -0.11
    107 x          0.000000      0.008391     0.008391    Cartesian    0.00
    107 y          4.405902      4.401153    -0.004750    Cartesian   -0.11
    107 z          8.811805      8.800491    -0.011314    Cartesian   -0.13
    108 x          6.608853      6.614533     0.005680    Cartesian    0.09
    108 y          6.608853      6.616200     0.007347    Cartesian    0.11
    108 z          6.608853      6.616200     0.007347    Cartesian    0.11
    109 x         -2.202951     -2.200967     0.001984    Cartesian   -0.09
    109 y          6.608853      6.610225     0.001372    Cartesian    0.02
    109 z          6.608853      6.610225     0.001372    Cartesian    0.02
    110 x         13.217707     13.195271    -0.022436    Cartesian   -0.17
    110 y          0.000000      0.000000     0.000000    Cartesian    0.00
    110 z          0.000000      0.000000     0.000000    Cartesian    0.00
    111 x          8.811805      8.812574     0.000769    Cartesian    0.01
    111 y          0.000000      0.000000     0.000000    Cartesian    0.00
    111 z          8.811805      8.795807    -0.015997    Cartesian   -0.18
    112 x         -4.405902     -4.391610     0.014293    Cartesian   -0.32
    112 y          0.000000      0.000000     0.000000    Cartesian    0.00
    112 z          8.811805      8.795681    -0.016123    Cartesian   -0.18
    113 x         -8.811805     -8.789556     0.022249    Cartesian   -0.25
    113 y          0.000000      0.000000     0.000000    Cartesian    0.00
    113 z          0.000000      0.000000     0.000000    Cartesian    0.00
    114 x         11.014756     11.012974    -0.001781    Cartesian   -0.02
    114 y         -2.202951     -2.202507     0.000444    Cartesian   -0.02
    114 z          6.608853      6.607454    -0.001399    Cartesian   -0.02
    115 x          2.202951      2.207798     0.004847    Cartesian    0.22
    115 y         -2.202951     -2.202444     0.000507    Cartesian   -0.02
    115 z         11.014756     11.018040     0.003284    Cartesian    0.03
    116 x         -6.608853     -6.602876     0.005978    Cartesian   -0.09
    116 y          6.608853      6.602071    -0.006783    Cartesian   -0.10
    116 z         -2.202951     -2.201787     0.001165    Cartesian   -0.05
    117 x         13.217707     13.196416    -0.021291    Cartesian   -0.16
    117 y          0.000000      0.000000     0.000000    Cartesian    0.00
    117 z          4.405902      4.398114    -0.007788    Cartesian   -0.18
    118 x          8.811805      8.809947    -0.001857    Cartesian   -0.02
    118 y          4.405902      4.396425    -0.009477    Cartesian   -0.22
    118 z          8.811805      8.792387    -0.019418    Cartesian   -0.22
    119 x         -4.405902     -4.393252     0.012650    Cartesian   -0.29
    119 y          4.405902      4.396854    -0.009048    Cartesian   -0.21
    119 z          8.811805      8.791218    -0.020586    Cartesian   -0.23
    120 x         -8.811805     -8.783539     0.028265    Cartesian   -0.32
    120 y          0.000000      0.000000     0.000000    Cartesian    0.00
    120 z          4.405902      4.394405    -0.011498    Cartesian   -0.26
--------------------------------------------------------------------------------


  Time to end of optimisation  =        6.4928 seconds


  Peak dynamic memory used =      76.10 MB 


  Timing analysis for GULP :

--------------------------------------------------------------------------------
  Task / Subroutine                                          Time (Seconds)
--------------------------------------------------------------------------------
  Calculation of reciprocal space energy and derivatives          0.0003
  Calculation of reciprocal space energy using symmetry           0.0006
  Calculation of real space energy and derivatives                0.0021
  Calculation of real space energy using symmetry                 0.0068
  Calculation for region 1 energy and derivatives (2-b)           3.8705
  Calculation for region 2a energy                                2.3207
  Calculation for region 2b energy                                0.0026
  Calculation and manipulation of Hessian matrix                  0.2183
  Calculation of matrix inversion                                 0.0153
  Symmetry generation of equivalent positions                     0.0031
--------------------------------------------------------------------------------
  Total CPU time                                                  6.4929
--------------------------------------------------------------------------------


  Dump file written as Na3OCl.grs


  Job Finished at 16:16.35  8th January    2021                               

