********************************************************************************
*                       GENERAL UTILITY LATTICE PROGRAM                        *
*                                 Julian Gale                                  *
*                       Curtin Institute for Computation                       *
*                    School of Molecular and Life Sciences                     *
*                    Curtin University, Western Australia                      *
********************************************************************************
* Version = 5.2.0 * Last modified =  10th September 2020                       *
********************************************************************************
*  optimise     - perform optimisation run                                     *
*  conp         - constant pressure calculation                                *
*  property     - calculate properties for final geometry                      *
*  defect       - perform defect calculation after bulk run                    *
*  compare      - compare initial and final structures                         *
********************************************************************************

  Job Started  at 16:16.38  8th January    2021                               

  Number of CPUs =     1


  Total number of configurations input =      1

********************************************************************************
*  Input for Configuration =   1                                               *
********************************************************************************

  Formula = ClONa3                                                      

  Number of irreducible atoms/shells =       5


  Total number atoms/shells =       7

  Dimensionality = 3               :  Bulk   


  Symmetry :

  Crystal family                   :  Cubic       
  Crystal class  (Groth - 1921)    :  Cubic Hexakisoctahedral              

  Space group (centrosymmetric)    :  P M 3 M         

  Patterson group                  :  P m -3 m 

  Cartesian lattice vectors (Angstroms) :

        4.504000    0.000000    0.000000
        0.000000    4.504000    0.000000
        0.000000    0.000000    4.504000

  Cell parameters (Angstroms/Degrees):

  a =       4.5040    alpha =  90.0000
  b =       4.5040    beta  =  90.0000
  c =       4.5040    gamma =  90.0000

  Initial cell volume =          91.368216 Angs**3

  Temperature of configuration =   0.00     K 

  Pressure of configuration =         0.000 GPa 

  Fractional coordinates of asymmetric unit :

--------------------------------------------------------------------------------
   No.  Atomic       x           y          z         Charge      Occupancy
        Label      (Frac)      (Frac)     (Frac)        (e)         (Frac)  
--------------------------------------------------------------------------------
      1 Cl    c    0.000000    0.000000    0.000000     1.48500    1.000000    
      2 O     c    0.500000    0.500000    0.500000     0.18300    1.000000    
      3 Na    c    0.500000    0.500000    0.000000     1.00000    1.000000    
      4 Cl    s    0.000000    0.000000    0.000000    -2.48500    1.000000    
      5 O     s    0.500000    0.500000    0.500000    -2.18300    1.000000    
--------------------------------------------------------------------------------


  Constraints : 

--------------------------------------------------------------------------------
  Constraint no.      Unconstrained     Constrained    Coefficient    Offset
                         Variable         Variable
--------------------------------------------------------------------------------
           1              Strain 1        Strain 2       1.00000      0.0000
           2              Strain 1        Strain 3       1.00000      0.0000
--------------------------------------------------------------------------------


********************************************************************************
*  General input information                                                   *
********************************************************************************

  Species output for all configurations : 

--------------------------------------------------------------------------------
  Species    Type    Atomic    Atomic    Charge       Radii (Angs)     Library
                     Number     Mass       (e)     Cova   Ionic  VDW   Symbol
--------------------------------------------------------------------------------
    Na       Core       11      22.99   1.000000   0.970  0.000  2.300          
    O        Core        8      16.00   0.183000   0.730  0.000  1.360          
    O        Shell       8       0.00  -2.183000   0.730  0.000  1.360          
    Cl       Core       17      35.45   1.485000   0.990  0.000  1.650          
    Cl       Shell      17       0.00  -2.485000   0.990  0.000  1.650          
    Mg       Core       12      24.31   0.415000   1.100  0.000  0.000          
    Mg       Shell      12       0.00   1.585000   1.100  0.000  0.000          
    Ca       Core       20      40.08  -1.135000   0.990  0.000  0.000          
    Ca       Shell      20       0.00   3.135000   0.990  0.000  0.000          
    Sr       Core       38      87.62  -1.251000   1.120  0.000  0.000          
    Sr       Shell      38       0.00   3.251000   1.120  0.000  0.000          
    Ba       Core       56     137.33  -7.203000   1.340  0.000  0.000          
    Ba       Shell      56       0.00   9.203000   1.340  0.000  0.000          
--------------------------------------------------------------------------------


  Lattice summation method               =    Ewald          (3-D)
                                         =    Parry          (2-D)
                                         =    Saunders et al (1-D)
  Accuracy factor for lattice sums       =   12.000


  Analytic derivatives to be used

  Time limit = Infinity

  Maximum range for interatomic potentials =    100000.000000 Angstroms

  General interatomic potentials :

--------------------------------------------------------------------------------
Atom  Types   Potential      Parameter       Value         Units   Cutoffs(Ang)
  1     2                                                            Min /  Max 
--------------------------------------------------------------------------------
O    c O    s Spring (c-s)  Spring k 2       593.71600    eV*Ang^-2 0.000  0.800
                            Spring k 4       0.0000000    eV*Ang^-4 
--------------------------------------------------------------------------------
Cl   c Cl   s Spring (c-s)  Spring k 2       29.380000    eV*Ang^-2 0.000  0.800
                            Spring k 4       0.0000000    eV*Ang^-4 
--------------------------------------------------------------------------------
Mg   c Mg   s Spring (c-s)  Spring k 2       361.60000    eV*Ang^-2 0.000  0.800
                            Spring k 4       0.0000000    eV*Ang^-4 
--------------------------------------------------------------------------------
Ca   c Ca   s Spring (c-s)  Spring k 2       110.20000    eV*Ang^-2 0.000  0.800
                            Spring k 4       0.0000000    eV*Ang^-4 
--------------------------------------------------------------------------------
Sr   c Sr   s Spring (c-s)  Spring k 2       71.700000    eV*Ang^-2 0.000  0.800
                            Spring k 4       0.0000000    eV*Ang^-4 
--------------------------------------------------------------------------------
Ba   c Ba   s Spring (c-s)  Spring k 2       495.20000    eV*Ang^-2 0.000  0.800
                            Spring k 4       0.0000000    eV*Ang^-4 
--------------------------------------------------------------------------------
Na   c Na   c Buckingham    Buckingham A     1788.1900    eV        0.000 12.000
                            Buckingham rho  0.15900000    Ang       
                            Buckingham C     0.0000000    eV*Ang^6  
--------------------------------------------------------------------------------
Na   c O    s Buckingham    Buckingham A     588.38000    eV        0.000 12.000
                            Buckingham rho  0.33800000    Ang       
                            Buckingham C     0.0000000    eV*Ang^6  
--------------------------------------------------------------------------------
Na   c Cl   s Buckingham    Buckingham A     1170.4100    eV        0.000 12.000
                            Buckingham rho  0.31500000    Ang       
                            Buckingham C     0.0000000    eV*Ang^6  
--------------------------------------------------------------------------------
O    s O    s Buckingham    Buckingham A     22764.300    eV        0.000 12.000
                            Buckingham rho  0.14900000    Ang       
                            Buckingham C     13.190000    eV*Ang^6  
--------------------------------------------------------------------------------
O    s Cl   s Buckingham    Buckingham A     8286.9100    eV        0.000 12.000
                            Buckingham rho  0.25900000    Ang       
                            Buckingham C     62.200000    eV*Ang^6  
--------------------------------------------------------------------------------
Cl   s Cl   s Buckingham    Buckingham A     1227.2000    eV        0.000 12.000
                            Buckingham rho  0.32100000    Ang       
                            Buckingham C     14.530000    eV*Ang^6  
--------------------------------------------------------------------------------
O    s Mg   s Buckingham    Buckingham A     1428.5000    eV        0.000 12.000
                            Buckingham rho  0.29450000    Ang       
                            Buckingham C     0.0000000    eV*Ang^6  
--------------------------------------------------------------------------------
Mg   s Cl   s Buckingham    Buckingham A     4914.5400    eV        0.000 12.000
                            Buckingham rho  0.25700000    Ang       
                            Buckingham C     0.0000000    eV*Ang^6  
--------------------------------------------------------------------------------
O    s Ca   s Buckingham    Buckingham A     1090.4000    eV        0.000 12.000
                            Buckingham rho  0.34370000    Ang       
                            Buckingham C     0.0000000    eV*Ang^6  
--------------------------------------------------------------------------------
Cl   s Ca   s Buckingham    Buckingham A     2302.0000    eV        0.000 12.000
                            Buckingham rho  0.34020000    Ang       
                            Buckingham C     0.0000000    eV*Ang^6  
--------------------------------------------------------------------------------
O    s Sr   s Buckingham    Buckingham A     959.10000    eV        0.000 12.000
                            Buckingham rho  0.37210000    Ang       
                            Buckingham C     0.0000000    eV*Ang^6  
--------------------------------------------------------------------------------
Cl   s Sr   s Buckingham    Buckingham A     2191.0900    eV        0.000 12.000
                            Buckingham rho  0.34570000    Ang       
                            Buckingham C     0.0000000    eV*Ang^6  
--------------------------------------------------------------------------------
O    s Ba   s Buckingham    Buckingham A     905.70000    eV        0.000 12.000
                            Buckingham rho  0.39760000    Ang       
                            Buckingham C     0.0000000    eV*Ang^6  
--------------------------------------------------------------------------------
Cl   s Ba   s Buckingham    Buckingham A     2704.5500    eV        0.000 12.000
                            Buckingham rho  0.35280000    Ang       
                            Buckingham C     0.0000000    eV*Ang^6  
--------------------------------------------------------------------------------

********************************************************************************
*  Output for configuration   1                                                *
********************************************************************************


  Components of energy : 

--------------------------------------------------------------------------------
  Interatomic potentials     =           4.94315381 eV    
  Monopole - monopole (real) =         -10.03624526 eV    
  Monopole - monopole (recip)=         -29.53581274 eV    
  Monopole - monopole (total)=         -39.57205800 eV    
--------------------------------------------------------------------------------
  Total lattice energy       =         -34.62890419 eV    
--------------------------------------------------------------------------------
  Total lattice energy       =           -3341.1599 kJ/(mole unit cells)
--------------------------------------------------------------------------------


  Number of variables =        1

  Maximum number of calculations  =          1000
  Maximum Hessian update interval =            10
  Maximum step size               =   1.000000000
  Maximum parameter tolerance     =   0.000010000
  Maximum function  tolerance     =   0.000010000
  Maximum gradient  tolerance     =   0.001000000
  Maximum gradient  component     =   0.010000000

  Symmetry constrained optimisation

  Symmetry used for second derivatives

  Cell parameters to be optimised using strains

  Newton-Raphson optimiser to be used

  BFGS hessian update to be used

  Lower half triangular hessian to be used

  Start of bulk optimisation :

  Cycle:      0 Energy:       -34.628904  Gnorm:      4.328237  CPU:    0.014
  ** Hessian calculated **
  Cycle:      1 Energy:       -34.677667  Gnorm:      0.044008  CPU:    0.018
  Cycle:      2 Energy:       -34.677671  Gnorm:      0.003653  CPU:    0.021


  **** Optimisation achieved ****


  Final energy =     -34.67767136 eV
  Final Gnorm  =       0.00000010

  Components of energy : 

--------------------------------------------------------------------------------
  Interatomic potentials     =           5.77546103 eV    
  Monopole - monopole (real) =         -10.25970290 eV    
  Monopole - monopole (recip)=         -30.19342950 eV    
  Monopole - monopole (total)=         -40.45313239 eV    
--------------------------------------------------------------------------------
  Total lattice energy       =         -34.67767136 eV    
--------------------------------------------------------------------------------
  Total lattice energy       =           -3345.8652 kJ/(mole unit cells)
--------------------------------------------------------------------------------

  Final asymmetric unit coordinates :

--------------------------------------------------------------------------------
   No.  Atomic        x           y           z         Radius
        Label       (Frac)      (Frac)      (Frac)       (Angs) 
--------------------------------------------------------------------------------
     1  Cl    c     0.000000    0.000000    0.000000    0.000000
     2  O     c     0.500000    0.500000    0.500000    0.000000
     3  Na    c     0.500000    0.500000    0.000000    0.000000
     4  Cl    s     0.000000    0.000000    0.000000    0.000000
     5  O     s     0.500000    0.500000    0.500000    0.000000
--------------------------------------------------------------------------------

  Final Cartesian lattice vectors (Angstroms) :

        4.405902    0.000000    0.000000
        0.000000    4.405902    0.000000
        0.000000    0.000000    4.405902


  Final cell parameters and derivatives :

--------------------------------------------------------------------------------
       a            4.405902 Angstrom     dE/de1(xx)     0.000000 eV/strain
       b            4.405902 Angstrom     dE/de2(yy)     0.000000 eV/strain
       c            4.405902 Angstrom     dE/de3(zz)     0.000000 eV/strain
       alpha       90.000000 Degrees      dE/de4(yz)     0.000000 eV/strain
       beta        90.000000 Degrees      dE/de5(xz)     0.000000 eV/strain
       gamma       90.000000 Degrees      dE/de6(xy)     0.000000 eV/strain
--------------------------------------------------------------------------------

  Primitive cell volume =            85.527266 Angs**3

  Density of cell =      2.338030 g/cm**3

  Non-primitive cell volume =            85.527266 Angs**3


  Final internal derivatives :

--------------------------------------------------------------------------------
   No.  Atomic          a             b             c           Radius
        Label          (eV)          (eV)          (eV)        (eV/Angs)
--------------------------------------------------------------------------------
      1 Cl    c       0.000000      0.000000      0.000000      0.000000
      2 O     c       0.000000      0.000000      0.000000      0.000000
      3 Na    c       0.000000      0.000000      0.000000      0.000000
      4 Cl    s       0.000000      0.000000      0.000000      0.000000
      5 O     s       0.000000      0.000000      0.000000      0.000000
--------------------------------------------------------------------------------
  Maximum abs         0.000000      0.000000      0.000000      0.000000
--------------------------------------------------------------------------------

  Comparison of initial and final structures : 

--------------------------------------------------------------------------------
  Parameter   Initial value   Final value   Difference    Units      Percent
--------------------------------------------------------------------------------
    Volume        91.368216     85.527266    -5.840950    Angs**3     -6.39
    a              4.504000      4.405902    -0.098098    Angstroms   -2.18
    b              4.504000      4.405902    -0.098098    Angstroms   -2.18
    c              4.504000      4.405902    -0.098098    Angstroms   -2.18
    alpha         90.000000     90.000000     0.000000    Degrees      0.00
    beta          90.000000     90.000000     0.000000    Degrees      0.00
    gamma         90.000000     90.000000     0.000000    Degrees      0.00
      1 x          0.000000      0.000000     0.000000    Fractional   0.00
      1 y          0.000000      0.000000     0.000000    Fractional   0.00
      1 z          0.000000      0.000000     0.000000    Fractional   0.00
      2 x          0.500000      0.500000     0.000000    Fractional   0.00
      2 y          0.500000      0.500000     0.000000    Fractional   0.00
      2 z          0.500000      0.500000     0.000000    Fractional   0.00
      3 x          0.500000      0.500000     0.000000    Fractional   0.00
      3 y          0.500000      0.500000     0.000000    Fractional   0.00
      3 z          0.000000      0.000000     0.000000    Fractional   0.00
      4 x          0.000000      0.000000     0.000000    Fractional   0.00
      4 y          0.000000      0.000000     0.000000    Fractional   0.00
      4 z          0.000000      0.000000     0.000000    Fractional   0.00
      5 x          0.500000      0.500000     0.000000    Fractional   0.00
      5 y          0.500000      0.500000     0.000000    Fractional   0.00
      5 z          0.500000      0.500000     0.000000    Fractional   0.00
--------------------------------------------------------------------------------


  Born effective charge tensors : 

-------------------------------------------------------------------------------
  Atom             x           y             z
-------------------------------------------------------------------------------
    1 Cl    x      -0.9918     -0.0000     -0.0000
            y      -0.0000     -0.9918     -0.0000
            z      -0.0000     -0.0000     -0.9918
-------------------------------------------------------------------------------
    2 O     x      -2.2939      0.0000      0.0000
            y       0.0000     -2.2939      0.0000
            z       0.0000      0.0000     -2.2939
-------------------------------------------------------------------------------
    3 Na    x       1.2243      0.0000      0.0000
            y       0.0000      1.2243     -0.0000
            z       0.0000      0.0000      0.8372
-------------------------------------------------------------------------------




  Elastic Constant Matrix: (Units=GPa)

-------------------------------------------------------------------------------
  Indices      1         2         3         4         5         6    
-------------------------------------------------------------------------------
       1     82.7680   24.3534   24.3534   -0.0000    0.0000   -0.0000
       2     24.3534   82.7680   24.3534    0.0000   -0.0000   -0.0000
       3     24.3534   24.3534   82.7680    0.0000   -0.0000    0.0000
       4     -0.0000    0.0000    0.0000   24.3534   -0.0000    0.0000
       5      0.0000   -0.0000   -0.0000   -0.0000   24.3534    0.0000
       6     -0.0000   -0.0000    0.0000    0.0000    0.0000   24.3534
-------------------------------------------------------------------------------


  Elastic Compliance Matrix: (Units=1/GPa)

-------------------------------------------------------------------------------
  Indices      1         2         3         4         5         6    
-------------------------------------------------------------------------------
       1    0.013948 -0.003171 -0.003171  0.000000 -0.000000  0.000000
       2   -0.003171  0.013948 -0.003171 -0.000000  0.000000 -0.000000
       3   -0.003171 -0.003171  0.013948 -0.000000  0.000000 -0.000000
       4    0.000000 -0.000000 -0.000000  0.041062  0.000000 -0.000000
       5   -0.000000  0.000000  0.000000  0.000000  0.041062 -0.000000
       6    0.000000 -0.000000 -0.000000 -0.000000 -0.000000  0.041062
-------------------------------------------------------------------------------

  Mechanical properties :

-------------------------------------------------------------------------------
  Convention :                    Reuss         Voigt         Hill
-------------------------------------------------------------------------------
  Bulk  Modulus (GPa)     =      43.82493      43.82493      43.82493
  Shear Modulus (GPa)     =      26.08758      26.29496      26.19127
-------------------------------------------------------------------------------
  Velocity S-wave (km/s)  =       3.34035       3.35360       3.34698
  Velocity P-wave (km/s)  =       5.79842       5.80861       5.80351
-------------------------------------------------------------------------------
  Compressibility (1/GPa) =    0.02281806
-------------------------------------------------------------------------------
  Stress axis :                     x             y             z
-------------------------------------------------------------------------------
  Youngs Moduli (GPa)     =      71.69479      71.69479      71.69479
-------------------------------------------------------------------------------
  Poissons Ratio (x)      =                     0.22734       0.22734
  Poissons Ratio (y)      =       0.22734                     0.22734
  Poissons Ratio (z)      =       0.22734       0.22734
-------------------------------------------------------------------------------


  Piezoelectric Strain Matrix: (Units=C/m**2)

-------------------------------------------------------------------------------
  Indices      1         2         3         4         5         6    
-------------------------------------------------------------------------------
       x    -0.00000  -0.00000  -0.00000  -0.00000   0.00000  -0.00000
       y     0.00000  -0.00000   0.00000   0.00000  -0.00000   0.00000
       z    -0.00000  -0.00000   0.00000  -0.00000   0.00000  -0.00000
-------------------------------------------------------------------------------


  Piezoelectric Stress Matrix: (Units=10**-11 C/N)

-------------------------------------------------------------------------------
  Indices      1         2         3         4         5         6    
-------------------------------------------------------------------------------
       x     0.00000  -0.00000  -0.00000  -0.00000   0.00000  -0.00000
       y     0.00000  -0.00000   0.00000   0.00000  -0.00000   0.00000
       z    -0.00000  -0.00000   0.00000  -0.00000   0.00000  -0.00000
-------------------------------------------------------------------------------


  Static dielectric constant tensor : 

-------------------------------------------------------------------------------
              x         y         z
-------------------------------------------------------------------------------
       x    11.08357   0.00000   0.00000
       y     0.00000  11.08357   0.00000
       z     0.00000   0.00000  11.08357
--------------------------------------------------------------------------------

  High frequency dielectric constant tensor : 

-------------------------------------------------------------------------------
              x         y         z
-------------------------------------------------------------------------------
       x     1.50771   0.00000   0.00000
       y     0.00000   1.50771   0.00000
       z     0.00000   0.00000   1.50771
-------------------------------------------------------------------------------

  Static refractive indices : 

-------------------------------------------------------------------------------
    1 =    3.32920      2 =    3.32920      3 =    3.32920
-------------------------------------------------------------------------------

  High frequency refractive indices : 

-------------------------------------------------------------------------------
    1 =    1.22789      2 =    1.22789      3 =    1.22789
-------------------------------------------------------------------------------


  Time to end of optimisation =       0.0301 seconds

********************************************************************************
*  Defect calculation for configuration   1 :                                  *
********************************************************************************

  Total number of defects =      3

  Total charge on defect  =   1.00

  Defect centre is at   2.2520   0.0000   0.0000  Angs

  Region 1 radius =  12.0000      Number of ions =    622

  Number of symmetry inequivalent region 1 ions  =    120

  Region 2 radius =  16.0000      Number of ions =    760

  Number of symmetry inequivalent region 2a ions =    123

  Region 2a mode = 4 : screened electrostatics due to region 1 
                       neglect correction to region 1 forces from 2a
                       region 2a displacements based on defects only

  Region 2a ions will only interact with defects in region 1

  Vacancies:

--------------------------------------------------------------------------------
    Specification type     Symbol/Number         x          y          z
--------------------------------------------------------------------------------
    Cartesian                                4.504000   0.000000   0.000000
    Cartesian                                0.000000   0.000000   0.000000
--------------------------------------------------------------------------------

  Interstitials:

--------------------------------------------------------------------------------
    Specification type     Symbol/Number         x          y          z
--------------------------------------------------------------------------------
    Atom/Cartesian          Cl               1.981760   0.000000   0.000000
--------------------------------------------------------------------------------


  Symmetry reduced region 1 (Relative to defect centre) :

--------------------------------------------------------------------------------
   No.   Atomic       x            y             z       Radius  Multiplicity   
         Label      (Angs)       (Angs)        (Angs)    (Angs)     
--------------------------------------------------------------------------------
     1  Cl    c     -0.2702       0.0000       0.0000    0.0000     1    Defect
     2  Na    c     -0.0490 *    -2.2030 *     0.0000    0.0000     4          
     3  O     c     -0.0490 *    -2.2030 *    -2.2030    0.0000     4          
     4  Na    c      2.1539 *    -2.2030 *    -2.2030    0.0000     4          
     5  Na    c     -2.2520 *    -2.2030 *    -2.2030    0.0000     4          
     6  Na    c      4.3569 *    -2.2030 *     0.0000    0.0000     4          
     7  Cl    c      2.1539 *     0.0000       4.4059 *  0.0000     4          
     8  Na    c     -0.0490 *    -2.2030 *     4.4059 *  0.0000     8          
     9  Cl    c     -2.2520 *     0.0000       4.4059 *  0.0000     4          
    10  Na    c     -4.4550 *    -2.2030 *     0.0000    0.0000     4          
    11  O     c      4.3569 *    -2.2030 *    -2.2030    0.0000     4          
    12  O     c     -4.4550 *    -2.2030 *    -2.2030    0.0000     4          
    13  Cl    c      6.5598 *     0.0000       0.0000    0.0000     1          
    14  Na    c      4.3569 *     4.4059 *    -2.2030 *  0.0000     8          
    15  Cl    c      2.1539 *     4.4059 *     4.4059    0.0000     4          
    16  Na    c     -0.0490 *     6.6089 *     0.0000    0.0000     4          
    17  Cl    c     -2.2520 *     4.4059 *     4.4059    0.0000     4          
    18  Na    c     -4.4550 *    -2.2030 *     4.4059 *  0.0000     8          
    19  Cl    c     -6.6579 *     0.0000       0.0000    0.0000     1          
    20  O     c     -0.0490 *    -2.2030 *     6.6089 *  0.0000     8          
    21  Na    c      6.5598 *    -2.2030 *    -2.2030    0.0000     4          
    22  Na    c      2.1539 *    -2.2030 *     6.6089 *  0.0000     8          
    23  Na    c     -2.2520 *     6.6089 *    -2.2030 *  0.0000     8          
    24  Na    c     -6.6579 *    -2.2030 *    -2.2030    0.0000     4          
    25  Cl    c      6.5598 *     0.0000       4.4059 *  0.0000     4          
    26  Na    c      4.3569 *     6.6089 *     0.0000    0.0000     4          
    27  Na    c     -0.0490 *     6.6089 *     4.4059 *  0.0000     8          
    28  Na    c     -4.4550 *     6.6089 *     0.0000    0.0000     4          
    29  Cl    c     -6.6579 *     0.0000       4.4059 *  0.0000     4          
    30  O     c      4.3569 *    -2.2030 *     6.6089 *  0.0000     8          
    31  O     c     -4.4550 *    -2.2030 *     6.6089 *  0.0000     8          
    32  Na    c      8.7628 *    -2.2030 *     0.0000    0.0000     4          
    33  Cl    c      6.5598 *     4.4059 *     4.4059    0.0000     4          
    34  Na    c      4.3569 *     6.6089 *     4.4059 *  0.0000     8          
    35  Cl    c      2.1539 *     0.0000       8.8118 *  0.0000     4          
    36  Na    c     -0.0490 *    -2.2030 *     8.8118 *  0.0000     8          
    37  Cl    c     -2.2520 *     0.0000       8.8118 *  0.0000     4          
    38  Na    c     -4.4550 *     6.6089 *     4.4059 *  0.0000     8          
    39  Cl    c     -6.6579 *     4.4059 *     4.4059    0.0000     4          
    40  Na    c     -8.8609 *    -2.2030 *     0.0000    0.0000     4          
    41  O     c      8.7628 *    -2.2030 *    -2.2030    0.0000     4          
    42  O     c     -0.0490 *     6.6089 *     6.6089    0.0000     4          
    43  O     c     -8.8609 *    -2.2030 *    -2.2030    0.0000     4          
    44  Na    c      6.5598 *    -2.2030 *     6.6089 *  0.0000     8          
    45  Na    c      2.1539 *     6.6089 *     6.6089    0.0000     4          
    46  Na    c     -2.2520 *     6.6089 *     6.6089    0.0000     4          
    47  Na    c     -6.6579 *    -2.2030 *     6.6089 *  0.0000     8          
    48  Na    c      8.7628 *     4.4059 *    -2.2030 *  0.0000     8          
    49  Na    c      4.3569 *    -2.2030 *     8.8118 *  0.0000     8          
    50  Cl    c      2.1539 *     4.4059 *     8.8118 *  0.0000     8          
    51  Cl    c     -2.2520 *     4.4059 *     8.8118 *  0.0000     8          
    52  Na    c     -4.4550 *    -2.2030 *     8.8118 *  0.0000     8          
    53  Na    c     -8.8609 *    -2.2030 *     4.4059 *  0.0000     8          
    54  O     c      4.3569 *     6.6089 *     6.6089    0.0000     4          
    55  O     c     -4.4550 *     6.6089 *     6.6089    0.0000     4          
    56  Cl    c     10.9657 *     0.0000       0.0000    0.0000     1          
    57  Na    c      8.7628 *     6.6089 *     0.0000    0.0000     4          
    58  Cl    c      6.5598 *     0.0000       8.8118 *  0.0000     4          
    59  Na    c     -0.0490 *     6.6089 *     8.8118 *  0.0000     8          
    60  Na    c     -0.0490 *    11.0148 *     0.0000    0.0000     4          
    61  Cl    c     -6.6579 *     0.0000       8.8118 *  0.0000     4          
    62  Na    c     -8.8609 *     6.6089 *     0.0000    0.0000     4          
    63  Cl    c    -11.0638 *     0.0000       0.0000    0.0000     1          
    64  O     c      8.7628 *    -2.2030 *     6.6089 *  0.0000     8          
    65  O     c     -0.0490 *    -2.2030 *    11.0148 *  0.0000     8          
    66  O     c     -8.8609 *     6.6089 *    -2.2030 *  0.0000     8          
    67  Na    c     10.9657 *    -2.2030 *    -2.2030    0.0000     4          
    68  Na    c      6.5598 *     6.6089 *     6.6089    0.0000     4          
    69  Na    c      2.1539 *    -2.2030 *    11.0148 *  0.0000     8          
    70  Na    c     -2.2520 *    -2.2030 *    11.0148 *  0.0000     8          
    71  Na    c     -6.6579 *     6.6089 *     6.6089    0.0000     4          
    72  Na    c    -11.0638 *    -2.2030 *    -2.2030    0.0000     4          
    73  Cl    c     10.9657 *     0.0000       4.4059 *  0.0000     4          
    74  Na    c      8.7628 *     6.6089 *     4.4059 *  0.0000     8          
    75  Cl    c      6.5598 *     4.4059 *     8.8118 *  0.0000     8          
    76  Na    c      4.3569 *    11.0148 *     0.0000    0.0000     4          
    77  Na    c      4.3569 *     6.6089 *     8.8118 *  0.0000     8          
    78  Na    c     -0.0490 *    11.0148 *     4.4059 *  0.0000     8          
    79  Na    c     -4.4550 *    11.0148 *     0.0000    0.0000     4          
    80  Na    c     -4.4550 *     8.8118 *     6.6089 *  0.0000     8          
    81  Cl    c     -6.6579 *     4.4059 *     8.8118 *  0.0000     8          
    82  Na    c     -8.8609 *     6.6089 *     4.4059 *  0.0000     8          
    83  Cl    c    -11.0638 *     0.0000       4.4059 *  0.0000     4          
    84  Cl    s     -0.2702       0.0000       0.0000    0.0000     1    Defect
    85  O     s     -0.0490 *    -2.2030 *    -2.2030    0.0000     4          
    86  Cl    s      2.1539 *     0.0000       4.4059 *  0.0000     4          
    87  Cl    s     -2.2520 *     0.0000       4.4059 *  0.0000     4          
    88  O     s      4.3569 *    -2.2030 *    -2.2030    0.0000     4          
    89  O     s     -4.4550 *    -2.2030 *    -2.2030    0.0000     4          
    90  Cl    s      6.5598 *     0.0000       0.0000    0.0000     1          
    91  Cl    s      2.1539 *     4.4059 *     4.4059    0.0000     4          
    92  Cl    s     -2.2520 *     4.4059 *     4.4059    0.0000     4          
    93  Cl    s     -6.6579 *     0.0000       0.0000    0.0000     1          
    94  O     s     -0.0490 *    -2.2030 *     6.6089 *  0.0000     8          
    95  Cl    s      6.5598 *     0.0000       4.4059 *  0.0000     4          
    96  Cl    s     -6.6579 *     0.0000       4.4059 *  0.0000     4          
    97  O     s      4.3569 *    -2.2030 *     6.6089 *  0.0000     8          
    98  O     s     -4.4550 *    -2.2030 *     6.6089 *  0.0000     8          
    99  Cl    s      6.5598 *     4.4059 *     4.4059    0.0000     4          
   100  Cl    s      2.1539 *     0.0000       8.8118 *  0.0000     4          
   101  Cl    s     -2.2520 *     0.0000       8.8118 *  0.0000     4          
   102  Cl    s     -6.6579 *     4.4059 *     4.4059    0.0000     4          
   103  O     s      8.7628 *    -2.2030 *    -2.2030    0.0000     4          
   104  O     s     -0.0490 *     6.6089 *     6.6089    0.0000     4          
   105  O     s     -8.8609 *    -2.2030 *    -2.2030    0.0000     4          
   106  Cl    s      2.1539 *     4.4059 *     8.8118 *  0.0000     8          
   107  Cl    s     -2.2520 *     4.4059 *     8.8118 *  0.0000     8          
   108  O     s      4.3569 *     6.6089 *     6.6089    0.0000     4          
   109  O     s     -4.4550 *     6.6089 *     6.6089    0.0000     4          
   110  Cl    s     10.9657 *     0.0000       0.0000    0.0000     1          
   111  Cl    s      6.5598 *     0.0000       8.8118 *  0.0000     4          
   112  Cl    s     -6.6579 *     0.0000       8.8118 *  0.0000     4          
   113  Cl    s    -11.0638 *     0.0000       0.0000    0.0000     1          
   114  O     s      8.7628 *    -2.2030 *     6.6089 *  0.0000     8          
   115  O     s     -0.0490 *    -2.2030 *    11.0148 *  0.0000     8          
   116  O     s     -8.8609 *     6.6089 *    -2.2030 *  0.0000     8          
   117  Cl    s     10.9657 *     0.0000       4.4059 *  0.0000     4          
   118  Cl    s      6.5598 *     4.4059 *     8.8118 *  0.0000     8          
   119  Cl    s     -6.6579 *     4.4059 *     8.8118 *  0.0000     8          
   120  Cl    s    -11.0638 *     0.0000       4.4059 *  0.0000     4          
--------------------------------------------------------------------------------


  Constraints on symmetry reduced coordinates :

--------------------------------------------------------------------------------
  Constraint no.      Unconstrained     Constrained    Coefficient    
                         Variable         Variable
--------------------------------------------------------------------------------
           1                 3 y             3 z         1.00000
           2                 4 y             4 z         1.00000
           3                 5 y             5 z         1.00000
           4                11 y            11 z         1.00000
           5                12 y            12 z         1.00000
           6                15 y            15 z         1.00000
           7                17 y            17 z         1.00000
           8                21 y            21 z         1.00000
           9                24 y            24 z         1.00000
          10                33 y            33 z         1.00000
          11                39 y            39 z         1.00000
          12                41 y            41 z         1.00000
          13                42 y            42 z         1.00000
          14                43 y            43 z         1.00000
          15                45 y            45 z         1.00000
          16                46 y            46 z         1.00000
          17                54 y            54 z         1.00000
          18                55 y            55 z         1.00000
          19                67 y            67 z         1.00000
          20                68 y            68 z         1.00000
          21                71 y            71 z         1.00000
          22                72 y            72 z         1.00000
          23                85 y            85 z         1.00000
          24                88 y            88 z         1.00000
          25                89 y            89 z         1.00000
          26                91 y            91 z         1.00000
          27                92 y            92 z         1.00000
          28                99 y            99 z         1.00000
          29               102 y           102 z         1.00000
          30               103 y           103 z         1.00000
          31               104 y           104 z         1.00000
          32               105 y           105 z         1.00000
          33               108 y           108 z         1.00000
          34               109 y           109 z         1.00000
--------------------------------------------------------------------------------


  Components of defect energy : 

--------------------------------------------------------------------------------
  Region 1 - region 1                   =     35.52909149 eV
  Region 1 - region 2a (unrelaxed)      =    -25.57983079 eV
  Region 1 - 2a (relaxed - correction)  =     -0.24045587 eV
  Region 1 (Total)                      =      9.70880482 eV
  Region 2a                             =      0.12026725 eV
  Region 2b                             =     -0.41150757 eV
--------------------------------------------------------------------------------
  Total defect energy                   =      9.41756450 eV
--------------------------------------------------------------------------------

  Largest displacement in region 2 =   0.0169 Angstroms


  Number of variables =      271

  Maximum number of calculations  =        1000
  Maximum Hessian update interval =          10
  Maximum step size               =   1.0000000
  Maximum parameter tolerance     =   0.0000100
  Maximum function  tolerance     =   0.0000100
  Maximum gradient  tolerance     =   0.0010000

  Symmetry adapted optimisation

  Symmetry to be used for second derivatives

  Newton-Raphson optimiser to be used

  BFGS hessian update to be used

  Lower half triangular hessian to be used

  Start of defect optimisation :

  Cycle:      0 Defect Energy:   9.417565  Gnorm:     0.091737  CPU:    1.521
  ** Hessian calculated **
  Cycle:      1 Defect Energy:   7.080294  Gnorm:     0.037455  CPU:    3.684
  Cycle:      2 Defect Energy:   6.839531  Gnorm:     0.027240  CPU:    5.052
  Cycle:      3 Defect Energy:   6.463490  Gnorm:     0.005339  CPU:   10.337
  Cycle:      4 Defect Energy:   6.452377  Gnorm:     0.004329  CPU:   10.790
  Cycle:      5 Defect Energy:   6.442980  Gnorm:     0.002992  CPU:   11.187
  Cycle:      6 Defect Energy:   6.438241  Gnorm:     0.002092  CPU:   11.579
  Cycle:      7 Defect Energy:   6.435821  Gnorm:     0.001454  CPU:   11.979
  Cycle:      8 Defect Energy:   6.434595  Gnorm:     0.001013  CPU:   12.377
  Cycle:      9 Defect Energy:   6.433972  Gnorm:     0.000704  CPU:   12.772
  Cycle:     10 Defect Energy:   6.433654  Gnorm:     0.000491  CPU:   13.168
  ** Hessian calculated **
  Cycle:     11 Defect Energy:   6.433490  Gnorm:     0.000344  CPU:   14.213
  Cycle:     12 Defect Energy:   6.433403  Gnorm:     0.000241  CPU:   14.613
  Cycle:     13 Defect Energy:   6.433355  Gnorm:     0.000169  CPU:   15.003
  Cycle:     14 Defect Energy:   6.433328  Gnorm:     0.000118  CPU:   15.399
  Cycle:     15 Defect Energy:   6.433313  Gnorm:     0.000083  CPU:   15.861


  **** Optimisation achieved ****


  Final defect energy  =        6.43330385
  Final defect Gnorm   =        0.00005793

  Components of defect energy : 

--------------------------------------------------------------------------------
  Region 1 - region 1                   =     30.17243328 eV
  Region 1 - region 2a (unrelaxed)      =    -23.23686404 eV
  Region 1 - 2a (relaxed - correction)  =     -0.18134895 eV
  Region 1 (Total)                      =      6.75422029 eV
  Region 2a                             =      0.09062468 eV
  Region 2b                             =     -0.41154112 eV
--------------------------------------------------------------------------------
  Total defect energy                   =      6.43330385 eV
--------------------------------------------------------------------------------

  Largest displacement in region 2 =   0.0169 Angstroms

  Final coordinates of region 1 :

--------------------------------------------------------------------------------
   No.  Atomic        x           y           z          Radius      Charge
        Label       (Angs)      (Angs)      (Angs)       (Angs)       (e) 
--------------------------------------------------------------------------------
     1  Cl    c     1.981760    0.000000    0.000000    0.000000    1.485000
     2  Na    c     2.274415   -2.475945    0.000000    0.000000    1.000000
     3  Na    c     2.274415    2.475945    0.000000    0.000000    1.000000
     4  Na    c     2.274415    0.000000   -2.475945    0.000000    1.000000
     5  Na    c     2.274415    0.000000    2.475945    0.000000    1.000000
     6  O     c     2.240643   -2.323477   -2.323477    0.000000    0.183000
     7  O     c     2.240643   -2.323477    2.323477    0.000000    0.183000
     8  O     c     2.240643    2.323477   -2.323477    0.000000    0.183000
     9  O     c     2.240643    2.323477    2.323477    0.000000    0.183000
    10  Na    c     4.398384   -2.352032   -2.352032    0.000000    1.000000
    11  Na    c     4.398384   -2.352032    2.352032    0.000000    1.000000
    12  Na    c     4.398384    2.352032   -2.352032    0.000000    1.000000
    13  Na    c     4.398384    2.352032    2.352032    0.000000    1.000000
    14  Na    c     0.067487   -2.234390   -2.234390    0.000000    1.000000
    15  Na    c     0.067487   -2.234390    2.234390    0.000000    1.000000
    16  Na    c     0.067487    2.234390   -2.234390    0.000000    1.000000
    17  Na    c     0.067487    2.234390    2.234390    0.000000    1.000000
    18  Na    c     6.690862   -2.320209    0.000000    0.000000    1.000000
    19  Na    c     6.690862    2.320209    0.000000    0.000000    1.000000
    20  Na    c     6.690862    0.000000   -2.320209    0.000000    1.000000
    21  Na    c     6.690862    0.000000    2.320209    0.000000    1.000000
    22  Cl    c     4.429863    0.000000    4.399960    0.000000    1.485000
    23  Cl    c     4.429863    0.000000   -4.399960    0.000000    1.485000
    24  Cl    c     4.429863    4.399960    0.000000    0.000000    1.485000
    25  Cl    c     4.429863   -4.399960    0.000000    0.000000    1.485000
    26  Na    c     2.172293   -2.308285    4.481580    0.000000    1.000000
    27  Na    c     2.172293   -2.308285   -4.481580    0.000000    1.000000
    28  Na    c     2.172293    2.308285    4.481580    0.000000    1.000000
    29  Na    c     2.172293    2.308285   -4.481580    0.000000    1.000000
    30  Na    c     2.172293    4.481580   -2.308285    0.000000    1.000000
    31  Na    c     2.172293    4.481580    2.308285    0.000000    1.000000
    32  Na    c     2.172293   -4.481580   -2.308285    0.000000    1.000000
    33  Na    c     2.172293   -4.481580    2.308285    0.000000    1.000000
    34  Cl    c     0.026474    0.000000    4.385010    0.000000    1.485000
    35  Cl    c     0.026474    0.000000   -4.385010    0.000000    1.485000
    36  Cl    c     0.026474    4.385010    0.000000    0.000000    1.485000
    37  Cl    c     0.026474   -4.385010    0.000000    0.000000    1.485000
    38  Na    c    -2.304999   -2.307481    0.000000    0.000000    1.000000
    39  Na    c    -2.304999    2.307481    0.000000    0.000000    1.000000
    40  Na    c    -2.304999    0.000000   -2.307481    0.000000    1.000000
    41  Na    c    -2.304999    0.000000    2.307481    0.000000    1.000000
    42  O     c     6.581244   -2.189142   -2.189142    0.000000    0.183000
    43  O     c     6.581244   -2.189142    2.189142    0.000000    0.183000
    44  O     c     6.581244    2.189142   -2.189142    0.000000    0.183000
    45  O     c     6.581244    2.189142    2.189142    0.000000    0.183000
    46  O     c    -2.142528   -2.182055   -2.182055    0.000000    0.183000
    47  O     c    -2.142528   -2.182055    2.182055    0.000000    0.183000
    48  O     c    -2.142528    2.182055   -2.182055    0.000000    0.183000
    49  O     c    -2.142528    2.182055    2.182055    0.000000    0.183000
    50  Cl    c     8.742056    0.000000    0.000000    0.000000    1.485000
    51  Na    c     6.636788    4.422235   -2.224929    0.000000    1.000000
    52  Na    c     6.636788    4.422235    2.224929    0.000000    1.000000
    53  Na    c     6.636788   -4.422235   -2.224929    0.000000    1.000000
    54  Na    c     6.636788   -4.422235    2.224929    0.000000    1.000000
    55  Na    c     6.636788   -2.224929    4.422235    0.000000    1.000000
    56  Na    c     6.636788   -2.224929   -4.422235    0.000000    1.000000
    57  Na    c     6.636788    2.224929    4.422235    0.000000    1.000000
    58  Na    c     6.636788    2.224929   -4.422235    0.000000    1.000000
    59  Cl    c     4.443236    4.435194    4.435194    0.000000    1.485000
    60  Cl    c     4.443236    4.435194   -4.435194    0.000000    1.485000
    61  Cl    c     4.443236   -4.435194    4.435194    0.000000    1.485000
    62  Cl    c     4.443236   -4.435194   -4.435194    0.000000    1.485000
    63  Na    c     2.209646    6.623704    0.000000    0.000000    1.000000
    64  Na    c     2.209646   -6.623704    0.000000    0.000000    1.000000
    65  Na    c     2.209646    0.000000    6.623704    0.000000    1.000000
    66  Na    c     2.209646    0.000000   -6.623704    0.000000    1.000000
    67  Cl    c    -0.014267    4.423198    4.423198    0.000000    1.485000
    68  Cl    c    -0.014267    4.423198   -4.423198    0.000000    1.485000
    69  Cl    c    -0.014267   -4.423198    4.423198    0.000000    1.485000
    70  Cl    c    -0.014267   -4.423198   -4.423198    0.000000    1.485000
    71  Na    c    -2.139836   -2.226991    4.413353    0.000000    1.000000
    72  Na    c    -2.139836   -2.226991   -4.413353    0.000000    1.000000
    73  Na    c    -2.139836    2.226991    4.413353    0.000000    1.000000
    74  Na    c    -2.139836    2.226991   -4.413353    0.000000    1.000000
    75  Na    c    -2.139836    4.413353   -2.226991    0.000000    1.000000
    76  Na    c    -2.139836    4.413353    2.226991    0.000000    1.000000
    77  Na    c    -2.139836   -4.413353   -2.226991    0.000000    1.000000
    78  Na    c    -2.139836   -4.413353    2.226991    0.000000    1.000000
    79  Cl    c    -4.328378    0.000000    0.000000    0.000000    1.485000
    80  O     c     2.207199   -2.213288    6.646094    0.000000    0.183000
    81  O     c     2.207199   -2.213288   -6.646094    0.000000    0.183000
    82  O     c     2.207199    2.213288    6.646094    0.000000    0.183000
    83  O     c     2.207199    2.213288   -6.646094    0.000000    0.183000
    84  O     c     2.207199    6.646094   -2.213288    0.000000    0.183000
    85  O     c     2.207199    6.646094    2.213288    0.000000    0.183000
    86  O     c     2.207199   -6.646094   -2.213288    0.000000    0.183000
    87  O     c     2.207199   -6.646094    2.213288    0.000000    0.183000
    88  Na    c     8.815510   -2.203796   -2.203796    0.000000    1.000000
    89  Na    c     8.815510   -2.203796    2.203796    0.000000    1.000000
    90  Na    c     8.815510    2.203796   -2.203796    0.000000    1.000000
    91  Na    c     8.815510    2.203796    2.203796    0.000000    1.000000
    92  Na    c     4.413000   -2.207446    6.637712    0.000000    1.000000
    93  Na    c     4.413000   -2.207446   -6.637712    0.000000    1.000000
    94  Na    c     4.413000    2.207446    6.637712    0.000000    1.000000
    95  Na    c     4.413000    2.207446   -6.637712    0.000000    1.000000
    96  Na    c     4.413000    6.637712   -2.207446    0.000000    1.000000
    97  Na    c     4.413000    6.637712    2.207446    0.000000    1.000000
    98  Na    c     4.413000   -6.637712   -2.207446    0.000000    1.000000
    99  Na    c     4.413000   -6.637712    2.207446    0.000000    1.000000
   100  Na    c     0.002779    6.691230   -2.205178    0.000000    1.000000
   101  Na    c     0.002779    6.691230    2.205178    0.000000    1.000000
   102  Na    c     0.002779   -6.691230   -2.205178    0.000000    1.000000
   103  Na    c     0.002779   -6.691230    2.205178    0.000000    1.000000
   104  Na    c     0.002779   -2.205178    6.691230    0.000000    1.000000
   105  Na    c     0.002779   -2.205178   -6.691230    0.000000    1.000000
   106  Na    c     0.002779    2.205178    6.691230    0.000000    1.000000
   107  Na    c     0.002779    2.205178   -6.691230    0.000000    1.000000
   108  Na    c    -4.386815   -2.245893   -2.245893    0.000000    1.000000
   109  Na    c    -4.386815   -2.245893    2.245893    0.000000    1.000000
   110  Na    c    -4.386815    2.245893   -2.245893    0.000000    1.000000
   111  Na    c    -4.386815    2.245893    2.245893    0.000000    1.000000
   112  Cl    c     8.781825    0.000000    4.374821    0.000000    1.485000
   113  Cl    c     8.781825    0.000000   -4.374821    0.000000    1.485000
   114  Cl    c     8.781825    4.374821    0.000000    0.000000    1.485000
   115  Cl    c     8.781825   -4.374821    0.000000    0.000000    1.485000
   116  Na    c     6.617395    6.621591    0.000000    0.000000    1.000000
   117  Na    c     6.617395   -6.621591    0.000000    0.000000    1.000000
   118  Na    c     6.617395    0.000000    6.621591    0.000000    1.000000
   119  Na    c     6.617395    0.000000   -6.621591    0.000000    1.000000
   120  Na    c     2.208318    6.683076    4.426221    0.000000    1.000000
   121  Na    c     2.208318    6.683076   -4.426221    0.000000    1.000000
   122  Na    c     2.208318   -6.683076    4.426221    0.000000    1.000000
   123  Na    c     2.208318   -6.683076   -4.426221    0.000000    1.000000
   124  Na    c     2.208318    4.426221    6.683076    0.000000    1.000000
   125  Na    c     2.208318    4.426221   -6.683076    0.000000    1.000000
   126  Na    c     2.208318   -4.426221    6.683076    0.000000    1.000000
   127  Na    c     2.208318   -4.426221   -6.683076    0.000000    1.000000
   128  Na    c    -2.214200    6.611482    0.000000    0.000000    1.000000
   129  Na    c    -2.214200   -6.611482    0.000000    0.000000    1.000000
   130  Na    c    -2.214200    0.000000    6.611482    0.000000    1.000000
   131  Na    c    -2.214200    0.000000   -6.611482    0.000000    1.000000
   132  Cl    c    -4.363619    0.000000    4.375151    0.000000    1.485000
   133  Cl    c    -4.363619    0.000000   -4.375151    0.000000    1.485000
   134  Cl    c    -4.363619    4.375151    0.000000    0.000000    1.485000
   135  Cl    c    -4.363619   -4.375151    0.000000    0.000000    1.485000
   136  O     c     6.612483   -2.204138    6.613738    0.000000    0.183000
   137  O     c     6.612483   -2.204138   -6.613738    0.000000    0.183000
   138  O     c     6.612483    2.204138    6.613738    0.000000    0.183000
   139  O     c     6.612483    2.204138   -6.613738    0.000000    0.183000
   140  O     c     6.612483    6.613738   -2.204138    0.000000    0.183000
   141  O     c     6.612483    6.613738    2.204138    0.000000    0.183000
   142  O     c     6.612483   -6.613738   -2.204138    0.000000    0.183000
   143  O     c     6.612483   -6.613738    2.204138    0.000000    0.183000
   144  O     c    -2.193555   -2.201942    6.610256    0.000000    0.183000
   145  O     c    -2.193555   -2.201942   -6.610256    0.000000    0.183000
   146  O     c    -2.193555    2.201942    6.610256    0.000000    0.183000
   147  O     c    -2.193555    2.201942   -6.610256    0.000000    0.183000
   148  O     c    -2.193555    6.610256   -2.201942    0.000000    0.183000
   149  O     c    -2.193555    6.610256    2.201942    0.000000    0.183000
   150  O     c    -2.193555   -6.610256   -2.201942    0.000000    0.183000
   151  O     c    -2.193555   -6.610256    2.201942    0.000000    0.183000
   152  Na    c    11.037402   -2.207413    0.000000    0.000000    1.000000
   153  Na    c    11.037402    2.207413    0.000000    0.000000    1.000000
   154  Na    c    11.037402    0.000000   -2.207413    0.000000    1.000000
   155  Na    c    11.037402    0.000000    2.207413    0.000000    1.000000
   156  Cl    c     8.791533    4.378934    4.378934    0.000000    1.485000
   157  Cl    c     8.791533    4.378934   -4.378934    0.000000    1.485000
   158  Cl    c     8.791533   -4.378934    4.378934    0.000000    1.485000
   159  Cl    c     8.791533   -4.378934   -4.378934    0.000000    1.485000
   160  Na    c     6.607736    6.626749    4.414542    0.000000    1.000000
   161  Na    c     6.607736    6.626749   -4.414542    0.000000    1.000000
   162  Na    c     6.607736   -6.626749    4.414542    0.000000    1.000000
   163  Na    c     6.607736   -6.626749   -4.414542    0.000000    1.000000
   164  Na    c     6.607736    4.414542    6.626749    0.000000    1.000000
   165  Na    c     6.607736    4.414542   -6.626749    0.000000    1.000000
   166  Na    c     6.607736   -4.414542    6.626749    0.000000    1.000000
   167  Na    c     6.607736   -4.414542   -6.626749    0.000000    1.000000
   168  Cl    c     4.410009    0.000000    8.805894    0.000000    1.485000
   169  Cl    c     4.410009    0.000000   -8.805894    0.000000    1.485000
   170  Cl    c     4.410009    8.805894    0.000000    0.000000    1.485000
   171  Cl    c     4.410009   -8.805894    0.000000    0.000000    1.485000
   172  Na    c     2.225280   -2.192597    8.837925    0.000000    1.000000
   173  Na    c     2.225280   -2.192597   -8.837925    0.000000    1.000000
   174  Na    c     2.225280    2.192597    8.837925    0.000000    1.000000
   175  Na    c     2.225280    2.192597   -8.837925    0.000000    1.000000
   176  Na    c     2.225280    8.837925   -2.192597    0.000000    1.000000
   177  Na    c     2.225280    8.837925    2.192597    0.000000    1.000000
   178  Na    c     2.225280   -8.837925   -2.192597    0.000000    1.000000
   179  Na    c     2.225280   -8.837925    2.192597    0.000000    1.000000
   180  Cl    c     0.002628    0.000000    8.806396    0.000000    1.485000
   181  Cl    c     0.002628    0.000000   -8.806396    0.000000    1.485000
   182  Cl    c     0.002628    8.806396    0.000000    0.000000    1.485000
   183  Cl    c     0.002628   -8.806396    0.000000    0.000000    1.485000
   184  Na    c    -2.201150    6.624320    4.411583    0.000000    1.000000
   185  Na    c    -2.201150    6.624320   -4.411583    0.000000    1.000000
   186  Na    c    -2.201150   -6.624320    4.411583    0.000000    1.000000
   187  Na    c    -2.201150   -6.624320   -4.411583    0.000000    1.000000
   188  Na    c    -2.201150    4.411583    6.624320    0.000000    1.000000
   189  Na    c    -2.201150    4.411583   -6.624320    0.000000    1.000000
   190  Na    c    -2.201150   -4.411583    6.624320    0.000000    1.000000
   191  Na    c    -2.201150   -4.411583   -6.624320    0.000000    1.000000
   192  Cl    c    -4.372925    4.379493    4.379493    0.000000    1.485000
   193  Cl    c    -4.372925    4.379493   -4.379493    0.000000    1.485000
   194  Cl    c    -4.372925   -4.379493    4.379493    0.000000    1.485000
   195  Cl    c    -4.372925   -4.379493   -4.379493    0.000000    1.485000
   196  Na    c    -6.585515   -2.203657    0.000000    0.000000    1.000000
   197  Na    c    -6.585515    2.203657    0.000000    0.000000    1.000000
   198  Na    c    -6.585515    0.000000   -2.203657    0.000000    1.000000
   199  Na    c    -6.585515    0.000000    2.203657    0.000000    1.000000
   200  O     c    11.011150   -2.201593   -2.201593    0.000000    0.183000
   201  O     c    11.011150   -2.201593    2.201593    0.000000    0.183000
   202  O     c    11.011150    2.201593   -2.201593    0.000000    0.183000
   203  O     c    11.011150    2.201593    2.201593    0.000000    0.183000
   204  O     c     2.204800    6.622127    6.622127    0.000000    0.183000
   205  O     c     2.204800    6.622127   -6.622127    0.000000    0.183000
   206  O     c     2.204800   -6.622127    6.622127    0.000000    0.183000
   207  O     c     2.204800   -6.622127   -6.622127    0.000000    0.183000
   208  O     c    -6.590914   -2.202905   -2.202905    0.000000    0.183000
   209  O     c    -6.590914   -2.202905    2.202905    0.000000    0.183000
   210  O     c    -6.590914    2.202905   -2.202905    0.000000    0.183000
   211  O     c    -6.590914    2.202905    2.202905    0.000000    0.183000
   212  Na    c     8.814451   -2.217308    6.633509    0.000000    1.000000
   213  Na    c     8.814451   -2.217308   -6.633509    0.000000    1.000000
   214  Na    c     8.814451    2.217308    6.633509    0.000000    1.000000
   215  Na    c     8.814451    2.217308   -6.633509    0.000000    1.000000
   216  Na    c     8.814451    6.633509   -2.217308    0.000000    1.000000
   217  Na    c     8.814451    6.633509    2.217308    0.000000    1.000000
   218  Na    c     8.814451   -6.633509   -2.217308    0.000000    1.000000
   219  Na    c     8.814451   -6.633509    2.217308    0.000000    1.000000
   220  Na    c     4.411938    6.621468    6.621468    0.000000    1.000000
   221  Na    c     4.411938    6.621468   -6.621468    0.000000    1.000000
   222  Na    c     4.411938   -6.621468    6.621468    0.000000    1.000000
   223  Na    c     4.411938   -6.621468   -6.621468    0.000000    1.000000
   224  Na    c    -0.002466    6.617198    6.617198    0.000000    1.000000
   225  Na    c    -0.002466    6.617198   -6.617198    0.000000    1.000000
   226  Na    c    -0.002466   -6.617198    6.617198    0.000000    1.000000
   227  Na    c    -0.002466   -6.617198   -6.617198    0.000000    1.000000
   228  Na    c    -4.400799   -2.218440    6.594545    0.000000    1.000000
   229  Na    c    -4.400799   -2.218440   -6.594545    0.000000    1.000000
   230  Na    c    -4.400799    2.218440    6.594545    0.000000    1.000000
   231  Na    c    -4.400799    2.218440   -6.594545    0.000000    1.000000
   232  Na    c    -4.400799    6.594545   -2.218440    0.000000    1.000000
   233  Na    c    -4.400799    6.594545    2.218440    0.000000    1.000000
   234  Na    c    -4.400799   -6.594545   -2.218440    0.000000    1.000000
   235  Na    c    -4.400799   -6.594545    2.218440    0.000000    1.000000
   236  Na    c    11.017188    4.407063   -2.207128    0.000000    1.000000
   237  Na    c    11.017188    4.407063    2.207128    0.000000    1.000000
   238  Na    c    11.017188   -4.407063   -2.207128    0.000000    1.000000
   239  Na    c    11.017188   -4.407063    2.207128    0.000000    1.000000
   240  Na    c    11.017188   -2.207128    4.407063    0.000000    1.000000
   241  Na    c    11.017188   -2.207128   -4.407063    0.000000    1.000000
   242  Na    c    11.017188    2.207128    4.407063    0.000000    1.000000
   243  Na    c    11.017188    2.207128   -4.407063    0.000000    1.000000
   244  Na    c     6.610406   -2.201025    8.818765    0.000000    1.000000
   245  Na    c     6.610406   -2.201025   -8.818765    0.000000    1.000000
   246  Na    c     6.610406    2.201025    8.818765    0.000000    1.000000
   247  Na    c     6.610406    2.201025   -8.818765    0.000000    1.000000
   248  Na    c     6.610406    8.818765   -2.201025    0.000000    1.000000
   249  Na    c     6.610406    8.818765    2.201025    0.000000    1.000000
   250  Na    c     6.610406   -8.818765   -2.201025    0.000000    1.000000
   251  Na    c     6.610406   -8.818765    2.201025    0.000000    1.000000
   252  Cl    c     4.407275    4.405948    8.808787    0.000000    1.485000
   253  Cl    c     4.407275    4.405948   -8.808787    0.000000    1.485000
   254  Cl    c     4.407275    8.808787    4.405948    0.000000    1.485000
   255  Cl    c     4.407275    8.808787   -4.405948    0.000000    1.485000
   256  Cl    c     4.407275   -4.405948    8.808787    0.000000    1.485000
   257  Cl    c     4.407275   -4.405948   -8.808787    0.000000    1.485000
   258  Cl    c     4.407275   -8.808787    4.405948    0.000000    1.485000
   259  Cl    c     4.407275   -8.808787   -4.405948    0.000000    1.485000
   260  Cl    c     0.002644    4.405811    8.808265    0.000000    1.485000
   261  Cl    c     0.002644    4.405811   -8.808265    0.000000    1.485000
   262  Cl    c     0.002644    8.808265    4.405811    0.000000    1.485000
   263  Cl    c     0.002644    8.808265   -4.405811    0.000000    1.485000
   264  Cl    c     0.002644   -4.405811    8.808265    0.000000    1.485000
   265  Cl    c     0.002644   -4.405811   -8.808265    0.000000    1.485000
   266  Cl    c     0.002644   -8.808265    4.405811    0.000000    1.485000
   267  Cl    c     0.002644   -8.808265   -4.405811    0.000000    1.485000
   268  Na    c    -2.227501   -2.195401    8.817509    0.000000    1.000000
   269  Na    c    -2.227501   -2.195401   -8.817509    0.000000    1.000000
   270  Na    c    -2.227501    2.195401    8.817509    0.000000    1.000000
   271  Na    c    -2.227501    2.195401   -8.817509    0.000000    1.000000
   272  Na    c    -2.227501    8.817509   -2.195401    0.000000    1.000000
   273  Na    c    -2.227501    8.817509    2.195401    0.000000    1.000000
   274  Na    c    -2.227501   -8.817509   -2.195401    0.000000    1.000000
   275  Na    c    -2.227501   -8.817509    2.195401    0.000000    1.000000
   276  Na    c    -6.625293   -2.202049    4.405325    0.000000    1.000000
   277  Na    c    -6.625293   -2.202049   -4.405325    0.000000    1.000000
   278  Na    c    -6.625293    2.202049    4.405325    0.000000    1.000000
   279  Na    c    -6.625293    2.202049   -4.405325    0.000000    1.000000
   280  Na    c    -6.625293    4.405325   -2.202049    0.000000    1.000000
   281  Na    c    -6.625293    4.405325    2.202049    0.000000    1.000000
   282  Na    c    -6.625293   -4.405325   -2.202049    0.000000    1.000000
   283  Na    c    -6.625293   -4.405325    2.202049    0.000000    1.000000
   284  O     c     6.614684    6.616509    6.616509    0.000000    0.183000
   285  O     c     6.614684    6.616509   -6.616509    0.000000    0.183000
   286  O     c     6.614684   -6.616509    6.616509    0.000000    0.183000
   287  O     c     6.614684   -6.616509   -6.616509    0.000000    0.183000
   288  O     c    -2.205190    6.613688    6.613688    0.000000    0.183000
   289  O     c    -2.205190    6.613688   -6.613688    0.000000    0.183000
   290  O     c    -2.205190   -6.613688    6.613688    0.000000    0.183000
   291  O     c    -2.205190   -6.613688   -6.613688    0.000000    0.183000
   292  Cl    c    13.196567    0.000000    0.000000    0.000000    1.485000
   293  Na    c    11.023994    6.618296    0.000000    0.000000    1.000000
   294  Na    c    11.023994   -6.618296    0.000000    0.000000    1.000000
   295  Na    c    11.023994    0.000000    6.618296    0.000000    1.000000
   296  Na    c    11.023994    0.000000   -6.618296    0.000000    1.000000
   297  Cl    c     8.810042    0.000000    8.799063    0.000000    1.485000
   298  Cl    c     8.810042    0.000000   -8.799063    0.000000    1.485000
   299  Cl    c     8.810042    8.799063    0.000000    0.000000    1.485000
   300  Cl    c     8.810042   -8.799063    0.000000    0.000000    1.485000
   301  Na    c     2.202403    6.632616    8.823767    0.000000    1.000000
   302  Na    c     2.202403    6.632616   -8.823767    0.000000    1.000000
   303  Na    c     2.202403   -6.632616    8.823767    0.000000    1.000000
   304  Na    c     2.202403   -6.632616   -8.823767    0.000000    1.000000
   305  Na    c     2.202403    8.823767    6.632616    0.000000    1.000000
   306  Na    c     2.202403    8.823767   -6.632616    0.000000    1.000000
   307  Na    c     2.202403   -8.823767    6.632616    0.000000    1.000000
   308  Na    c     2.202403   -8.823767   -6.632616    0.000000    1.000000
   309  Na    c     2.197330   11.041969    0.000000    0.000000    1.000000
   310  Na    c     2.197330  -11.041969    0.000000    0.000000    1.000000
   311  Na    c     2.197330    0.000000   11.041969    0.000000    1.000000
   312  Na    c     2.197330    0.000000  -11.041969    0.000000    1.000000
   313  Cl    c    -4.399097    0.000000    8.797476    0.000000    1.485000
   314  Cl    c    -4.399097    0.000000   -8.797476    0.000000    1.485000
   315  Cl    c    -4.399097    8.797476    0.000000    0.000000    1.485000
   316  Cl    c    -4.399097   -8.797476    0.000000    0.000000    1.485000
   317  Na    c    -6.610173    6.623794    0.000000    0.000000    1.000000
   318  Na    c    -6.610173   -6.623794    0.000000    0.000000    1.000000
   319  Na    c    -6.610173    0.000000    6.623794    0.000000    1.000000
   320  Na    c    -6.610173    0.000000   -6.623794    0.000000    1.000000
   321  Cl    c    -8.788047    0.000000    0.000000    0.000000    1.485000
   322  O     c    11.012007   -2.202365    6.605757    0.000000    0.183000
   323  O     c    11.012007   -2.202365   -6.605757    0.000000    0.183000
   324  O     c    11.012007    2.202365    6.605757    0.000000    0.183000
   325  O     c    11.012007    2.202365   -6.605757    0.000000    0.183000
   326  O     c    11.012007    6.605757   -2.202365    0.000000    0.183000
   327  O     c    11.012007    6.605757    2.202365    0.000000    0.183000
   328  O     c    11.012007   -6.605757   -2.202365    0.000000    0.183000
   329  O     c    11.012007   -6.605757    2.202365    0.000000    0.183000
   330  O     c     2.205269   -2.201901   11.023299    0.000000    0.183000
   331  O     c     2.205269   -2.201901  -11.023299    0.000000    0.183000
   332  O     c     2.205269    2.201901   11.023299    0.000000    0.183000
   333  O     c     2.205269    2.201901  -11.023299    0.000000    0.183000
   334  O     c     2.205269   11.023299   -2.201901    0.000000    0.183000
   335  O     c     2.205269   11.023299    2.201901    0.000000    0.183000
   336  O     c     2.205269  -11.023299   -2.201901    0.000000    0.183000
   337  O     c     2.205269  -11.023299    2.201901    0.000000    0.183000
   338  O     c    -6.604077    6.603011   -2.201930    0.000000    0.183000
   339  O     c    -6.604077    6.603011    2.201930    0.000000    0.183000
   340  O     c    -6.604077   -6.603011   -2.201930    0.000000    0.183000
   341  O     c    -6.604077   -6.603011    2.201930    0.000000    0.183000
   342  O     c    -6.604077   -2.201930    6.603011    0.000000    0.183000
   343  O     c    -6.604077   -2.201930   -6.603011    0.000000    0.183000
   344  O     c    -6.604077    2.201930    6.603011    0.000000    0.183000
   345  O     c    -6.604077    2.201930   -6.603011    0.000000    0.183000
   346  Na    c    13.220724   -2.209363   -2.209363    0.000000    1.000000
   347  Na    c    13.220724   -2.209363    2.209363    0.000000    1.000000
   348  Na    c    13.220724    2.209363   -2.209363    0.000000    1.000000
   349  Na    c    13.220724    2.209363    2.209363    0.000000    1.000000
   350  Na    c     8.815279    6.618039    6.618039    0.000000    1.000000
   351  Na    c     8.815279    6.618039   -6.618039    0.000000    1.000000
   352  Na    c     8.815279   -6.618039    6.618039    0.000000    1.000000
   353  Na    c     8.815279   -6.618039   -6.618039    0.000000    1.000000
   354  Na    c     4.409225   -2.205798   11.038347    0.000000    1.000000
   355  Na    c     4.409225   -2.205798  -11.038347    0.000000    1.000000
   356  Na    c     4.409225    2.205798   11.038347    0.000000    1.000000
   357  Na    c     4.409225    2.205798  -11.038347    0.000000    1.000000
   358  Na    c     4.409225   11.038347   -2.205798    0.000000    1.000000
   359  Na    c     4.409225   11.038347    2.205798    0.000000    1.000000
   360  Na    c     4.409225  -11.038347   -2.205798    0.000000    1.000000
   361  Na    c     4.409225  -11.038347    2.205798    0.000000    1.000000
   362  Na    c    -0.001293   -2.211147   11.023327    0.000000    1.000000
   363  Na    c    -0.001293   -2.211147  -11.023327    0.000000    1.000000
   364  Na    c    -0.001293    2.211147   11.023327    0.000000    1.000000
   365  Na    c    -0.001293    2.211147  -11.023327    0.000000    1.000000
   366  Na    c    -0.001293   11.023327   -2.211147    0.000000    1.000000
   367  Na    c    -0.001293   11.023327    2.211147    0.000000    1.000000
   368  Na    c    -0.001293  -11.023327   -2.211147    0.000000    1.000000
   369  Na    c    -0.001293  -11.023327    2.211147    0.000000    1.000000
   370  Na    c    -4.407547    6.617251    6.617251    0.000000    1.000000
   371  Na    c    -4.407547    6.617251   -6.617251    0.000000    1.000000
   372  Na    c    -4.407547   -6.617251    6.617251    0.000000    1.000000
   373  Na    c    -4.407547   -6.617251   -6.617251    0.000000    1.000000
   374  Na    c    -8.807855   -2.194164   -2.194164    0.000000    1.000000
   375  Na    c    -8.807855   -2.194164    2.194164    0.000000    1.000000
   376  Na    c    -8.807855    2.194164   -2.194164    0.000000    1.000000
   377  Na    c    -8.807855    2.194164    2.194164    0.000000    1.000000
   378  Cl    c    13.195996    0.000000    4.397704    0.000000    1.485000
   379  Cl    c    13.195996    0.000000   -4.397704    0.000000    1.485000
   380  Cl    c    13.195996    4.397704    0.000000    0.000000    1.485000
   381  Cl    c    13.195996   -4.397704    0.000000    0.000000    1.485000
   382  Na    c    11.029826    6.620561    4.408008    0.000000    1.000000
   383  Na    c    11.029826    6.620561   -4.408008    0.000000    1.000000
   384  Na    c    11.029826   -6.620561    4.408008    0.000000    1.000000
   385  Na    c    11.029826   -6.620561   -4.408008    0.000000    1.000000
   386  Na    c    11.029826    4.408008    6.620561    0.000000    1.000000
   387  Na    c    11.029826    4.408008   -6.620561    0.000000    1.000000
   388  Na    c    11.029826   -4.408008    6.620561    0.000000    1.000000
   389  Na    c    11.029826   -4.408008   -6.620561    0.000000    1.000000
   390  Cl    c     8.808995    4.397761    8.795983    0.000000    1.485000
   391  Cl    c     8.808995    4.397761   -8.795983    0.000000    1.485000
   392  Cl    c     8.808995    8.795983    4.397761    0.000000    1.485000
   393  Cl    c     8.808995    8.795983   -4.397761    0.000000    1.485000
   394  Cl    c     8.808995   -4.397761    8.795983    0.000000    1.485000
   395  Cl    c     8.808995   -4.397761   -8.795983    0.000000    1.485000
   396  Cl    c     8.808995   -8.795983    4.397761    0.000000    1.485000
   397  Cl    c     8.808995   -8.795983   -4.397761    0.000000    1.485000
   398  Na    c     6.613807   11.030014    0.000000    0.000000    1.000000
   399  Na    c     6.613807  -11.030014    0.000000    0.000000    1.000000
   400  Na    c     6.613807    0.000000   11.030014    0.000000    1.000000
   401  Na    c     6.613807    0.000000  -11.030014    0.000000    1.000000
   402  Na    c     6.615753    6.622451    8.818813    0.000000    1.000000
   403  Na    c     6.615753    6.622451   -8.818813    0.000000    1.000000
   404  Na    c     6.615753   -6.622451    8.818813    0.000000    1.000000
   405  Na    c     6.615753   -6.622451   -8.818813    0.000000    1.000000
   406  Na    c     6.615753    8.818813    6.622451    0.000000    1.000000
   407  Na    c     6.615753    8.818813   -6.622451    0.000000    1.000000
   408  Na    c     6.615753   -8.818813    6.622451    0.000000    1.000000
   409  Na    c     6.615753   -8.818813   -6.622451    0.000000    1.000000
   410  Na    c     2.203168   11.032157    4.408918    0.000000    1.000000
   411  Na    c     2.203168   11.032157   -4.408918    0.000000    1.000000
   412  Na    c     2.203168  -11.032157    4.408918    0.000000    1.000000
   413  Na    c     2.203168  -11.032157   -4.408918    0.000000    1.000000
   414  Na    c     2.203168    4.408918   11.032157    0.000000    1.000000
   415  Na    c     2.203168    4.408918  -11.032157    0.000000    1.000000
   416  Na    c     2.203168   -4.408918   11.032157    0.000000    1.000000
   417  Na    c     2.203168   -4.408918  -11.032157    0.000000    1.000000
   418  Na    c    -2.200950   11.036414    0.000000    0.000000    1.000000
   419  Na    c    -2.200950  -11.036414    0.000000    0.000000    1.000000
   420  Na    c    -2.200950    0.000000   11.036414    0.000000    1.000000
   421  Na    c    -2.200950    0.000000  -11.036414    0.000000    1.000000
   422  Na    c    -2.207696    8.817464    6.620717    0.000000    1.000000
   423  Na    c    -2.207696    8.817464   -6.620717    0.000000    1.000000
   424  Na    c    -2.207696   -8.817464    6.620717    0.000000    1.000000
   425  Na    c    -2.207696   -8.817464   -6.620717    0.000000    1.000000
   426  Na    c    -2.207696    6.620717    8.817464    0.000000    1.000000
   427  Na    c    -2.207696    6.620717   -8.817464    0.000000    1.000000
   428  Na    c    -2.207696   -6.620717    8.817464    0.000000    1.000000
   429  Na    c    -2.207696   -6.620717   -8.817464    0.000000    1.000000
   430  Cl    c    -4.399407    4.397160    8.794207    0.000000    1.485000
   431  Cl    c    -4.399407    4.397160   -8.794207    0.000000    1.485000
   432  Cl    c    -4.399407    8.794207    4.397160    0.000000    1.485000
   433  Cl    c    -4.399407    8.794207   -4.397160    0.000000    1.485000
   434  Cl    c    -4.399407   -4.397160    8.794207    0.000000    1.485000
   435  Cl    c    -4.399407   -4.397160   -8.794207    0.000000    1.485000
   436  Cl    c    -4.399407   -8.794207    4.397160    0.000000    1.485000
   437  Cl    c    -4.399407   -8.794207   -4.397160    0.000000    1.485000
   438  Na    c    -6.621165    6.620820    4.407163    0.000000    1.000000
   439  Na    c    -6.621165    6.620820   -4.407163    0.000000    1.000000
   440  Na    c    -6.621165   -6.620820    4.407163    0.000000    1.000000
   441  Na    c    -6.621165   -6.620820   -4.407163    0.000000    1.000000
   442  Na    c    -6.621165    4.407163    6.620820    0.000000    1.000000
   443  Na    c    -6.621165    4.407163   -6.620820    0.000000    1.000000
   444  Na    c    -6.621165   -4.407163    6.620820    0.000000    1.000000
   445  Na    c    -6.621165   -4.407163   -6.620820    0.000000    1.000000
   446  Cl    c    -8.786497    0.000000    4.395245    0.000000    1.485000
   447  Cl    c    -8.786497    0.000000   -4.395245    0.000000    1.485000
   448  Cl    c    -8.786497    4.395245    0.000000    0.000000    1.485000
   449  Cl    c    -8.786497   -4.395245    0.000000    0.000000    1.485000
   450  Cl    s     1.981760    0.000000    0.000000    0.000000   -2.485000
   451  O     s     2.240648   -2.323655   -2.323655    0.000000   -2.183000
   452  O     s     2.240648   -2.323655    2.323655    0.000000   -2.183000
   453  O     s     2.240648    2.323655   -2.323655    0.000000   -2.183000
   454  O     s     2.240648    2.323655    2.323655    0.000000   -2.183000
   455  Cl    s     4.426605    0.000000    4.392337    0.000000   -2.485000
   456  Cl    s     4.426605    0.000000   -4.392337    0.000000   -2.485000
   457  Cl    s     4.426605    4.392337    0.000000    0.000000   -2.485000
   458  Cl    s     4.426605   -4.392337    0.000000    0.000000   -2.485000
   459  Cl    s     0.030778    0.000000    4.377874    0.000000   -2.485000
   460  Cl    s     0.030778    0.000000   -4.377874    0.000000   -2.485000
   461  Cl    s     0.030778    4.377874    0.000000    0.000000   -2.485000
   462  Cl    s     0.030778   -4.377874    0.000000    0.000000   -2.485000
   463  O     s     6.581259   -2.189160   -2.189160    0.000000   -2.183000
   464  O     s     6.581259   -2.189160    2.189160    0.000000   -2.183000
[...]
     40 y         -2.202951     -2.203657    -0.000706    Cartesian    0.03
     40 z          0.000000      0.000000     0.000000    Cartesian    0.00
     41 x         11.014756     11.011150    -0.003605    Cartesian   -0.03
     41 y         -2.202951     -2.201593     0.001358    Cartesian   -0.06
     41 z         -2.202951     -2.201593     0.001358    Cartesian   -0.06
     42 x          2.202951      2.204800     0.001849    Cartesian    0.08
     42 y          6.608853      6.622127     0.013274    Cartesian    0.20
     42 z          6.608853      6.622127     0.013274    Cartesian    0.20
     43 x         -6.608853     -6.590914     0.017940    Cartesian   -0.27
     43 y         -2.202951     -2.202905     0.000046    Cartesian   -0.00
     43 z         -2.202951     -2.202905     0.000046    Cartesian   -0.00
     44 x          8.811805      8.814451     0.002647    Cartesian    0.03
     44 y         -2.202951     -2.217308    -0.014357    Cartesian    0.65
     44 z          6.608853      6.633509     0.024655    Cartesian    0.37
     45 x          4.405902      4.411938     0.006036    Cartesian    0.14
     45 y          6.608853      6.621468     0.012614    Cartesian    0.19
     45 z          6.608853      6.621468     0.012614    Cartesian    0.19
     46 x          0.000000     -0.002466    -0.002466    Cartesian    0.00
     46 y          6.608853      6.617198     0.008345    Cartesian    0.13
     46 z          6.608853      6.617198     0.008345    Cartesian    0.13
     47 x         -4.405902     -4.400799     0.005104    Cartesian   -0.12
     47 y         -2.202951     -2.218440    -0.015489    Cartesian    0.70
     47 z          6.608853      6.594545    -0.014308    Cartesian   -0.22
     48 x         11.014756     11.017188     0.002432    Cartesian    0.02
     48 y          4.405902      4.407063     0.001161    Cartesian    0.03
     48 z         -2.202951     -2.207128    -0.004176    Cartesian    0.19
     49 x          6.608853      6.610406     0.001552    Cartesian    0.02
     49 y         -2.202951     -2.201025     0.001926    Cartesian   -0.09
     49 z          8.811805      8.818765     0.006960    Cartesian    0.08
     50 x          4.405902      4.407275     0.001373    Cartesian    0.03
     50 y          4.405902      4.405948     0.000046    Cartesian    0.00
     50 z          8.811805      8.808787    -0.003018    Cartesian   -0.03
     51 x          0.000000      0.002644     0.002644    Cartesian    0.00
     51 y          4.405902      4.405811    -0.000091    Cartesian   -0.00
     51 z          8.811805      8.808265    -0.003539    Cartesian   -0.04
     52 x         -2.202951     -2.227501    -0.024550    Cartesian    1.11
     52 y         -2.202951     -2.195401     0.007550    Cartesian   -0.34
     52 z          8.811805      8.817509     0.005704    Cartesian    0.06
     53 x         -6.608853     -6.625293    -0.016440    Cartesian    0.25
     53 y         -2.202951     -2.202049     0.000902    Cartesian   -0.04
     53 z          4.405902      4.405325    -0.000577    Cartesian   -0.01
     54 x          6.608853      6.614684     0.005831    Cartesian    0.09
     54 y          6.608853      6.616509     0.007656    Cartesian    0.12
     54 z          6.608853      6.616509     0.007656    Cartesian    0.12
     55 x         -2.202951     -2.205190    -0.002239    Cartesian    0.10
     55 y          6.608853      6.613688     0.004835    Cartesian    0.07
     55 z          6.608853      6.613688     0.004835    Cartesian    0.07
     56 x         13.217707     13.196567    -0.021140    Cartesian   -0.16
     56 y          0.000000      0.000000     0.000000    Cartesian    0.00
     56 z          0.000000      0.000000     0.000000    Cartesian    0.00
     57 x         11.014756     11.023994     0.009238    Cartesian    0.08
     57 y          6.608853      6.618296     0.009443    Cartesian    0.14
     57 z          0.000000      0.000000     0.000000    Cartesian    0.00
     58 x          8.811805      8.810042    -0.001763    Cartesian   -0.02
     58 y          0.000000      0.000000     0.000000    Cartesian    0.00
     58 z          8.811805      8.799063    -0.012742    Cartesian   -0.14
     59 x          2.202951      2.202403    -0.000548    Cartesian   -0.02
     59 y          6.608853      6.632616     0.023763    Cartesian    0.36
     59 z          8.811805      8.823767     0.011963    Cartesian    0.14
     60 x          2.202951      2.197330    -0.005621    Cartesian   -0.26
     60 y         11.014756     11.041969     0.027213    Cartesian    0.25
     60 z          0.000000      0.000000     0.000000    Cartesian    0.00
     61 x         -4.405902     -4.399097     0.006806    Cartesian   -0.15
     61 y          0.000000      0.000000     0.000000    Cartesian    0.00
     61 z          8.811805      8.797476    -0.014328    Cartesian   -0.16
     62 x         -6.608853     -6.610173    -0.001319    Cartesian    0.02
     62 y          6.608853      6.623794     0.014940    Cartesian    0.23
     62 z          0.000000      0.000000     0.000000    Cartesian    0.00
     63 x         -8.811805     -8.788047     0.023758    Cartesian   -0.27
     63 y          0.000000      0.000000     0.000000    Cartesian    0.00
     63 z          0.000000      0.000000     0.000000    Cartesian    0.00
     64 x         11.014756     11.012007    -0.002749    Cartesian   -0.02
     64 y         -2.202951     -2.202365     0.000586    Cartesian   -0.03
     64 z          6.608853      6.605757    -0.003097    Cartesian   -0.05
     65 x          2.202951      2.205269     0.002318    Cartesian    0.11
     65 y         -2.202951     -2.201901     0.001050    Cartesian   -0.05
     65 z         11.014756     11.023299     0.008543    Cartesian    0.08
     66 x         -6.608853     -6.604077     0.004776    Cartesian   -0.07
     66 y          6.608853      6.603011    -0.005842    Cartesian   -0.09
     66 z         -2.202951     -2.201930     0.001021    Cartesian   -0.05
     67 x         13.217707     13.220724     0.003017    Cartesian    0.02
     67 y         -2.202951     -2.209363    -0.006412    Cartesian    0.29
     67 z         -2.202951     -2.209363    -0.006412    Cartesian    0.29
     68 x          8.811805      8.815279     0.003474    Cartesian    0.04
     68 y          6.608853      6.618039     0.009186    Cartesian    0.14
     68 z          6.608853      6.618039     0.009186    Cartesian    0.14
     69 x          4.405902      4.409225     0.003323    Cartesian    0.08
     69 y         -2.202951     -2.205798    -0.002847    Cartesian    0.13
     69 z         11.014756     11.038347     0.023591    Cartesian    0.21
     70 x          0.000000     -0.001293    -0.001293    Cartesian    0.00
     70 y         -2.202951     -2.211147    -0.008196    Cartesian    0.37
     70 z         11.014756     11.023327     0.008571    Cartesian    0.08
     71 x         -4.405902     -4.407547    -0.001644    Cartesian    0.04
     71 y          6.608853      6.617251     0.008398    Cartesian    0.13
     71 z          6.608853      6.617251     0.008398    Cartesian    0.13
     72 x         -8.811805     -8.807855     0.003950    Cartesian   -0.04
     72 y         -2.202951     -2.194164     0.008787    Cartesian   -0.40
     72 z         -2.202951     -2.194164     0.008787    Cartesian   -0.40
     73 x         13.217707     13.195996    -0.021711    Cartesian   -0.16
     73 y          0.000000      0.000000     0.000000    Cartesian    0.00
     73 z          4.405902      4.397704    -0.008198    Cartesian   -0.19
     74 x         11.014756     11.029826     0.015070    Cartesian    0.14
     74 y          6.608853      6.620561     0.011707    Cartesian    0.18
     74 z          4.405902      4.408008     0.002106    Cartesian    0.05
     75 x          8.811805      8.808995    -0.002810    Cartesian   -0.03
     75 y          4.405902      4.397761    -0.008141    Cartesian   -0.18
     75 z          8.811805      8.795983    -0.015822    Cartesian   -0.18
     76 x          6.608853      6.613807     0.004954    Cartesian    0.07
     76 y         11.014756     11.030014     0.015259    Cartesian    0.14
     76 z          0.000000      0.000000     0.000000    Cartesian    0.00
     77 x          6.608853      6.615753     0.006900    Cartesian    0.10
     77 y          6.608853      6.622451     0.013598    Cartesian    0.21
     77 z          8.811805      8.818813     0.007009    Cartesian    0.08
     78 x          2.202951      2.203168     0.000217    Cartesian    0.01
     78 y         11.014756     11.032157     0.017401    Cartesian    0.16
     78 z          4.405902      4.408918     0.003016    Cartesian    0.07
     79 x         -2.202951     -2.200950     0.002001    Cartesian   -0.09
     79 y         11.014756     11.036414     0.021658    Cartesian    0.20
     79 z          0.000000      0.000000     0.000000    Cartesian    0.00
     80 x         -2.202951     -2.207696    -0.004745    Cartesian    0.22
     80 y          8.811805      8.817464     0.005659    Cartesian    0.06
     80 z          6.608853      6.620717     0.011863    Cartesian    0.18
     81 x         -4.405902     -4.399407     0.006495    Cartesian   -0.15
     81 y          4.405902      4.397160    -0.008743    Cartesian   -0.20
     81 z          8.811805      8.794207    -0.017597    Cartesian   -0.20
     82 x         -6.608853     -6.621165    -0.012312    Cartesian    0.19
     82 y          6.608853      6.620820     0.011966    Cartesian    0.18
     82 z          4.405902      4.407163     0.001261    Cartesian    0.03
     83 x         -8.811805     -8.786497     0.025307    Cartesian   -0.29
     83 y          0.000000      0.000000     0.000000    Cartesian    0.00
     83 z          4.405902      4.395245    -0.010657    Cartesian   -0.24
     84 x          1.981760      1.981760     0.000000    Cartesian    0.00
     84 y          0.000000      0.000000     0.000000    Cartesian    0.00
     84 z          0.000000      0.000000     0.000000    Cartesian    0.00
     85 x          2.202951      2.240648     0.037697    Cartesian    1.71
     85 y         -2.202951     -2.323655    -0.120704    Cartesian    5.48
     85 z         -2.202951     -2.323655    -0.120704    Cartesian    5.48
     86 x          4.405902      4.426605     0.020703    Cartesian    0.47
     86 y          0.000000      0.000000     0.000000    Cartesian    0.00
     86 z          4.405902      4.392337    -0.013565    Cartesian   -0.31
     87 x          0.000000      0.030778     0.030778    Cartesian    0.00
     87 y          0.000000      0.000000     0.000000    Cartesian    0.00
     87 z          4.405902      4.377874    -0.028028    Cartesian   -0.64
     88 x          6.608853      6.581259    -0.027595    Cartesian   -0.42
     88 y         -2.202951     -2.189160     0.013791    Cartesian   -0.63
     88 z         -2.202951     -2.189160     0.013791    Cartesian   -0.63
     89 x         -2.202951     -2.142549     0.060402    Cartesian   -2.74
     89 y         -2.202951     -2.182059     0.020892    Cartesian   -0.95
     89 z         -2.202951     -2.182059     0.020892    Cartesian   -0.95
     90 x          8.811805      8.737937    -0.073867    Cartesian   -0.84
     90 y          0.000000      0.000000     0.000000    Cartesian    0.00
     90 z          0.000000      0.000000     0.000000    Cartesian    0.00
     91 x          4.405902      4.446101     0.040199    Cartesian    0.91
     91 y          4.405902      4.430290     0.024387    Cartesian    0.55
     91 z          4.405902      4.430290     0.024387    Cartesian    0.55
     92 x          0.000000     -0.015509    -0.015509    Cartesian    0.00
     92 y          4.405902      4.419089     0.013187    Cartesian    0.30
     92 z          4.405902      4.419089     0.013187    Cartesian    0.30
     93 x         -4.405902     -4.323590     0.082312    Cartesian   -1.87
     93 y          0.000000      0.000000     0.000000    Cartesian    0.00
     93 z          0.000000      0.000000     0.000000    Cartesian    0.00
     94 x          2.202951      2.207195     0.004244    Cartesian    0.19
     94 y         -2.202951     -2.213301    -0.010350    Cartesian    0.47
     94 z          6.608853      6.646072     0.037219    Cartesian    0.56
     95 x          8.811805      8.773048    -0.038756    Cartesian   -0.44
     95 y          0.000000      0.000000     0.000000    Cartesian    0.00
     95 z          4.405902      4.365782    -0.040121    Cartesian   -0.91
     96 x         -4.405902     -4.356105     0.049798    Cartesian   -1.13
     96 y          0.000000      0.000000     0.000000    Cartesian    0.00
     96 z          4.405902      4.366413    -0.039490    Cartesian   -0.90
     97 x          6.608853      6.612485     0.003631    Cartesian    0.05
     97 y         -2.202951     -2.204137    -0.001186    Cartesian    0.05
     97 z          6.608853      6.613734     0.004880    Cartesian    0.07
     98 x         -2.202951     -2.193545     0.009406    Cartesian   -0.43
     98 y         -2.202951     -2.201940     0.001011    Cartesian   -0.05
     98 z          6.608853      6.610259     0.001406    Cartesian    0.02
     99 x          8.811805      8.787412    -0.024392    Cartesian   -0.28
     99 y          4.405902      4.374281    -0.031621    Cartesian   -0.72
     99 z          4.405902      4.374281    -0.031621    Cartesian   -0.72
    100 x          4.405902      4.409405     0.003502    Cartesian    0.08
    100 y          0.000000      0.000000     0.000000    Cartesian    0.00
    100 z          8.811805      8.802793    -0.009011    Cartesian   -0.10
    101 x          0.000000      0.003320     0.003320    Cartesian    0.00
    101 y          0.000000      0.000000     0.000000    Cartesian    0.00
    101 z          8.811805      8.802390    -0.009414    Cartesian   -0.11
    102 x         -4.405902     -4.369830     0.036073    Cartesian   -0.82
    102 y          4.405902      4.375234    -0.030669    Cartesian   -0.70
    102 z          4.405902      4.375234    -0.030669    Cartesian   -0.70
    103 x         11.014756     11.011146    -0.003610    Cartesian   -0.03
    103 y         -2.202951     -2.201593     0.001358    Cartesian   -0.06
    103 z         -2.202951     -2.201593     0.001358    Cartesian   -0.06
    104 x          2.202951      2.204800     0.001849    Cartesian    0.08
    104 y          6.608853      6.622133     0.013280    Cartesian    0.20
    104 z          6.608853      6.622133     0.013280    Cartesian    0.20
    105 x         -6.608853     -6.590910     0.017943    Cartesian   -0.27
    105 y         -2.202951     -2.202911     0.000040    Cartesian   -0.00
    105 z         -2.202951     -2.202911     0.000040    Cartesian   -0.00
    106 x          4.405902      4.406448     0.000545    Cartesian    0.01
    106 y          4.405902      4.404988    -0.000914    Cartesian   -0.02
    106 z          8.811805      8.805971    -0.005834    Cartesian   -0.07
    107 x          0.000000      0.003521     0.003521    Cartesian    0.00
    107 y          4.405902      4.404744    -0.001159    Cartesian   -0.03
    107 z          8.811805      8.805075    -0.006730    Cartesian   -0.08
    108 x          6.608853      6.614685     0.005831    Cartesian    0.09
    108 y          6.608853      6.616513     0.007659    Cartesian    0.12
    108 z          6.608853      6.616513     0.007659    Cartesian    0.12
    109 x         -2.202951     -2.205190    -0.002239    Cartesian    0.10
    109 y          6.608853      6.613691     0.004837    Cartesian    0.07
    109 z          6.608853      6.613691     0.004837    Cartesian    0.07
    110 x         13.217707     13.193275    -0.024432    Cartesian   -0.18
    110 y          0.000000      0.000000     0.000000    Cartesian    0.00
    110 z          0.000000      0.000000     0.000000    Cartesian    0.00
    111 x          8.811805      8.809601    -0.002203    Cartesian   -0.03
    111 y          0.000000      0.000000     0.000000    Cartesian    0.00
    111 z          8.811805      8.797074    -0.014731    Cartesian   -0.17
    112 x         -4.405902     -4.397711     0.008192    Cartesian   -0.19
    112 y          0.000000      0.000000     0.000000    Cartesian    0.00
    112 z          8.811805      8.796174    -0.015631    Cartesian   -0.18
    113 x         -8.811805     -8.786965     0.024839    Cartesian   -0.28
    113 y          0.000000      0.000000     0.000000    Cartesian    0.00
    113 z          0.000000      0.000000     0.000000    Cartesian    0.00
    114 x         11.014756     11.012004    -0.002752    Cartesian   -0.02
    114 y         -2.202951     -2.202365     0.000586    Cartesian   -0.03
    114 z          6.608853      6.605759    -0.003095    Cartesian   -0.05
    115 x          2.202951      2.205274     0.002323    Cartesian    0.11
    115 y         -2.202951     -2.201896     0.001055    Cartesian   -0.05
    115 z         11.014756     11.023296     0.008540    Cartesian    0.08
    116 x         -6.608853     -6.604081     0.004773    Cartesian   -0.07
    116 y          6.608853      6.603005    -0.005849    Cartesian   -0.09
    116 z         -2.202951     -2.201930     0.001021    Cartesian   -0.05
    117 x         13.217707     13.193356    -0.024351    Cartesian   -0.18
    117 y          0.000000      0.000000     0.000000    Cartesian    0.00
    117 z          4.405902      4.396363    -0.009539    Cartesian   -0.22
    118 x          8.811805      8.808525    -0.003279    Cartesian   -0.04
    118 y          4.405902      4.396130    -0.009772    Cartesian   -0.22
    118 z          8.811805      8.793519    -0.018286    Cartesian   -0.21
    119 x         -4.405902     -4.398361     0.007542    Cartesian   -0.17
    119 y          4.405902      4.395848    -0.010054    Cartesian   -0.23
    119 z          8.811805      8.792158    -0.019647    Cartesian   -0.22
    120 x         -8.811805     -8.783821     0.027983    Cartesian   -0.32
    120 y          0.000000      0.000000     0.000000    Cartesian    0.00
    120 z          4.405902      4.394257    -0.011645    Cartesian   -0.26
--------------------------------------------------------------------------------


  Time to end of optimisation  =       16.2994 seconds


  Peak dynamic memory used =      76.10 MB 


  Timing analysis for GULP :

--------------------------------------------------------------------------------
  Task / Subroutine                                          Time (Seconds)
--------------------------------------------------------------------------------
  Calculation of reciprocal space energy and derivatives          0.0006
  Calculation of reciprocal space energy using symmetry           0.0011
  Calculation of real space energy and derivatives                0.0036
  Calculation of real space energy using symmetry                 0.0113
  Calculation for region 1 energy and derivatives (2-b)           9.5177
  Calculation for region 2a energy                                6.2126
  Calculation for region 2b energy                                0.0069
  Calculation and manipulation of Hessian matrix                  0.4189
  Calculation of matrix inversion                                 0.0262
  Symmetry generation of equivalent positions                     0.0043
--------------------------------------------------------------------------------
  Total CPU time                                                 16.2995
--------------------------------------------------------------------------------


  Dump file written as Na3OCl.grs


  Job Finished at 16:16.55  8th January    2021                               

