********************************************************************************
*                       GENERAL UTILITY LATTICE PROGRAM                        *
*                                 Julian Gale                                  *
*                       Curtin Institute for Computation                       *
*                    School of Molecular and Life Sciences                     *
*                    Curtin University, Western Australia                      *
********************************************************************************
* Version = 5.2.0 * Last modified =  10th September 2020                       *
********************************************************************************
*  optimise     - perform optimisation run                                     *
*  conp         - constant pressure calculation                                *
*  property     - calculate properties for final geometry                      *
*  defect       - perform defect calculation after bulk run                    *
*  compare      - compare initial and final structures                         *
********************************************************************************

  Job Started  at 16:16.49  8th January    2021                               

  Number of CPUs =     1


  Total number of configurations input =      1

********************************************************************************
*  Input for Configuration =   1                                               *
********************************************************************************

  Formula = ClONa3                                                      

  Number of irreducible atoms/shells =       5


  Total number atoms/shells =       7

  Dimensionality = 3               :  Bulk   


  Symmetry :

  Crystal family                   :  Cubic       
  Crystal class  (Groth - 1921)    :  Cubic Hexakisoctahedral              

  Space group (centrosymmetric)    :  P M 3 M         

  Patterson group                  :  P m -3 m 

  Cartesian lattice vectors (Angstroms) :

        4.504000    0.000000    0.000000
        0.000000    4.504000    0.000000
        0.000000    0.000000    4.504000

  Cell parameters (Angstroms/Degrees):

  a =       4.5040    alpha =  90.0000
  b =       4.5040    beta  =  90.0000
  c =       4.5040    gamma =  90.0000

  Initial cell volume =          91.368216 Angs**3

  Temperature of configuration =   0.00     K 

  Pressure of configuration =         0.000 GPa 

  Fractional coordinates of asymmetric unit :

--------------------------------------------------------------------------------
   No.  Atomic       x           y          z         Charge      Occupancy
        Label      (Frac)      (Frac)     (Frac)        (e)         (Frac)  
--------------------------------------------------------------------------------
      1 Cl    c    0.000000    0.000000    0.000000     1.48500    1.000000    
      2 O     c    0.500000    0.500000    0.500000     0.18300    1.000000    
      3 Na    c    0.500000    0.500000    0.000000     1.00000    1.000000    
      4 Cl    s    0.000000    0.000000    0.000000    -2.48500    1.000000    
      5 O     s    0.500000    0.500000    0.500000    -2.18300    1.000000    
--------------------------------------------------------------------------------


  Constraints : 

--------------------------------------------------------------------------------
  Constraint no.      Unconstrained     Constrained    Coefficient    Offset
                         Variable         Variable
--------------------------------------------------------------------------------
           1              Strain 1        Strain 2       1.00000      0.0000
           2              Strain 1        Strain 3       1.00000      0.0000
--------------------------------------------------------------------------------


********************************************************************************
*  General input information                                                   *
********************************************************************************

  Species output for all configurations : 

--------------------------------------------------------------------------------
  Species    Type    Atomic    Atomic    Charge       Radii (Angs)     Library
                     Number     Mass       (e)     Cova   Ionic  VDW   Symbol
--------------------------------------------------------------------------------
    Na       Core       11      22.99   1.000000   0.970  0.000  2.300          
    O        Core        8      16.00   0.183000   0.730  0.000  1.360          
    O        Shell       8       0.00  -2.183000   0.730  0.000  1.360          
    Cl       Core       17      35.45   1.485000   0.990  0.000  1.650          
    Cl       Shell      17       0.00  -2.485000   0.990  0.000  1.650          
    Mg       Core       12      24.31   0.415000   1.100  0.000  0.000          
    Mg       Shell      12       0.00   1.585000   1.100  0.000  0.000          
    Ca       Core       20      40.08  -1.135000   0.990  0.000  0.000          
    Ca       Shell      20       0.00   3.135000   0.990  0.000  0.000          
    Sr       Core       38      87.62  -1.251000   1.120  0.000  0.000          
    Sr       Shell      38       0.00   3.251000   1.120  0.000  0.000          
    Ba       Core       56     137.33  -7.203000   1.340  0.000  0.000          
    Ba       Shell      56       0.00   9.203000   1.340  0.000  0.000          
--------------------------------------------------------------------------------


  Lattice summation method               =    Ewald          (3-D)
                                         =    Parry          (2-D)
                                         =    Saunders et al (1-D)
  Accuracy factor for lattice sums       =   12.000


  Analytic derivatives to be used

  Time limit = Infinity

  Maximum range for interatomic potentials =    100000.000000 Angstroms

  General interatomic potentials :

--------------------------------------------------------------------------------
Atom  Types   Potential      Parameter       Value         Units   Cutoffs(Ang)
  1     2                                                            Min /  Max 
--------------------------------------------------------------------------------
O    c O    s Spring (c-s)  Spring k 2       593.71600    eV*Ang^-2 0.000  0.800
                            Spring k 4       0.0000000    eV*Ang^-4 
--------------------------------------------------------------------------------
Cl   c Cl   s Spring (c-s)  Spring k 2       29.380000    eV*Ang^-2 0.000  0.800
                            Spring k 4       0.0000000    eV*Ang^-4 
--------------------------------------------------------------------------------
Mg   c Mg   s Spring (c-s)  Spring k 2       361.60000    eV*Ang^-2 0.000  0.800
                            Spring k 4       0.0000000    eV*Ang^-4 
--------------------------------------------------------------------------------
Ca   c Ca   s Spring (c-s)  Spring k 2       110.20000    eV*Ang^-2 0.000  0.800
                            Spring k 4       0.0000000    eV*Ang^-4 
--------------------------------------------------------------------------------
Sr   c Sr   s Spring (c-s)  Spring k 2       71.700000    eV*Ang^-2 0.000  0.800
                            Spring k 4       0.0000000    eV*Ang^-4 
--------------------------------------------------------------------------------
Ba   c Ba   s Spring (c-s)  Spring k 2       495.20000    eV*Ang^-2 0.000  0.800
                            Spring k 4       0.0000000    eV*Ang^-4 
--------------------------------------------------------------------------------
Na   c Na   c Buckingham    Buckingham A     1788.1900    eV        0.000 12.000
                            Buckingham rho  0.15900000    Ang       
                            Buckingham C     0.0000000    eV*Ang^6  
--------------------------------------------------------------------------------
Na   c O    s Buckingham    Buckingham A     588.38000    eV        0.000 12.000
                            Buckingham rho  0.33800000    Ang       
                            Buckingham C     0.0000000    eV*Ang^6  
--------------------------------------------------------------------------------
Na   c Cl   s Buckingham    Buckingham A     1170.4100    eV        0.000 12.000
                            Buckingham rho  0.31500000    Ang       
                            Buckingham C     0.0000000    eV*Ang^6  
--------------------------------------------------------------------------------
O    s O    s Buckingham    Buckingham A     22764.300    eV        0.000 12.000
                            Buckingham rho  0.14900000    Ang       
                            Buckingham C     13.190000    eV*Ang^6  
--------------------------------------------------------------------------------
O    s Cl   s Buckingham    Buckingham A     8286.9100    eV        0.000 12.000
                            Buckingham rho  0.25900000    Ang       
                            Buckingham C     62.200000    eV*Ang^6  
--------------------------------------------------------------------------------
Cl   s Cl   s Buckingham    Buckingham A     1227.2000    eV        0.000 12.000
                            Buckingham rho  0.32100000    Ang       
                            Buckingham C     14.530000    eV*Ang^6  
--------------------------------------------------------------------------------
O    s Mg   s Buckingham    Buckingham A     1428.5000    eV        0.000 12.000
                            Buckingham rho  0.29450000    Ang       
                            Buckingham C     0.0000000    eV*Ang^6  
--------------------------------------------------------------------------------
Mg   s Cl   s Buckingham    Buckingham A     4914.5400    eV        0.000 12.000
                            Buckingham rho  0.25700000    Ang       
                            Buckingham C     0.0000000    eV*Ang^6  
--------------------------------------------------------------------------------
O    s Ca   s Buckingham    Buckingham A     1090.4000    eV        0.000 12.000
                            Buckingham rho  0.34370000    Ang       
                            Buckingham C     0.0000000    eV*Ang^6  
--------------------------------------------------------------------------------
Cl   s Ca   s Buckingham    Buckingham A     2302.0000    eV        0.000 12.000
                            Buckingham rho  0.34020000    Ang       
                            Buckingham C     0.0000000    eV*Ang^6  
--------------------------------------------------------------------------------
O    s Sr   s Buckingham    Buckingham A     959.10000    eV        0.000 12.000
                            Buckingham rho  0.37210000    Ang       
                            Buckingham C     0.0000000    eV*Ang^6  
--------------------------------------------------------------------------------
Cl   s Sr   s Buckingham    Buckingham A     2191.0900    eV        0.000 12.000
                            Buckingham rho  0.34570000    Ang       
                            Buckingham C     0.0000000    eV*Ang^6  
--------------------------------------------------------------------------------
O    s Ba   s Buckingham    Buckingham A     905.70000    eV        0.000 12.000
                            Buckingham rho  0.39760000    Ang       
                            Buckingham C     0.0000000    eV*Ang^6  
--------------------------------------------------------------------------------
Cl   s Ba   s Buckingham    Buckingham A     2704.5500    eV        0.000 12.000
                            Buckingham rho  0.35280000    Ang       
                            Buckingham C     0.0000000    eV*Ang^6  
--------------------------------------------------------------------------------

********************************************************************************
*  Output for configuration   1                                                *
********************************************************************************


  Components of energy : 

--------------------------------------------------------------------------------
  Interatomic potentials     =           4.94315381 eV    
  Monopole - monopole (real) =         -10.03624526 eV    
  Monopole - monopole (recip)=         -29.53581274 eV    
  Monopole - monopole (total)=         -39.57205800 eV    
--------------------------------------------------------------------------------
  Total lattice energy       =         -34.62890419 eV    
--------------------------------------------------------------------------------
  Total lattice energy       =           -3341.1599 kJ/(mole unit cells)
--------------------------------------------------------------------------------


  Number of variables =        1

  Maximum number of calculations  =          1000
  Maximum Hessian update interval =            10
  Maximum step size               =   1.000000000
  Maximum parameter tolerance     =   0.000010000
  Maximum function  tolerance     =   0.000010000
  Maximum gradient  tolerance     =   0.001000000
  Maximum gradient  component     =   0.010000000

  Symmetry constrained optimisation

  Symmetry used for second derivatives

  Cell parameters to be optimised using strains

  Newton-Raphson optimiser to be used

  BFGS hessian update to be used

  Lower half triangular hessian to be used

  Start of bulk optimisation :

  Cycle:      0 Energy:       -34.628904  Gnorm:      4.328237  CPU:    0.017
  ** Hessian calculated **
  Cycle:      1 Energy:       -34.677667  Gnorm:      0.044008  CPU:    0.022
  Cycle:      2 Energy:       -34.677671  Gnorm:      0.003653  CPU:    0.026


  **** Optimisation achieved ****


  Final energy =     -34.67767136 eV
  Final Gnorm  =       0.00000010

  Components of energy : 

--------------------------------------------------------------------------------
  Interatomic potentials     =           5.77546103 eV    
  Monopole - monopole (real) =         -10.25970290 eV    
  Monopole - monopole (recip)=         -30.19342950 eV    
  Monopole - monopole (total)=         -40.45313239 eV    
--------------------------------------------------------------------------------
  Total lattice energy       =         -34.67767136 eV    
--------------------------------------------------------------------------------
  Total lattice energy       =           -3345.8652 kJ/(mole unit cells)
--------------------------------------------------------------------------------

  Final asymmetric unit coordinates :

--------------------------------------------------------------------------------
   No.  Atomic        x           y           z         Radius
        Label       (Frac)      (Frac)      (Frac)       (Angs) 
--------------------------------------------------------------------------------
     1  Cl    c     0.000000    0.000000    0.000000    0.000000
     2  O     c     0.500000    0.500000    0.500000    0.000000
     3  Na    c     0.500000    0.500000    0.000000    0.000000
     4  Cl    s     0.000000    0.000000    0.000000    0.000000
     5  O     s     0.500000    0.500000    0.500000    0.000000
--------------------------------------------------------------------------------

  Final Cartesian lattice vectors (Angstroms) :

        4.405902    0.000000    0.000000
        0.000000    4.405902    0.000000
        0.000000    0.000000    4.405902


  Final cell parameters and derivatives :

--------------------------------------------------------------------------------
       a            4.405902 Angstrom     dE/de1(xx)     0.000000 eV/strain
       b            4.405902 Angstrom     dE/de2(yy)     0.000000 eV/strain
       c            4.405902 Angstrom     dE/de3(zz)     0.000000 eV/strain
       alpha       90.000000 Degrees      dE/de4(yz)     0.000000 eV/strain
       beta        90.000000 Degrees      dE/de5(xz)     0.000000 eV/strain
       gamma       90.000000 Degrees      dE/de6(xy)     0.000000 eV/strain
--------------------------------------------------------------------------------

  Primitive cell volume =            85.527266 Angs**3

  Density of cell =      2.338030 g/cm**3

  Non-primitive cell volume =            85.527266 Angs**3


  Final internal derivatives :

--------------------------------------------------------------------------------
   No.  Atomic          a             b             c           Radius
        Label          (eV)          (eV)          (eV)        (eV/Angs)
--------------------------------------------------------------------------------
      1 Cl    c       0.000000      0.000000      0.000000      0.000000
      2 O     c       0.000000      0.000000      0.000000      0.000000
      3 Na    c       0.000000      0.000000      0.000000      0.000000
      4 Cl    s       0.000000      0.000000      0.000000      0.000000
      5 O     s       0.000000      0.000000      0.000000      0.000000
--------------------------------------------------------------------------------
  Maximum abs         0.000000      0.000000      0.000000      0.000000
--------------------------------------------------------------------------------

  Comparison of initial and final structures : 

--------------------------------------------------------------------------------
  Parameter   Initial value   Final value   Difference    Units      Percent
--------------------------------------------------------------------------------
    Volume        91.368216     85.527266    -5.840950    Angs**3     -6.39
    a              4.504000      4.405902    -0.098098    Angstroms   -2.18
    b              4.504000      4.405902    -0.098098    Angstroms   -2.18
    c              4.504000      4.405902    -0.098098    Angstroms   -2.18
    alpha         90.000000     90.000000     0.000000    Degrees      0.00
    beta          90.000000     90.000000     0.000000    Degrees      0.00
    gamma         90.000000     90.000000     0.000000    Degrees      0.00
      1 x          0.000000      0.000000     0.000000    Fractional   0.00
      1 y          0.000000      0.000000     0.000000    Fractional   0.00
      1 z          0.000000      0.000000     0.000000    Fractional   0.00
      2 x          0.500000      0.500000     0.000000    Fractional   0.00
      2 y          0.500000      0.500000     0.000000    Fractional   0.00
      2 z          0.500000      0.500000     0.000000    Fractional   0.00
      3 x          0.500000      0.500000     0.000000    Fractional   0.00
      3 y          0.500000      0.500000     0.000000    Fractional   0.00
      3 z          0.000000      0.000000     0.000000    Fractional   0.00
      4 x          0.000000      0.000000     0.000000    Fractional   0.00
      4 y          0.000000      0.000000     0.000000    Fractional   0.00
      4 z          0.000000      0.000000     0.000000    Fractional   0.00
      5 x          0.500000      0.500000     0.000000    Fractional   0.00
      5 y          0.500000      0.500000     0.000000    Fractional   0.00
      5 z          0.500000      0.500000     0.000000    Fractional   0.00
--------------------------------------------------------------------------------


  Born effective charge tensors : 

-------------------------------------------------------------------------------
  Atom             x           y             z
-------------------------------------------------------------------------------
    1 Cl    x      -0.9918     -0.0000     -0.0000
            y      -0.0000     -0.9918     -0.0000
            z      -0.0000     -0.0000     -0.9918
-------------------------------------------------------------------------------
    2 O     x      -2.2939      0.0000      0.0000
            y       0.0000     -2.2939      0.0000
            z       0.0000      0.0000     -2.2939
-------------------------------------------------------------------------------
    3 Na    x       1.2243      0.0000      0.0000
            y       0.0000      1.2243     -0.0000
            z       0.0000      0.0000      0.8372
-------------------------------------------------------------------------------




  Elastic Constant Matrix: (Units=GPa)

-------------------------------------------------------------------------------
  Indices      1         2         3         4         5         6    
-------------------------------------------------------------------------------
       1     82.7680   24.3534   24.3534   -0.0000    0.0000   -0.0000
       2     24.3534   82.7680   24.3534    0.0000   -0.0000   -0.0000
       3     24.3534   24.3534   82.7680    0.0000   -0.0000    0.0000
       4     -0.0000    0.0000    0.0000   24.3534   -0.0000    0.0000
       5      0.0000   -0.0000   -0.0000   -0.0000   24.3534    0.0000
       6     -0.0000   -0.0000    0.0000    0.0000    0.0000   24.3534
-------------------------------------------------------------------------------


  Elastic Compliance Matrix: (Units=1/GPa)

-------------------------------------------------------------------------------
  Indices      1         2         3         4         5         6    
-------------------------------------------------------------------------------
       1    0.013948 -0.003171 -0.003171  0.000000 -0.000000  0.000000
       2   -0.003171  0.013948 -0.003171 -0.000000  0.000000 -0.000000
       3   -0.003171 -0.003171  0.013948 -0.000000  0.000000 -0.000000
       4    0.000000 -0.000000 -0.000000  0.041062  0.000000 -0.000000
       5   -0.000000  0.000000  0.000000  0.000000  0.041062 -0.000000
       6    0.000000 -0.000000 -0.000000 -0.000000 -0.000000  0.041062
-------------------------------------------------------------------------------

  Mechanical properties :

-------------------------------------------------------------------------------
  Convention :                    Reuss         Voigt         Hill
-------------------------------------------------------------------------------
  Bulk  Modulus (GPa)     =      43.82493      43.82493      43.82493
  Shear Modulus (GPa)     =      26.08758      26.29496      26.19127
-------------------------------------------------------------------------------
  Velocity S-wave (km/s)  =       3.34035       3.35360       3.34698
  Velocity P-wave (km/s)  =       5.79842       5.80861       5.80351
-------------------------------------------------------------------------------
  Compressibility (1/GPa) =    0.02281806
-------------------------------------------------------------------------------
  Stress axis :                     x             y             z
-------------------------------------------------------------------------------
  Youngs Moduli (GPa)     =      71.69479      71.69479      71.69479
-------------------------------------------------------------------------------
  Poissons Ratio (x)      =                     0.22734       0.22734
  Poissons Ratio (y)      =       0.22734                     0.22734
  Poissons Ratio (z)      =       0.22734       0.22734
-------------------------------------------------------------------------------


  Piezoelectric Strain Matrix: (Units=C/m**2)

-------------------------------------------------------------------------------
  Indices      1         2         3         4         5         6    
-------------------------------------------------------------------------------
       x    -0.00000  -0.00000  -0.00000  -0.00000   0.00000  -0.00000
       y     0.00000  -0.00000   0.00000   0.00000  -0.00000   0.00000
       z    -0.00000  -0.00000   0.00000  -0.00000   0.00000  -0.00000
-------------------------------------------------------------------------------


  Piezoelectric Stress Matrix: (Units=10**-11 C/N)

-------------------------------------------------------------------------------
  Indices      1         2         3         4         5         6    
-------------------------------------------------------------------------------
       x     0.00000  -0.00000  -0.00000  -0.00000   0.00000  -0.00000
       y     0.00000  -0.00000   0.00000   0.00000  -0.00000   0.00000
       z    -0.00000  -0.00000   0.00000  -0.00000   0.00000  -0.00000
-------------------------------------------------------------------------------


  Static dielectric constant tensor : 

-------------------------------------------------------------------------------
              x         y         z
-------------------------------------------------------------------------------
       x    11.08357   0.00000   0.00000
       y     0.00000  11.08357   0.00000
       z     0.00000   0.00000  11.08357
--------------------------------------------------------------------------------

  High frequency dielectric constant tensor : 

-------------------------------------------------------------------------------
              x         y         z
-------------------------------------------------------------------------------
       x     1.50771   0.00000   0.00000
       y     0.00000   1.50771   0.00000
       z     0.00000   0.00000   1.50771
-------------------------------------------------------------------------------

  Static refractive indices : 

-------------------------------------------------------------------------------
    1 =    3.32920      2 =    3.32920      3 =    3.32920
-------------------------------------------------------------------------------

  High frequency refractive indices : 

-------------------------------------------------------------------------------
    1 =    1.22789      2 =    1.22789      3 =    1.22789
-------------------------------------------------------------------------------


  Time to end of optimisation =       0.0367 seconds

********************************************************************************
*  Defect calculation for configuration   1 :                                  *
********************************************************************************

  Total number of defects =      3

  Total charge on defect  =   1.00

  Defect centre is at   2.2520   0.0000   0.0000  Angs

  Region 1 radius =  12.0000      Number of ions =    622

  Number of symmetry inequivalent region 1 ions  =    120

  Region 2 radius =  16.0000      Number of ions =    760

  Number of symmetry inequivalent region 2a ions =    123

  Region 2a mode = 4 : screened electrostatics due to region 1 
                       neglect correction to region 1 forces from 2a
                       region 2a displacements based on defects only

  Region 2a ions will only interact with defects in region 1

  Vacancies:

--------------------------------------------------------------------------------
    Specification type     Symbol/Number         x          y          z
--------------------------------------------------------------------------------
    Cartesian                                4.504000   0.000000   0.000000
    Cartesian                                0.000000   0.000000   0.000000
--------------------------------------------------------------------------------

  Interstitials:

--------------------------------------------------------------------------------
    Specification type     Symbol/Number         x          y          z
--------------------------------------------------------------------------------
    Atom/Cartesian          Cl               2.252000   0.000000   0.000000
--------------------------------------------------------------------------------


  Symmetry reduced region 1 (Relative to defect centre) :

--------------------------------------------------------------------------------
   No.   Atomic       x            y             z       Radius  Multiplicity   
         Label      (Angs)       (Angs)        (Angs)    (Angs)     
--------------------------------------------------------------------------------
     1  Cl    c      0.0000       0.0000       0.0000    0.0000     1    Defect
     2  Na    c     -0.0490 *    -2.2030 *     0.0000    0.0000     4          
     3  O     c     -0.0490 *    -2.2030 *    -2.2030    0.0000     4          
     4  Na    c      2.1539 *    -2.2030 *    -2.2030    0.0000     4          
     5  Na    c     -2.2520 *    -2.2030 *    -2.2030    0.0000     4          
     6  Na    c      4.3569 *    -2.2030 *     0.0000    0.0000     4          
     7  Cl    c      2.1539 *     0.0000       4.4059 *  0.0000     4          
     8  Na    c     -0.0490 *    -2.2030 *     4.4059 *  0.0000     8          
     9  Cl    c     -2.2520 *     0.0000       4.4059 *  0.0000     4          
    10  Na    c     -4.4550 *    -2.2030 *     0.0000    0.0000     4          
    11  O     c      4.3569 *    -2.2030 *    -2.2030    0.0000     4          
    12  O     c     -4.4550 *    -2.2030 *    -2.2030    0.0000     4          
    13  Cl    c      6.5598 *     0.0000       0.0000    0.0000     1          
    14  Na    c      4.3569 *     4.4059 *    -2.2030 *  0.0000     8          
    15  Cl    c      2.1539 *     4.4059 *     4.4059    0.0000     4          
    16  Na    c     -0.0490 *     6.6089 *     0.0000    0.0000     4          
    17  Cl    c     -2.2520 *     4.4059 *     4.4059    0.0000     4          
    18  Na    c     -4.4550 *    -2.2030 *     4.4059 *  0.0000     8          
    19  Cl    c     -6.6579 *     0.0000       0.0000    0.0000     1          
    20  O     c     -0.0490 *    -2.2030 *     6.6089 *  0.0000     8          
    21  Na    c      6.5598 *    -2.2030 *    -2.2030    0.0000     4          
    22  Na    c      2.1539 *    -2.2030 *     6.6089 *  0.0000     8          
    23  Na    c     -2.2520 *     6.6089 *    -2.2030 *  0.0000     8          
    24  Na    c     -6.6579 *    -2.2030 *    -2.2030    0.0000     4          
    25  Cl    c      6.5598 *     0.0000       4.4059 *  0.0000     4          
    26  Na    c      4.3569 *     6.6089 *     0.0000    0.0000     4          
    27  Na    c     -0.0490 *     6.6089 *     4.4059 *  0.0000     8          
    28  Na    c     -4.4550 *     6.6089 *     0.0000    0.0000     4          
    29  Cl    c     -6.6579 *     0.0000       4.4059 *  0.0000     4          
    30  O     c      4.3569 *    -2.2030 *     6.6089 *  0.0000     8          
    31  O     c     -4.4550 *    -2.2030 *     6.6089 *  0.0000     8          
    32  Na    c      8.7628 *    -2.2030 *     0.0000    0.0000     4          
    33  Cl    c      6.5598 *     4.4059 *     4.4059    0.0000     4          
    34  Na    c      4.3569 *     6.6089 *     4.4059 *  0.0000     8          
    35  Cl    c      2.1539 *     0.0000       8.8118 *  0.0000     4          
    36  Na    c     -0.0490 *    -2.2030 *     8.8118 *  0.0000     8          
    37  Cl    c     -2.2520 *     0.0000       8.8118 *  0.0000     4          
    38  Na    c     -4.4550 *     6.6089 *     4.4059 *  0.0000     8          
    39  Cl    c     -6.6579 *     4.4059 *     4.4059    0.0000     4          
    40  Na    c     -8.8609 *    -2.2030 *     0.0000    0.0000     4          
    41  O     c      8.7628 *    -2.2030 *    -2.2030    0.0000     4          
    42  O     c     -0.0490 *     6.6089 *     6.6089    0.0000     4          
    43  O     c     -8.8609 *    -2.2030 *    -2.2030    0.0000     4          
    44  Na    c      6.5598 *    -2.2030 *     6.6089 *  0.0000     8          
    45  Na    c      2.1539 *     6.6089 *     6.6089    0.0000     4          
    46  Na    c     -2.2520 *     6.6089 *     6.6089    0.0000     4          
    47  Na    c     -6.6579 *    -2.2030 *     6.6089 *  0.0000     8          
    48  Na    c      8.7628 *     4.4059 *    -2.2030 *  0.0000     8          
    49  Na    c      4.3569 *    -2.2030 *     8.8118 *  0.0000     8          
    50  Cl    c      2.1539 *     4.4059 *     8.8118 *  0.0000     8          
    51  Cl    c     -2.2520 *     4.4059 *     8.8118 *  0.0000     8          
    52  Na    c     -4.4550 *    -2.2030 *     8.8118 *  0.0000     8          
    53  Na    c     -8.8609 *    -2.2030 *     4.4059 *  0.0000     8          
    54  O     c      4.3569 *     6.6089 *     6.6089    0.0000     4          
    55  O     c     -4.4550 *     6.6089 *     6.6089    0.0000     4          
    56  Cl    c     10.9657 *     0.0000       0.0000    0.0000     1          
    57  Na    c      8.7628 *     6.6089 *     0.0000    0.0000     4          
    58  Cl    c      6.5598 *     0.0000       8.8118 *  0.0000     4          
    59  Na    c     -0.0490 *     6.6089 *     8.8118 *  0.0000     8          
    60  Na    c     -0.0490 *    11.0148 *     0.0000    0.0000     4          
    61  Cl    c     -6.6579 *     0.0000       8.8118 *  0.0000     4          
    62  Na    c     -8.8609 *     6.6089 *     0.0000    0.0000     4          
    63  Cl    c    -11.0638 *     0.0000       0.0000    0.0000     1          
    64  O     c      8.7628 *    -2.2030 *     6.6089 *  0.0000     8          
    65  O     c     -0.0490 *    -2.2030 *    11.0148 *  0.0000     8          
    66  O     c     -8.8609 *     6.6089 *    -2.2030 *  0.0000     8          
    67  Na    c     10.9657 *    -2.2030 *    -2.2030    0.0000     4          
    68  Na    c      6.5598 *     6.6089 *     6.6089    0.0000     4          
    69  Na    c      2.1539 *    -2.2030 *    11.0148 *  0.0000     8          
    70  Na    c     -2.2520 *    -2.2030 *    11.0148 *  0.0000     8          
    71  Na    c     -6.6579 *     6.6089 *     6.6089    0.0000     4          
    72  Na    c    -11.0638 *    -2.2030 *    -2.2030    0.0000     4          
    73  Cl    c     10.9657 *     0.0000       4.4059 *  0.0000     4          
    74  Na    c      8.7628 *     6.6089 *     4.4059 *  0.0000     8          
    75  Cl    c      6.5598 *     4.4059 *     8.8118 *  0.0000     8          
    76  Na    c      4.3569 *    11.0148 *     0.0000    0.0000     4          
    77  Na    c      4.3569 *     6.6089 *     8.8118 *  0.0000     8          
    78  Na    c     -0.0490 *    11.0148 *     4.4059 *  0.0000     8          
    79  Na    c     -4.4550 *    11.0148 *     0.0000    0.0000     4          
    80  Na    c     -4.4550 *     8.8118 *     6.6089 *  0.0000     8          
    81  Cl    c     -6.6579 *     4.4059 *     8.8118 *  0.0000     8          
    82  Na    c     -8.8609 *     6.6089 *     4.4059 *  0.0000     8          
    83  Cl    c    -11.0638 *     0.0000       4.4059 *  0.0000     4          
    84  Cl    s      0.0000       0.0000       0.0000    0.0000     1    Defect
    85  O     s     -0.0490 *    -2.2030 *    -2.2030    0.0000     4          
    86  Cl    s      2.1539 *     0.0000       4.4059 *  0.0000     4          
    87  Cl    s     -2.2520 *     0.0000       4.4059 *  0.0000     4          
    88  O     s      4.3569 *    -2.2030 *    -2.2030    0.0000     4          
    89  O     s     -4.4550 *    -2.2030 *    -2.2030    0.0000     4          
    90  Cl    s      6.5598 *     0.0000       0.0000    0.0000     1          
    91  Cl    s      2.1539 *     4.4059 *     4.4059    0.0000     4          
    92  Cl    s     -2.2520 *     4.4059 *     4.4059    0.0000     4          
    93  Cl    s     -6.6579 *     0.0000       0.0000    0.0000     1          
    94  O     s     -0.0490 *    -2.2030 *     6.6089 *  0.0000     8          
    95  Cl    s      6.5598 *     0.0000       4.4059 *  0.0000     4          
    96  Cl    s     -6.6579 *     0.0000       4.4059 *  0.0000     4          
    97  O     s      4.3569 *    -2.2030 *     6.6089 *  0.0000     8          
    98  O     s     -4.4550 *    -2.2030 *     6.6089 *  0.0000     8          
    99  Cl    s      6.5598 *     4.4059 *     4.4059    0.0000     4          
   100  Cl    s      2.1539 *     0.0000       8.8118 *  0.0000     4          
   101  Cl    s     -2.2520 *     0.0000       8.8118 *  0.0000     4          
   102  Cl    s     -6.6579 *     4.4059 *     4.4059    0.0000     4          
   103  O     s      8.7628 *    -2.2030 *    -2.2030    0.0000     4          
   104  O     s     -0.0490 *     6.6089 *     6.6089    0.0000     4          
   105  O     s     -8.8609 *    -2.2030 *    -2.2030    0.0000     4          
   106  Cl    s      2.1539 *     4.4059 *     8.8118 *  0.0000     8          
   107  Cl    s     -2.2520 *     4.4059 *     8.8118 *  0.0000     8          
   108  O     s      4.3569 *     6.6089 *     6.6089    0.0000     4          
   109  O     s     -4.4550 *     6.6089 *     6.6089    0.0000     4          
   110  Cl    s     10.9657 *     0.0000       0.0000    0.0000     1          
   111  Cl    s      6.5598 *     0.0000       8.8118 *  0.0000     4          
   112  Cl    s     -6.6579 *     0.0000       8.8118 *  0.0000     4          
   113  Cl    s    -11.0638 *     0.0000       0.0000    0.0000     1          
   114  O     s      8.7628 *    -2.2030 *     6.6089 *  0.0000     8          
   115  O     s     -0.0490 *    -2.2030 *    11.0148 *  0.0000     8          
   116  O     s     -8.8609 *     6.6089 *    -2.2030 *  0.0000     8          
   117  Cl    s     10.9657 *     0.0000       4.4059 *  0.0000     4          
   118  Cl    s      6.5598 *     4.4059 *     8.8118 *  0.0000     8          
   119  Cl    s     -6.6579 *     4.4059 *     8.8118 *  0.0000     8          
   120  Cl    s    -11.0638 *     0.0000       4.4059 *  0.0000     4          
--------------------------------------------------------------------------------


  Constraints on symmetry reduced coordinates :

--------------------------------------------------------------------------------
  Constraint no.      Unconstrained     Constrained    Coefficient    
                         Variable         Variable
--------------------------------------------------------------------------------
           1                 3 y             3 z         1.00000
           2                 4 y             4 z         1.00000
           3                 5 y             5 z         1.00000
           4                11 y            11 z         1.00000
           5                12 y            12 z         1.00000
           6                15 y            15 z         1.00000
           7                17 y            17 z         1.00000
           8                21 y            21 z         1.00000
           9                24 y            24 z         1.00000
          10                33 y            33 z         1.00000
          11                39 y            39 z         1.00000
          12                41 y            41 z         1.00000
          13                42 y            42 z         1.00000
          14                43 y            43 z         1.00000
          15                45 y            45 z         1.00000
          16                46 y            46 z         1.00000
          17                54 y            54 z         1.00000
          18                55 y            55 z         1.00000
          19                67 y            67 z         1.00000
          20                68 y            68 z         1.00000
          21                71 y            71 z         1.00000
          22                72 y            72 z         1.00000
          23                85 y            85 z         1.00000
          24                88 y            88 z         1.00000
          25                89 y            89 z         1.00000
          26                91 y            91 z         1.00000
          27                92 y            92 z         1.00000
          28                99 y            99 z         1.00000
          29               102 y           102 z         1.00000
          30               103 y           103 z         1.00000
          31               104 y           104 z         1.00000
          32               105 y           105 z         1.00000
          33               108 y           108 z         1.00000
          34               109 y           109 z         1.00000
--------------------------------------------------------------------------------


  Components of defect energy : 

--------------------------------------------------------------------------------
  Region 1 - region 1                   =     35.62204014 eV
  Region 1 - region 2a (unrelaxed)      =    -25.57492573 eV
  Region 1 - 2a (relaxed - correction)  =     -0.24009584 eV
  Region 1 (Total)                      =      9.80701858 eV
  Region 2a                             =      0.12008706 eV
  Region 2b                             =     -0.41157882 eV
--------------------------------------------------------------------------------
  Total defect energy                   =      9.51552683 eV
--------------------------------------------------------------------------------

  Largest displacement in region 2 =   0.0166 Angstroms


  Number of variables =      271

  Maximum number of calculations  =        1000
  Maximum Hessian update interval =          10
  Maximum step size               =   1.0000000
  Maximum parameter tolerance     =   0.0000100
  Maximum function  tolerance     =   0.0000100
  Maximum gradient  tolerance     =   0.0010000

  Symmetry adapted optimisation

  Symmetry to be used for second derivatives

  Newton-Raphson optimiser to be used

  BFGS hessian update to be used

  Lower half triangular hessian to be used

  Start of defect optimisation :

  Cycle:      0 Defect Energy:   9.515527  Gnorm:     0.092066  CPU:    1.832
  ** Hessian calculated **
  Cycle:      1 Defect Energy:   7.011423  Gnorm:     0.032815  CPU:    3.799
  ** Hessian calculated **
  Cycle:      2 Defect Energy:   6.493089  Gnorm:     0.002174  CPU:    5.628
  Cycle:      3 Defect Energy:   6.486654  Gnorm:     0.001662  CPU:    5.996
  Cycle:      4 Defect Energy:   6.483691  Gnorm:     0.001169  CPU:    6.364
  Cycle:      5 Defect Energy:   6.482190  Gnorm:     0.000819  CPU:    6.741
  Cycle:      6 Defect Energy:   6.481443  Gnorm:     0.000574  CPU:    7.102
  Cycle:      7 Defect Energy:   6.481070  Gnorm:     0.000403  CPU:    7.475
  Cycle:      8 Defect Energy:   6.480883  Gnorm:     0.000282  CPU:    7.848
  Cycle:      9 Defect Energy:   6.480788  Gnorm:     0.000198  CPU:    8.218
  Cycle:     10 Defect Energy:   6.480740  Gnorm:     0.000138  CPU:    8.585
  Cycle:     11 Defect Energy:   6.480714  Gnorm:     0.000097  CPU:    8.953
  ** Hessian calculated **
  Cycle:     12 Defect Energy:   6.480701  Gnorm:     0.000068  CPU:   10.012


  **** Optimisation achieved ****


  Final defect energy  =        6.48069396
  Final defect Gnorm   =        0.00004749

  Components of defect energy : 

--------------------------------------------------------------------------------
  Region 1 - region 1                   =     30.23259521 eV
  Region 1 - region 2a (unrelaxed)      =    -23.24973249 eV
  Region 1 - 2a (relaxed - correction)  =     -0.18112177 eV
  Region 1 (Total)                      =      6.80174095 eV
  Region 2a                             =      0.09051067 eV
  Region 2b                             =     -0.41155766 eV
--------------------------------------------------------------------------------
  Total defect energy                   =      6.48069396 eV
--------------------------------------------------------------------------------

  Largest displacement in region 2 =   0.0166 Angstroms

  Final coordinates of region 1 :

--------------------------------------------------------------------------------
   No.  Atomic        x           y           z          Radius      Charge
        Label       (Angs)      (Angs)      (Angs)       (Angs)       (e) 
--------------------------------------------------------------------------------
     1  Cl    c     2.252000    0.000000    0.000000    0.000000    1.485000
     2  Na    c     2.186997   -2.484204    0.000000    0.000000    1.000000
     3  Na    c     2.186997    2.484204    0.000000    0.000000    1.000000
     4  Na    c     2.186997    0.000000   -2.484204    0.000000    1.000000
     5  Na    c     2.186997    0.000000    2.484204    0.000000    1.000000
     6  O     c     2.194606   -2.328659   -2.328659    0.000000    0.183000
     7  O     c     2.194606   -2.328659    2.328659    0.000000    0.183000
     8  O     c     2.194606    2.328659   -2.328659    0.000000    0.183000
     9  O     c     2.194606    2.328659    2.328659    0.000000    0.183000
    10  Na    c     4.361445   -2.283269   -2.283269    0.000000    1.000000
    11  Na    c     4.361445   -2.283269    2.283269    0.000000    1.000000
    12  Na    c     4.361445    2.283269   -2.283269    0.000000    1.000000
    13  Na    c     4.361445    2.283269    2.283269    0.000000    1.000000
    14  Na    c     0.031051   -2.309930   -2.309930    0.000000    1.000000
    15  Na    c     0.031051   -2.309930    2.309930    0.000000    1.000000
    16  Na    c     0.031051    2.309930   -2.309930    0.000000    1.000000
    17  Na    c     0.031051    2.309930    2.309930    0.000000    1.000000
    18  Na    c     6.701957   -2.312261    0.000000    0.000000    1.000000
    19  Na    c     6.701957    2.312261    0.000000    0.000000    1.000000
    20  Na    c     6.701957    0.000000   -2.312261    0.000000    1.000000
    21  Na    c     6.701957    0.000000    2.312261    0.000000    1.000000
    22  Cl    c     4.398822    0.000000    4.392621    0.000000    1.485000
    23  Cl    c     4.398822    0.000000   -4.392621    0.000000    1.485000
    24  Cl    c     4.398822    4.392621    0.000000    0.000000    1.485000
    25  Cl    c     4.398822   -4.392621    0.000000    0.000000    1.485000
    26  Na    c     2.210187   -2.313002    4.485113    0.000000    1.000000
    27  Na    c     2.210187   -2.313002   -4.485113    0.000000    1.000000
    28  Na    c     2.210187    2.313002    4.485113    0.000000    1.000000
    29  Na    c     2.210187    2.313002   -4.485113    0.000000    1.000000
    30  Na    c     2.210187    4.485113   -2.313002    0.000000    1.000000
    31  Na    c     2.210187    4.485113    2.313002    0.000000    1.000000
    32  Na    c     2.210187   -4.485113   -2.313002    0.000000    1.000000
    33  Na    c     2.210187   -4.485113    2.313002    0.000000    1.000000
    34  Cl    c    -0.004462    0.000000    4.396342    0.000000    1.485000
    35  Cl    c    -0.004462    0.000000   -4.396342    0.000000    1.485000
    36  Cl    c    -0.004462    4.396342    0.000000    0.000000    1.485000
    37  Cl    c    -0.004462   -4.396342    0.000000    0.000000    1.485000
    38  Na    c    -2.291219   -2.315124    0.000000    0.000000    1.000000
    39  Na    c    -2.291219    2.315124    0.000000    0.000000    1.000000
    40  Na    c    -2.291219    0.000000   -2.315124    0.000000    1.000000
    41  Na    c    -2.291219    0.000000    2.315124    0.000000    1.000000
    42  O     c     6.561168   -2.185162   -2.185162    0.000000    0.183000
    43  O     c     6.561168   -2.185162    2.185162    0.000000    0.183000
    44  O     c     6.561168    2.185162   -2.185162    0.000000    0.183000
    45  O     c     6.561168    2.185162    2.185162    0.000000    0.183000
    46  O     c    -2.162555   -2.186778   -2.186778    0.000000    0.183000
    47  O     c    -2.162555   -2.186778    2.186778    0.000000    0.183000
    48  O     c    -2.162555    2.186778   -2.186778    0.000000    0.183000
    49  O     c    -2.162555    2.186778    2.186778    0.000000    0.183000
    50  Cl    c     8.736936    0.000000    0.000000    0.000000    1.485000
    51  Na    c     6.581550    4.417306   -2.226840    0.000000    1.000000
    52  Na    c     6.581550    4.417306    2.226840    0.000000    1.000000
    53  Na    c     6.581550   -4.417306   -2.226840    0.000000    1.000000
    54  Na    c     6.581550   -4.417306    2.226840    0.000000    1.000000
    55  Na    c     6.581550   -2.226840    4.417306    0.000000    1.000000
    56  Na    c     6.581550   -2.226840   -4.417306    0.000000    1.000000
    57  Na    c     6.581550    2.226840    4.417306    0.000000    1.000000
    58  Na    c     6.581550    2.226840   -4.417306    0.000000    1.000000
    59  Cl    c     4.430422    4.427502    4.427502    0.000000    1.485000
    60  Cl    c     4.430422    4.427502   -4.427502    0.000000    1.485000
    61  Cl    c     4.430422   -4.427502    4.427502    0.000000    1.485000
    62  Cl    c     4.430422   -4.427502   -4.427502    0.000000    1.485000
    63  Na    c     2.201490    6.623799    0.000000    0.000000    1.000000
    64  Na    c     2.201490   -6.623799    0.000000    0.000000    1.000000
    65  Na    c     2.201490    0.000000    6.623799    0.000000    1.000000
    66  Na    c     2.201490    0.000000   -6.623799    0.000000    1.000000
    67  Cl    c    -0.029609    4.430302    4.430302    0.000000    1.485000
    68  Cl    c    -0.029609    4.430302   -4.430302    0.000000    1.485000
    69  Cl    c    -0.029609   -4.430302    4.430302    0.000000    1.485000
    70  Cl    c    -0.029609   -4.430302   -4.430302    0.000000    1.485000
    71  Na    c    -2.196310   -2.226353    4.419281    0.000000    1.000000
    72  Na    c    -2.196310   -2.226353   -4.419281    0.000000    1.000000
    73  Na    c    -2.196310    2.226353    4.419281    0.000000    1.000000
    74  Na    c    -2.196310    2.226353   -4.419281    0.000000    1.000000
    75  Na    c    -2.196310    4.419281   -2.226353    0.000000    1.000000
    76  Na    c    -2.196310    4.419281    2.226353    0.000000    1.000000
    77  Na    c    -2.196310   -4.419281   -2.226353    0.000000    1.000000
    78  Na    c    -2.196310   -4.419281    2.226353    0.000000    1.000000
    79  Cl    c    -4.332642    0.000000    0.000000    0.000000    1.485000
    80  O     c     2.202029   -2.213808    6.648109    0.000000    0.183000
    81  O     c     2.202029   -2.213808   -6.648109    0.000000    0.183000
    82  O     c     2.202029    2.213808    6.648109    0.000000    0.183000
    83  O     c     2.202029    2.213808   -6.648109    0.000000    0.183000
    84  O     c     2.202029    6.648109   -2.213808    0.000000    0.183000
    85  O     c     2.202029    6.648109    2.213808    0.000000    0.183000
    86  O     c     2.202029   -6.648109   -2.213808    0.000000    0.183000
    87  O     c     2.202029   -6.648109    2.213808    0.000000    0.183000
    88  Na    c     8.801473   -2.229479   -2.229479    0.000000    1.000000
    89  Na    c     8.801473   -2.229479    2.229479    0.000000    1.000000
    90  Na    c     8.801473    2.229479   -2.229479    0.000000    1.000000
    91  Na    c     8.801473    2.229479    2.229479    0.000000    1.000000
    92  Na    c     4.407242   -2.205718    6.671699    0.000000    1.000000
    93  Na    c     4.407242   -2.205718   -6.671699    0.000000    1.000000
    94  Na    c     4.407242    2.205718    6.671699    0.000000    1.000000
    95  Na    c     4.407242    2.205718   -6.671699    0.000000    1.000000
    96  Na    c     4.407242    6.671699   -2.205718    0.000000    1.000000
    97  Na    c     4.407242    6.671699    2.205718    0.000000    1.000000
    98  Na    c     4.407242   -6.671699   -2.205718    0.000000    1.000000
    99  Na    c     4.407242   -6.671699    2.205718    0.000000    1.000000
   100  Na    c    -0.003530    6.659231   -2.206101    0.000000    1.000000
   101  Na    c    -0.003530    6.659231    2.206101    0.000000    1.000000
   102  Na    c    -0.003530   -6.659231   -2.206101    0.000000    1.000000
   103  Na    c    -0.003530   -6.659231    2.206101    0.000000    1.000000
   104  Na    c    -0.003530   -2.206101    6.659231    0.000000    1.000000
   105  Na    c    -0.003530   -2.206101   -6.659231    0.000000    1.000000
   106  Na    c    -0.003530    2.206101    6.659231    0.000000    1.000000
   107  Na    c    -0.003530    2.206101   -6.659231    0.000000    1.000000
   108  Na    c    -4.400630   -2.219797   -2.219797    0.000000    1.000000
   109  Na    c    -4.400630   -2.219797    2.219797    0.000000    1.000000
   110  Na    c    -4.400630    2.219797   -2.219797    0.000000    1.000000
   111  Na    c    -4.400630    2.219797    2.219797    0.000000    1.000000
   112  Cl    c     8.773818    0.000000    4.375307    0.000000    1.485000
   113  Cl    c     8.773818    0.000000   -4.375307    0.000000    1.485000
   114  Cl    c     8.773818    4.375307    0.000000    0.000000    1.485000
   115  Cl    c     8.773818   -4.375307    0.000000    0.000000    1.485000
   116  Na    c     6.619390    6.615354    0.000000    0.000000    1.000000
   117  Na    c     6.619390   -6.615354    0.000000    0.000000    1.000000
   118  Na    c     6.619390    0.000000    6.615354    0.000000    1.000000
   119  Na    c     6.619390    0.000000   -6.615354    0.000000    1.000000
   120  Na    c     2.201633    6.686247    4.426867    0.000000    1.000000
   121  Na    c     2.201633    6.686247   -4.426867    0.000000    1.000000
   122  Na    c     2.201633   -6.686247    4.426867    0.000000    1.000000
   123  Na    c     2.201633   -6.686247   -4.426867    0.000000    1.000000
   124  Na    c     2.201633    4.426867    6.686247    0.000000    1.000000
   125  Na    c     2.201633    4.426867   -6.686247    0.000000    1.000000
   126  Na    c     2.201633   -4.426867    6.686247    0.000000    1.000000
   127  Na    c     2.201633   -4.426867   -6.686247    0.000000    1.000000
   128  Na    c    -2.212940    6.617618    0.000000    0.000000    1.000000
   129  Na    c    -2.212940   -6.617618    0.000000    0.000000    1.000000
   130  Na    c    -2.212940    0.000000    6.617618    0.000000    1.000000
   131  Na    c    -2.212940    0.000000   -6.617618    0.000000    1.000000
   132  Cl    c    -4.370610    0.000000    4.375160    0.000000    1.485000
   133  Cl    c    -4.370610    0.000000   -4.375160    0.000000    1.485000
   134  Cl    c    -4.370610    4.375160    0.000000    0.000000    1.485000
   135  Cl    c    -4.370610   -4.375160    0.000000    0.000000    1.485000
   136  O     c     6.604831   -2.202851    6.612155    0.000000    0.183000
   137  O     c     6.604831   -2.202851   -6.612155    0.000000    0.183000
   138  O     c     6.604831    2.202851    6.612155    0.000000    0.183000
   139  O     c     6.604831    2.202851   -6.612155    0.000000    0.183000
   140  O     c     6.604831    6.612155   -2.202851    0.000000    0.183000
   141  O     c     6.604831    6.612155    2.202851    0.000000    0.183000
   142  O     c     6.604831   -6.612155   -2.202851    0.000000    0.183000
   143  O     c     6.604831   -6.612155    2.202851    0.000000    0.183000
   144  O     c    -2.201864   -2.203365    6.612922    0.000000    0.183000
   145  O     c    -2.201864   -2.203365   -6.612922    0.000000    0.183000
   146  O     c    -2.201864    2.203365    6.612922    0.000000    0.183000
   147  O     c    -2.201864    2.203365   -6.612922    0.000000    0.183000
   148  O     c    -2.201864    6.612922   -2.203365    0.000000    0.183000
   149  O     c    -2.201864    6.612922    2.203365    0.000000    0.183000
   150  O     c    -2.201864   -6.612922   -2.203365    0.000000    0.183000
   151  O     c    -2.201864   -6.612922    2.203365    0.000000    0.183000
   152  Na    c    11.009108   -2.204972    0.000000    0.000000    1.000000
   153  Na    c    11.009108    2.204972    0.000000    0.000000    1.000000
   154  Na    c    11.009108    0.000000   -2.204972    0.000000    1.000000
   155  Na    c    11.009108    0.000000    2.204972    0.000000    1.000000
   156  Cl    c     8.783495    4.378933    4.378933    0.000000    1.485000
   157  Cl    c     8.783495    4.378933   -4.378933    0.000000    1.485000
   158  Cl    c     8.783495   -4.378933    4.378933    0.000000    1.485000
   159  Cl    c     8.783495   -4.378933   -4.378933    0.000000    1.485000
   160  Na    c     6.607352    6.625464    4.412826    0.000000    1.000000
   161  Na    c     6.607352    6.625464   -4.412826    0.000000    1.000000
   162  Na    c     6.607352   -6.625464    4.412826    0.000000    1.000000
   163  Na    c     6.607352   -6.625464   -4.412826    0.000000    1.000000
   164  Na    c     6.607352    4.412826    6.625464    0.000000    1.000000
   165  Na    c     6.607352    4.412826   -6.625464    0.000000    1.000000
   166  Na    c     6.607352   -4.412826    6.625464    0.000000    1.000000
   167  Na    c     6.607352   -4.412826   -6.625464    0.000000    1.000000
   168  Cl    c     4.406029    0.000000    8.806628    0.000000    1.485000
   169  Cl    c     4.406029    0.000000   -8.806628    0.000000    1.485000
   170  Cl    c     4.406029    8.806628    0.000000    0.000000    1.485000
   171  Cl    c     4.406029   -8.806628    0.000000    0.000000    1.485000
   172  Na    c     2.197766   -2.191713    8.838962    0.000000    1.000000
   173  Na    c     2.197766   -2.191713   -8.838962    0.000000    1.000000
   174  Na    c     2.197766    2.191713    8.838962    0.000000    1.000000
   175  Na    c     2.197766    2.191713   -8.838962    0.000000    1.000000
   176  Na    c     2.197766    8.838962   -2.191713    0.000000    1.000000
   177  Na    c     2.197766    8.838962    2.191713    0.000000    1.000000
   178  Na    c     2.197766   -8.838962   -2.191713    0.000000    1.000000
   179  Na    c     2.197766   -8.838962    2.191713    0.000000    1.000000
   180  Cl    c    -0.001606    0.000000    8.806513    0.000000    1.485000
   181  Cl    c    -0.001606    0.000000   -8.806513    0.000000    1.485000
   182  Cl    c    -0.001606    8.806513    0.000000    0.000000    1.485000
   183  Cl    c    -0.001606   -8.806513    0.000000    0.000000    1.485000
   184  Na    c    -2.201525    6.626000    4.413498    0.000000    1.000000
   185  Na    c    -2.201525    6.626000   -4.413498    0.000000    1.000000
   186  Na    c    -2.201525   -6.626000    4.413498    0.000000    1.000000
   187  Na    c    -2.201525   -6.626000   -4.413498    0.000000    1.000000
   188  Na    c    -2.201525    4.413498    6.626000    0.000000    1.000000
   189  Na    c    -2.201525    4.413498   -6.626000    0.000000    1.000000
   190  Na    c    -2.201525   -4.413498    6.626000    0.000000    1.000000
   191  Na    c    -2.201525   -4.413498   -6.626000    0.000000    1.000000
   192  Cl    c    -4.380503    4.378813    4.378813    0.000000    1.485000
   193  Cl    c    -4.380503    4.378813   -4.378813    0.000000    1.485000
   194  Cl    c    -4.380503   -4.378813    4.378813    0.000000    1.485000
   195  Cl    c    -4.380503   -4.378813   -4.378813    0.000000    1.485000
   196  Na    c    -6.613652   -2.205842    0.000000    0.000000    1.000000
   197  Na    c    -6.613652    2.205842    0.000000    0.000000    1.000000
   198  Na    c    -6.613652    0.000000   -2.205842    0.000000    1.000000
   199  Na    c    -6.613652    0.000000    2.205842    0.000000    1.000000
   200  O     c    11.002392   -2.202371   -2.202371    0.000000    0.183000
   201  O     c    11.002392   -2.202371    2.202371    0.000000    0.183000
   202  O     c    11.002392    2.202371   -2.202371    0.000000    0.183000
   203  O     c    11.002392    2.202371    2.202371    0.000000    0.183000
   204  O     c     2.202531    6.622490    6.622490    0.000000    0.183000
   205  O     c     2.202531    6.622490   -6.622490    0.000000    0.183000
   206  O     c     2.202531   -6.622490    6.622490    0.000000    0.183000
   207  O     c     2.202531   -6.622490   -6.622490    0.000000    0.183000
   208  O     c    -6.599690   -2.202061   -2.202061    0.000000    0.183000
   209  O     c    -6.599690   -2.202061    2.202061    0.000000    0.183000
   210  O     c    -6.599690    2.202061   -2.202061    0.000000    0.183000
   211  O     c    -6.599690    2.202061    2.202061    0.000000    0.183000
   212  Na    c     8.809945   -2.217984    6.609670    0.000000    1.000000
   213  Na    c     8.809945   -2.217984   -6.609670    0.000000    1.000000
   214  Na    c     8.809945    2.217984    6.609670    0.000000    1.000000
   215  Na    c     8.809945    2.217984   -6.609670    0.000000    1.000000
   216  Na    c     8.809945    6.609670   -2.217984    0.000000    1.000000
   217  Na    c     8.809945    6.609670    2.217984    0.000000    1.000000
   218  Na    c     8.809945   -6.609670   -2.217984    0.000000    1.000000
   219  Na    c     8.809945   -6.609670    2.217984    0.000000    1.000000
   220  Na    c     4.409878    6.618731    6.618731    0.000000    1.000000
   221  Na    c     4.409878    6.618731   -6.618731    0.000000    1.000000
   222  Na    c     4.409878   -6.618731    6.618731    0.000000    1.000000
   223  Na    c     4.409878   -6.618731   -6.618731    0.000000    1.000000
   224  Na    c    -0.004797    6.619771    6.619771    0.000000    1.000000
   225  Na    c    -0.004797    6.619771   -6.619771    0.000000    1.000000
   226  Na    c    -0.004797   -6.619771    6.619771    0.000000    1.000000
   227  Na    c    -0.004797   -6.619771   -6.619771    0.000000    1.000000
   228  Na    c    -4.405779   -2.217778    6.618552    0.000000    1.000000
   229  Na    c    -4.405779   -2.217778   -6.618552    0.000000    1.000000
   230  Na    c    -4.405779    2.217778    6.618552    0.000000    1.000000
   231  Na    c    -4.405779    2.217778   -6.618552    0.000000    1.000000
   232  Na    c    -4.405779    6.618552   -2.217778    0.000000    1.000000
   233  Na    c    -4.405779    6.618552    2.217778    0.000000    1.000000
   234  Na    c    -4.405779   -6.618552   -2.217778    0.000000    1.000000
   235  Na    c    -4.405779   -6.618552    2.217778    0.000000    1.000000
   236  Na    c    11.025697    4.405991   -2.204059    0.000000    1.000000
   237  Na    c    11.025697    4.405991    2.204059    0.000000    1.000000
   238  Na    c    11.025697   -4.405991   -2.204059    0.000000    1.000000
   239  Na    c    11.025697   -4.405991    2.204059    0.000000    1.000000
   240  Na    c    11.025697   -2.204059    4.405991    0.000000    1.000000
   241  Na    c    11.025697   -2.204059   -4.405991    0.000000    1.000000
   242  Na    c    11.025697    2.204059    4.405991    0.000000    1.000000
   243  Na    c    11.025697    2.204059   -4.405991    0.000000    1.000000
   244  Na    c     6.625048   -2.197465    8.818251    0.000000    1.000000
   245  Na    c     6.625048   -2.197465   -8.818251    0.000000    1.000000
   246  Na    c     6.625048    2.197465    8.818251    0.000000    1.000000
   247  Na    c     6.625048    2.197465   -8.818251    0.000000    1.000000
   248  Na    c     6.625048    8.818251   -2.197465    0.000000    1.000000
   249  Na    c     6.625048    8.818251    2.197465    0.000000    1.000000
   250  Na    c     6.625048   -8.818251   -2.197465    0.000000    1.000000
   251  Na    c     6.625048   -8.818251    2.197465    0.000000    1.000000
   252  Cl    c     4.404880    4.406218    8.808696    0.000000    1.485000
   253  Cl    c     4.404880    4.406218   -8.808696    0.000000    1.485000
   254  Cl    c     4.404880    8.808696    4.406218    0.000000    1.485000
   255  Cl    c     4.404880    8.808696   -4.406218    0.000000    1.485000
   256  Cl    c     4.404880   -4.406218    8.808696    0.000000    1.485000
   257  Cl    c     4.404880   -4.406218   -8.808696    0.000000    1.485000
   258  Cl    c     4.404880   -8.808696    4.406218    0.000000    1.485000
   259  Cl    c     4.404880   -8.808696   -4.406218    0.000000    1.485000
   260  Cl    c     0.000156    4.406236    8.808814    0.000000    1.485000
   261  Cl    c     0.000156    4.406236   -8.808814    0.000000    1.485000
   262  Cl    c     0.000156    8.808814    4.406236    0.000000    1.485000
   263  Cl    c     0.000156    8.808814   -4.406236    0.000000    1.485000
   264  Cl    c     0.000156   -4.406236    8.808814    0.000000    1.485000
   265  Cl    c     0.000156   -4.406236   -8.808814    0.000000    1.485000
   266  Cl    c     0.000156   -8.808814    4.406236    0.000000    1.485000
   267  Cl    c     0.000156   -8.808814   -4.406236    0.000000    1.485000
   268  Na    c    -2.213804   -2.198761    8.818512    0.000000    1.000000
   269  Na    c    -2.213804   -2.198761   -8.818512    0.000000    1.000000
   270  Na    c    -2.213804    2.198761    8.818512    0.000000    1.000000
   271  Na    c    -2.213804    2.198761   -8.818512    0.000000    1.000000
   272  Na    c    -2.213804    8.818512   -2.198761    0.000000    1.000000
   273  Na    c    -2.213804    8.818512    2.198761    0.000000    1.000000
   274  Na    c    -2.213804   -8.818512   -2.198761    0.000000    1.000000
   275  Na    c    -2.213804   -8.818512    2.198761    0.000000    1.000000
   276  Na    c    -6.616515   -2.205216    4.406373    0.000000    1.000000
   277  Na    c    -6.616515   -2.205216   -4.406373    0.000000    1.000000
   278  Na    c    -6.616515    2.205216    4.406373    0.000000    1.000000
   279  Na    c    -6.616515    2.205216   -4.406373    0.000000    1.000000
   280  Na    c    -6.616515    4.406373   -2.205216    0.000000    1.000000
   281  Na    c    -6.616515    4.406373    2.205216    0.000000    1.000000
   282  Na    c    -6.616515   -4.406373   -2.205216    0.000000    1.000000
   283  Na    c    -6.616515   -4.406373    2.205216    0.000000    1.000000
   284  O     c     6.612567    6.614852    6.614852    0.000000    0.183000
   285  O     c     6.612567    6.614852   -6.614852    0.000000    0.183000
   286  O     c     6.612567   -6.614852    6.614852    0.000000    0.183000
   287  O     c     6.612567   -6.614852   -6.614852    0.000000    0.183000
   288  O     c    -2.207470    6.615500    6.615500    0.000000    0.183000
   289  O     c    -2.207470    6.615500   -6.615500    0.000000    0.183000
   290  O     c    -2.207470   -6.615500    6.615500    0.000000    0.183000
   291  O     c    -2.207470   -6.615500   -6.615500    0.000000    0.183000
   292  Cl    c    13.194756    0.000000    0.000000    0.000000    1.485000
   293  Na    c    11.019347    6.621638    0.000000    0.000000    1.000000
   294  Na    c    11.019347   -6.621638    0.000000    0.000000    1.000000
   295  Na    c    11.019347    0.000000    6.621638    0.000000    1.000000
   296  Na    c    11.019347    0.000000   -6.621638    0.000000    1.000000
   297  Cl    c     8.807136    0.000000    8.798220    0.000000    1.485000
   298  Cl    c     8.807136    0.000000   -8.798220    0.000000    1.485000
   299  Cl    c     8.807136    8.798220    0.000000    0.000000    1.485000
   300  Cl    c     8.807136   -8.798220    0.000000    0.000000    1.485000
   301  Na    c     2.203091    6.633353    8.824070    0.000000    1.000000
   302  Na    c     2.203091    6.633353   -8.824070    0.000000    1.000000
   303  Na    c     2.203091   -6.633353    8.824070    0.000000    1.000000
   304  Na    c     2.203091   -6.633353   -8.824070    0.000000    1.000000
   305  Na    c     2.203091    8.824070    6.633353    0.000000    1.000000
   306  Na    c     2.203091    8.824070   -6.633353    0.000000    1.000000
   307  Na    c     2.203091   -8.824070    6.633353    0.000000    1.000000
   308  Na    c     2.203091   -8.824070   -6.633353    0.000000    1.000000
   309  Na    c     2.204255   11.043088    0.000000    0.000000    1.000000
   310  Na    c     2.204255  -11.043088    0.000000    0.000000    1.000000
   311  Na    c     2.204255    0.000000   11.043088    0.000000    1.000000
   312  Na    c     2.204255    0.000000  -11.043088    0.000000    1.000000
   313  Cl    c    -4.402352    0.000000    8.798582    0.000000    1.485000
   314  Cl    c    -4.402352    0.000000   -8.798582    0.000000    1.485000
   315  Cl    c    -4.402352    8.798582    0.000000    0.000000    1.485000
   316  Cl    c    -4.402352   -8.798582    0.000000    0.000000    1.485000
   317  Na    c    -6.615221    6.620377    0.000000    0.000000    1.000000
   318  Na    c    -6.615221   -6.620377    0.000000    0.000000    1.000000
   319  Na    c    -6.615221    0.000000    6.620377    0.000000    1.000000
   320  Na    c    -6.615221    0.000000   -6.620377    0.000000    1.000000
   321  Cl    c    -8.789440    0.000000    0.000000    0.000000    1.485000
   322  O     c    11.010874   -2.202131    6.604090    0.000000    0.183000
   323  O     c    11.010874   -2.202131   -6.604090    0.000000    0.183000
   324  O     c    11.010874    2.202131    6.604090    0.000000    0.183000
   325  O     c    11.010874    2.202131   -6.604090    0.000000    0.183000
   326  O     c    11.010874    6.604090   -2.202131    0.000000    0.183000
   327  O     c    11.010874    6.604090    2.202131    0.000000    0.183000
   328  O     c    11.010874   -6.604090   -2.202131    0.000000    0.183000
   329  O     c    11.010874   -6.604090    2.202131    0.000000    0.183000
   330  O     c     2.202419   -2.201854   11.023805    0.000000    0.183000
   331  O     c     2.202419   -2.201854  -11.023805    0.000000    0.183000
   332  O     c     2.202419    2.201854   11.023805    0.000000    0.183000
   333  O     c     2.202419    2.201854  -11.023805    0.000000    0.183000
   334  O     c     2.202419   11.023805   -2.201854    0.000000    0.183000
   335  O     c     2.202419   11.023805    2.201854    0.000000    0.183000
   336  O     c     2.202419  -11.023805   -2.201854    0.000000    0.183000
   337  O     c     2.202419  -11.023805    2.201854    0.000000    0.183000
   338  O     c    -6.605415    6.604715   -2.202230    0.000000    0.183000
   339  O     c    -6.605415    6.604715    2.202230    0.000000    0.183000
   340  O     c    -6.605415   -6.604715   -2.202230    0.000000    0.183000
   341  O     c    -6.605415   -6.604715    2.202230    0.000000    0.183000
   342  O     c    -6.605415   -2.202230    6.604715    0.000000    0.183000
   343  O     c    -6.605415   -2.202230   -6.604715    0.000000    0.183000
   344  O     c    -6.605415    2.202230    6.604715    0.000000    0.183000
   345  O     c    -6.605415    2.202230   -6.604715    0.000000    0.183000
   346  Na    c    13.216463   -2.199997   -2.199997    0.000000    1.000000
   347  Na    c    13.216463   -2.199997    2.199997    0.000000    1.000000
   348  Na    c    13.216463    2.199997   -2.199997    0.000000    1.000000
   349  Na    c    13.216463    2.199997    2.199997    0.000000    1.000000
   350  Na    c     8.814191    6.617611    6.617611    0.000000    1.000000
   351  Na    c     8.814191    6.617611   -6.617611    0.000000    1.000000
   352  Na    c     8.814191   -6.617611    6.617611    0.000000    1.000000
   353  Na    c     8.814191   -6.617611   -6.617611    0.000000    1.000000
   354  Na    c     4.408046   -2.209172   11.029178    0.000000    1.000000
   355  Na    c     4.408046   -2.209172  -11.029178    0.000000    1.000000
   356  Na    c     4.408046    2.209172   11.029178    0.000000    1.000000
   357  Na    c     4.408046    2.209172  -11.029178    0.000000    1.000000
   358  Na    c     4.408046   11.029178   -2.209172    0.000000    1.000000
   359  Na    c     4.408046   11.029178    2.209172    0.000000    1.000000
   360  Na    c     4.408046  -11.029178   -2.209172    0.000000    1.000000
   361  Na    c     4.408046  -11.029178    2.209172    0.000000    1.000000
   362  Na    c    -0.002618   -2.207913   11.032655    0.000000    1.000000
   363  Na    c    -0.002618   -2.207913  -11.032655    0.000000    1.000000
   364  Na    c    -0.002618    2.207913   11.032655    0.000000    1.000000
   365  Na    c    -0.002618    2.207913  -11.032655    0.000000    1.000000
   366  Na    c    -0.002618   11.032655   -2.207913    0.000000    1.000000
   367  Na    c    -0.002618   11.032655    2.207913    0.000000    1.000000
   368  Na    c    -0.002618  -11.032655   -2.207913    0.000000    1.000000
   369  Na    c    -0.002618  -11.032655    2.207913    0.000000    1.000000
   370  Na    c    -4.408701    6.617752    6.617752    0.000000    1.000000
   371  Na    c    -4.408701    6.617752   -6.617752    0.000000    1.000000
   372  Na    c    -4.408701   -6.617752    6.617752    0.000000    1.000000
   373  Na    c    -4.408701   -6.617752   -6.617752    0.000000    1.000000
   374  Na    c    -8.812117   -2.203466   -2.203466    0.000000    1.000000
   375  Na    c    -8.812117   -2.203466    2.203466    0.000000    1.000000
   376  Na    c    -8.812117    2.203466   -2.203466    0.000000    1.000000
   377  Na    c    -8.812117    2.203466    2.203466    0.000000    1.000000
   378  Cl    c    13.193684    0.000000    4.396194    0.000000    1.485000
   379  Cl    c    13.193684    0.000000   -4.396194    0.000000    1.485000
   380  Cl    c    13.193684    4.396194    0.000000    0.000000    1.485000
   381  Cl    c    13.193684   -4.396194    0.000000    0.000000    1.485000
   382  Na    c    11.028256    6.620782    4.407510    0.000000    1.000000
   383  Na    c    11.028256    6.620782   -4.407510    0.000000    1.000000
   384  Na    c    11.028256   -6.620782    4.407510    0.000000    1.000000
   385  Na    c    11.028256   -6.620782   -4.407510    0.000000    1.000000
   386  Na    c    11.028256    4.407510    6.620782    0.000000    1.000000
   387  Na    c    11.028256    4.407510   -6.620782    0.000000    1.000000
   388  Na    c    11.028256   -4.407510    6.620782    0.000000    1.000000
   389  Na    c    11.028256   -4.407510   -6.620782    0.000000    1.000000
   390  Cl    c     8.806873    4.397437    8.794963    0.000000    1.485000
   391  Cl    c     8.806873    4.397437   -8.794963    0.000000    1.485000
   392  Cl    c     8.806873    8.794963    4.397437    0.000000    1.485000
   393  Cl    c     8.806873    8.794963   -4.397437    0.000000    1.485000
   394  Cl    c     8.806873   -4.397437    8.794963    0.000000    1.485000
   395  Cl    c     8.806873   -4.397437   -8.794963    0.000000    1.485000
   396  Cl    c     8.806873   -8.794963    4.397437    0.000000    1.485000
   397  Cl    c     8.806873   -8.794963   -4.397437    0.000000    1.485000
   398  Na    c     6.609403   11.033994    0.000000    0.000000    1.000000
   399  Na    c     6.609403  -11.033994    0.000000    0.000000    1.000000
   400  Na    c     6.609403    0.000000   11.033994    0.000000    1.000000
   401  Na    c     6.609403    0.000000  -11.033994    0.000000    1.000000
   402  Na    c     6.614425    6.621430    8.818025    0.000000    1.000000
   403  Na    c     6.614425    6.621430   -8.818025    0.000000    1.000000
   404  Na    c     6.614425   -6.621430    8.818025    0.000000    1.000000
   405  Na    c     6.614425   -6.621430   -8.818025    0.000000    1.000000
   406  Na    c     6.614425    8.818025    6.621430    0.000000    1.000000
   407  Na    c     6.614425    8.818025   -6.621430    0.000000    1.000000
   408  Na    c     6.614425   -8.818025    6.621430    0.000000    1.000000
   409  Na    c     6.614425   -8.818025   -6.621430    0.000000    1.000000
   410  Na    c     2.202886   11.032269    4.408948    0.000000    1.000000
   411  Na    c     2.202886   11.032269   -4.408948    0.000000    1.000000
   412  Na    c     2.202886  -11.032269    4.408948    0.000000    1.000000
   413  Na    c     2.202886  -11.032269   -4.408948    0.000000    1.000000
   414  Na    c     2.202886    4.408948   11.032269    0.000000    1.000000
   415  Na    c     2.202886    4.408948  -11.032269    0.000000    1.000000
   416  Na    c     2.202886   -4.408948   11.032269    0.000000    1.000000
   417  Na    c     2.202886   -4.408948  -11.032269    0.000000    1.000000
   418  Na    c    -2.205145   11.032495    0.000000    0.000000    1.000000
   419  Na    c    -2.205145  -11.032495    0.000000    0.000000    1.000000
   420  Na    c    -2.205145    0.000000   11.032495    0.000000    1.000000
   421  Na    c    -2.205145    0.000000  -11.032495    0.000000    1.000000
   422  Na    c    -2.209062    8.818334    6.621822    0.000000    1.000000
   423  Na    c    -2.209062    8.818334   -6.621822    0.000000    1.000000
   424  Na    c    -2.209062   -8.818334    6.621822    0.000000    1.000000
   425  Na    c    -2.209062   -8.818334   -6.621822    0.000000    1.000000
   426  Na    c    -2.209062    6.621822    8.818334    0.000000    1.000000
   427  Na    c    -2.209062    6.621822   -8.818334    0.000000    1.000000
   428  Na    c    -2.209062   -6.621822    8.818334    0.000000    1.000000
   429  Na    c    -2.209062   -6.621822   -8.818334    0.000000    1.000000
   430  Cl    c    -4.401794    4.397591    8.795378    0.000000    1.485000
   431  Cl    c    -4.401794    4.397591   -8.795378    0.000000    1.485000
   432  Cl    c    -4.401794    8.795378    4.397591    0.000000    1.485000
   433  Cl    c    -4.401794    8.795378   -4.397591    0.000000    1.485000
   434  Cl    c    -4.401794   -4.397591    8.795378    0.000000    1.485000
   435  Cl    c    -4.401794   -4.397591   -8.795378    0.000000    1.485000
   436  Cl    c    -4.401794   -8.795378    4.397591    0.000000    1.485000
   437  Cl    c    -4.401794   -8.795378   -4.397591    0.000000    1.485000
   438  Na    c    -6.622990    6.620710    4.407700    0.000000    1.000000
   439  Na    c    -6.622990    6.620710   -4.407700    0.000000    1.000000
   440  Na    c    -6.622990   -6.620710    4.407700    0.000000    1.000000
   441  Na    c    -6.622990   -6.620710   -4.407700    0.000000    1.000000
   442  Na    c    -6.622990    4.407700    6.620710    0.000000    1.000000
   443  Na    c    -6.622990    4.407700   -6.620710    0.000000    1.000000
   444  Na    c    -6.622990   -4.407700    6.620710    0.000000    1.000000
   445  Na    c    -6.622990   -4.407700   -6.620710    0.000000    1.000000
   446  Cl    c    -8.788583    0.000000    4.396749    0.000000    1.485000
   447  Cl    c    -8.788583    0.000000   -4.396749    0.000000    1.485000
   448  Cl    c    -8.788583    4.396749    0.000000    0.000000    1.485000
   449  Cl    c    -8.788583   -4.396749    0.000000    0.000000    1.485000
   450  Cl    s     2.252000    0.000000    0.000000    0.000000   -2.485000
   451  O     s     2.194605   -2.328844   -2.328844    0.000000   -2.183000
   452  O     s     2.194605   -2.328844    2.328844    0.000000   -2.183000
   453  O     s     2.194605    2.328844   -2.328844    0.000000   -2.183000
   454  O     s     2.194605    2.328844    2.328844    0.000000   -2.183000
   455  Cl    s     4.394850    0.000000    4.385337    0.000000   -2.485000
   456  Cl    s     4.394850    0.000000   -4.385337    0.000000   -2.485000
   457  Cl    s     4.394850    4.385337    0.000000    0.000000   -2.485000
   458  Cl    s     4.394850   -4.385337    0.000000    0.000000   -2.485000
   459  Cl    s    -0.000721    0.000000    4.388971    0.000000   -2.485000
   460  Cl    s    -0.000721    0.000000   -4.388971    0.000000   -2.485000
   461  Cl    s    -0.000721    4.388971    0.000000    0.000000   -2.485000
   462  Cl    s    -0.000721   -4.388971    0.000000    0.000000   -2.485000
   463  O     s     6.561185   -2.185173   -2.185173    0.000000   -2.183000
   464  O     s     6.561185   -2.185173    2.185173    0.000000   -2.183000
   465  O     s     6.561185    2.185173   -2.185173    0.000000   -2.183000
   466  O     s     6.561185    2.185173    2.185173    0.000000   -2.183000
[...]
     40 y         -2.202951     -2.205842    -0.002891    Cartesian    0.13
     40 z          0.000000      0.000000     0.000000    Cartesian    0.00
     41 x         11.014756     11.002392    -0.012364    Cartesian   -0.11
     41 y         -2.202951     -2.202371     0.000580    Cartesian   -0.03
     41 z         -2.202951     -2.202371     0.000580    Cartesian   -0.03
     42 x          2.202951      2.202531    -0.000420    Cartesian   -0.02
     42 y          6.608853      6.622490     0.013636    Cartesian    0.21
     42 z          6.608853      6.622490     0.013636    Cartesian    0.21
     43 x         -6.608853     -6.599690     0.009163    Cartesian   -0.14
     43 y         -2.202951     -2.202061     0.000890    Cartesian   -0.04
     43 z         -2.202951     -2.202061     0.000890    Cartesian   -0.04
     44 x          8.811805      8.809945    -0.001860    Cartesian   -0.02
     44 y         -2.202951     -2.217984    -0.015033    Cartesian    0.68
     44 z          6.608853      6.609670     0.000817    Cartesian    0.01
     45 x          4.405902      4.409878     0.003976    Cartesian    0.09
     45 y          6.608853      6.618731     0.009878    Cartesian    0.15
     45 z          6.608853      6.618731     0.009878    Cartesian    0.15
     46 x          0.000000     -0.004797    -0.004797    Cartesian    0.00
     46 y          6.608853      6.619771     0.010917    Cartesian    0.17
     46 z          6.608853      6.619771     0.010917    Cartesian    0.17
     47 x         -4.405902     -4.405779     0.000124    Cartesian   -0.00
     47 y         -2.202951     -2.217778    -0.014827    Cartesian    0.67
     47 z          6.608853      6.618552     0.009698    Cartesian    0.15
     48 x         11.014756     11.025697     0.010941    Cartesian    0.10
     48 y          4.405902      4.405991     0.000088    Cartesian    0.00
     48 z         -2.202951     -2.204059    -0.001108    Cartesian    0.05
     49 x          6.608853      6.625048     0.016195    Cartesian    0.25
     49 y         -2.202951     -2.197465     0.005486    Cartesian   -0.25
     49 z          8.811805      8.818251     0.006447    Cartesian    0.07
     50 x          4.405902      4.404880    -0.001022    Cartesian   -0.02
     50 y          4.405902      4.406218     0.000316    Cartesian    0.01
     50 z          8.811805      8.808696    -0.003108    Cartesian   -0.04
     51 x          0.000000      0.000156     0.000156    Cartesian    0.00
     51 y          4.405902      4.406236     0.000334    Cartesian    0.01
     51 z          8.811805      8.808814    -0.002990    Cartesian   -0.03
     52 x         -2.202951     -2.213804    -0.010853    Cartesian    0.49
     52 y         -2.202951     -2.198761     0.004191    Cartesian   -0.19
     52 z          8.811805      8.818512     0.006707    Cartesian    0.08
     53 x         -6.608853     -6.616515    -0.007662    Cartesian    0.12
     53 y         -2.202951     -2.205216    -0.002265    Cartesian    0.10
     53 z          4.405902      4.406373     0.000471    Cartesian    0.01
     54 x          6.608853      6.612567     0.003714    Cartesian    0.06
     54 y          6.608853      6.614852     0.005999    Cartesian    0.09
     54 z          6.608853      6.614852     0.005999    Cartesian    0.09
     55 x         -2.202951     -2.207470    -0.004519    Cartesian    0.21
     55 y          6.608853      6.615500     0.006647    Cartesian    0.10
     55 z          6.608853      6.615500     0.006647    Cartesian    0.10
     56 x         13.217707     13.194756    -0.022951    Cartesian   -0.17
     56 y          0.000000      0.000000     0.000000    Cartesian    0.00
     56 z          0.000000      0.000000     0.000000    Cartesian    0.00
     57 x         11.014756     11.019347     0.004592    Cartesian    0.04
     57 y          6.608853      6.621638     0.012785    Cartesian    0.19
     57 z          0.000000      0.000000     0.000000    Cartesian    0.00
     58 x          8.811805      8.807136    -0.004668    Cartesian   -0.05
     58 y          0.000000      0.000000     0.000000    Cartesian    0.00
     58 z          8.811805      8.798220    -0.013585    Cartesian   -0.15
     59 x          2.202951      2.203091     0.000140    Cartesian    0.01
     59 y          6.608853      6.633353     0.024499    Cartesian    0.37
     59 z          8.811805      8.824070     0.012265    Cartesian    0.14
     60 x          2.202951      2.204255     0.001304    Cartesian    0.06
     60 y         11.014756     11.043088     0.028332    Cartesian    0.26
     60 z          0.000000      0.000000     0.000000    Cartesian    0.00
     61 x         -4.405902     -4.402352     0.003550    Cartesian   -0.08
     61 y          0.000000      0.000000     0.000000    Cartesian    0.00
     61 z          8.811805      8.798582    -0.013223    Cartesian   -0.15
     62 x         -6.608853     -6.615221    -0.006368    Cartesian    0.10
     62 y          6.608853      6.620377     0.011524    Cartesian    0.17
     62 z          0.000000      0.000000     0.000000    Cartesian    0.00
     63 x         -8.811805     -8.789440     0.022365    Cartesian   -0.25
     63 y          0.000000      0.000000     0.000000    Cartesian    0.00
     63 z          0.000000      0.000000     0.000000    Cartesian    0.00
     64 x         11.014756     11.010874    -0.003882    Cartesian   -0.04
     64 y         -2.202951     -2.202131     0.000821    Cartesian   -0.04
     64 z          6.608853      6.604090    -0.004763    Cartesian   -0.07
     65 x          2.202951      2.202419    -0.000532    Cartesian   -0.02
     65 y         -2.202951     -2.201854     0.001097    Cartesian   -0.05
     65 z         11.014756     11.023805     0.009050    Cartesian    0.08
     66 x         -6.608853     -6.605415     0.003439    Cartesian   -0.05
     66 y          6.608853      6.604715    -0.004139    Cartesian   -0.06
     66 z         -2.202951     -2.202230     0.000721    Cartesian   -0.03
     67 x         13.217707     13.216463    -0.001244    Cartesian   -0.01
     67 y         -2.202951     -2.199997     0.002954    Cartesian   -0.13
     67 z         -2.202951     -2.199997     0.002954    Cartesian   -0.13
     68 x          8.811805      8.814191     0.002387    Cartesian    0.03
     68 y          6.608853      6.617611     0.008757    Cartesian    0.13
     68 z          6.608853      6.617611     0.008757    Cartesian    0.13
     69 x          4.405902      4.408046     0.002144    Cartesian    0.05
     69 y         -2.202951     -2.209172    -0.006220    Cartesian    0.28
     69 z         11.014756     11.029178     0.014422    Cartesian    0.13
     70 x          0.000000     -0.002618    -0.002618    Cartesian    0.00
     70 y         -2.202951     -2.207913    -0.004962    Cartesian    0.23
     70 z         11.014756     11.032655     0.017899    Cartesian    0.16
     71 x         -4.405902     -4.408701    -0.002799    Cartesian    0.06
     71 y          6.608853      6.617752     0.008898    Cartesian    0.13
     71 z          6.608853      6.617752     0.008898    Cartesian    0.13
     72 x         -8.811805     -8.812117    -0.000313    Cartesian    0.00
     72 y         -2.202951     -2.203466    -0.000515    Cartesian    0.02
     72 z         -2.202951     -2.203466    -0.000515    Cartesian    0.02
     73 x         13.217707     13.193684    -0.024023    Cartesian   -0.18
     73 y          0.000000      0.000000     0.000000    Cartesian    0.00
     73 z          4.405902      4.396194    -0.009709    Cartesian   -0.22
     74 x         11.014756     11.028256     0.013501    Cartesian    0.12
     74 y          6.608853      6.620782     0.011928    Cartesian    0.18
     74 z          4.405902      4.407510     0.001608    Cartesian    0.04
     75 x          8.811805      8.806873    -0.004931    Cartesian   -0.06
     75 y          4.405902      4.397437    -0.008465    Cartesian   -0.19
     75 z          8.811805      8.794963    -0.016841    Cartesian   -0.19
     76 x          6.608853      6.609403     0.000550    Cartesian    0.01
     76 y         11.014756     11.033994     0.019238    Cartesian    0.17
     76 z          0.000000      0.000000     0.000000    Cartesian    0.00
     77 x          6.608853      6.614425     0.005572    Cartesian    0.08
     77 y          6.608853      6.621430     0.012577    Cartesian    0.19
     77 z          8.811805      8.818025     0.006221    Cartesian    0.07
     78 x          2.202951      2.202886    -0.000065    Cartesian   -0.00
     78 y         11.014756     11.032269     0.017514    Cartesian    0.16
     78 z          4.405902      4.408948     0.003045    Cartesian    0.07
     79 x         -2.202951     -2.205145    -0.002194    Cartesian    0.10
     79 y         11.014756     11.032495     0.017739    Cartesian    0.16
     79 z          0.000000      0.000000     0.000000    Cartesian    0.00
     80 x         -2.202951     -2.209062    -0.006111    Cartesian    0.28
     80 y          8.811805      8.818334     0.006529    Cartesian    0.07
     80 z          6.608853      6.621822     0.012968    Cartesian    0.20
     81 x         -4.405902     -4.401794     0.004108    Cartesian   -0.09
     81 y          4.405902      4.397591    -0.008311    Cartesian   -0.19
     81 z          8.811805      8.795378    -0.016427    Cartesian   -0.19
     82 x         -6.608853     -6.622990    -0.014137    Cartesian    0.21
     82 y          6.608853      6.620710     0.011857    Cartesian    0.18
     82 z          4.405902      4.407700     0.001797    Cartesian    0.04
     83 x         -8.811805     -8.788583     0.023222    Cartesian   -0.26
     83 y          0.000000      0.000000     0.000000    Cartesian    0.00
     83 z          4.405902      4.396749    -0.009153    Cartesian   -0.21
     84 x          2.252000      2.252000     0.000000    Cartesian    0.00
     84 y          0.000000      0.000000     0.000000    Cartesian    0.00
     84 z          0.000000      0.000000     0.000000    Cartesian    0.00
     85 x          2.202951      2.194605    -0.008346    Cartesian   -0.38
     85 y         -2.202951     -2.328844    -0.125893    Cartesian    5.71
     85 z         -2.202951     -2.328844    -0.125893    Cartesian    5.71
     86 x          4.405902      4.394850    -0.011052    Cartesian   -0.25
     86 y          0.000000      0.000000     0.000000    Cartesian    0.00
     86 z          4.405902      4.385337    -0.020565    Cartesian   -0.47
     87 x          0.000000     -0.000721    -0.000721    Cartesian    0.00
     87 y          0.000000      0.000000     0.000000    Cartesian    0.00
     87 z          4.405902      4.388971    -0.016931    Cartesian   -0.38
     88 x          6.608853      6.561185    -0.047669    Cartesian   -0.72
     88 y         -2.202951     -2.185173     0.017779    Cartesian   -0.81
     88 z         -2.202951     -2.185173     0.017779    Cartesian   -0.81
     89 x         -2.202951     -2.162570     0.040381    Cartesian   -1.83
     89 y         -2.202951     -2.186791     0.016160    Cartesian   -0.73
     89 z         -2.202951     -2.186791     0.016160    Cartesian   -0.73
     90 x          8.811805      8.732439    -0.079366    Cartesian   -0.90
     90 y          0.000000      0.000000     0.000000    Cartesian    0.00
     90 z          0.000000      0.000000     0.000000    Cartesian    0.00
     91 x          4.405902      4.432333     0.026431    Cartesian    0.60
     91 y          4.405902      4.423174     0.017271    Cartesian    0.39
     91 z          4.405902      4.423174     0.017271    Cartesian    0.39
     92 x          0.000000     -0.031895    -0.031895    Cartesian    0.00
     92 y          4.405902      4.425806     0.019903    Cartesian    0.45
     92 z          4.405902      4.425806     0.019903    Cartesian    0.45
     93 x         -4.405902     -4.328289     0.077613    Cartesian   -1.76
     93 y          0.000000      0.000000     0.000000    Cartesian    0.00
     93 z          0.000000      0.000000     0.000000    Cartesian    0.00
     94 x          2.202951      2.202030    -0.000921    Cartesian   -0.04
     94 y         -2.202951     -2.213822    -0.010870    Cartesian    0.49
     94 z          6.608853      6.648085     0.039232    Cartesian    0.59
     95 x          8.811805      8.765838    -0.045967    Cartesian   -0.52
     95 y          0.000000      0.000000     0.000000    Cartesian    0.00
     95 z          4.405902      4.366513    -0.039390    Cartesian   -0.89
     96 x         -4.405902     -4.362347     0.043556    Cartesian   -0.99
     96 y          0.000000      0.000000     0.000000    Cartesian    0.00
     96 z          4.405902      4.366302    -0.039600    Cartesian   -0.90
     97 x          6.608853      6.604826    -0.004028    Cartesian   -0.06
     97 y         -2.202951     -2.202849     0.000102    Cartesian   -0.00
     97 z          6.608853      6.612155     0.003302    Cartesian    0.05
     98 x         -2.202951     -2.201861     0.001090    Cartesian   -0.05
     98 y         -2.202951     -2.203364    -0.000413    Cartesian    0.02
     98 z          6.608853      6.612920     0.004067    Cartesian    0.06
     99 x          8.811805      8.779975    -0.031829    Cartesian   -0.36
     99 y          4.405902      4.374543    -0.031360    Cartesian   -0.71
     99 z          4.405902      4.374543    -0.031360    Cartesian   -0.71
    100 x          4.405902      4.405368    -0.000535    Cartesian   -0.01
    100 y          0.000000      0.000000     0.000000    Cartesian    0.00
    100 z          8.811805      8.802981    -0.008824    Cartesian   -0.10
    101 x          0.000000     -0.000954    -0.000954    Cartesian    0.00
    101 y          0.000000      0.000000     0.000000    Cartesian    0.00
    101 z          8.811805      8.803082    -0.008723    Cartesian   -0.10
    102 x         -4.405902     -4.376750     0.029152    Cartesian   -0.66
    102 y          4.405902      4.374337    -0.031565    Cartesian   -0.72
    102 z          4.405902      4.374337    -0.031565    Cartesian   -0.72
    103 x         11.014756     11.002388    -0.012368    Cartesian   -0.11
    103 y         -2.202951     -2.202375     0.000577    Cartesian   -0.03
    103 z         -2.202951     -2.202375     0.000577    Cartesian   -0.03
    104 x          2.202951      2.202531    -0.000420    Cartesian   -0.02
    104 y          6.608853      6.622496     0.013643    Cartesian    0.21
    104 z          6.608853      6.622496     0.013643    Cartesian    0.21
    105 x         -6.608853     -6.599686     0.009167    Cartesian   -0.14
    105 y         -2.202951     -2.202063     0.000888    Cartesian   -0.04
    105 z         -2.202951     -2.202063     0.000888    Cartesian   -0.04
    106 x          4.405902      4.403992    -0.001911    Cartesian   -0.04
    106 y          4.405902      4.405260    -0.000642    Cartesian   -0.01
    106 z          8.811805      8.805620    -0.006185    Cartesian   -0.07
    107 x          0.000000      0.001042     0.001042    Cartesian    0.00
    107 y          4.405902      4.405306    -0.000596    Cartesian   -0.01
    107 z          8.811805      8.805825    -0.005980    Cartesian   -0.07
    108 x          6.608853      6.612567     0.003714    Cartesian    0.06
    108 y          6.608853      6.614856     0.006002    Cartesian    0.09
    108 z          6.608853      6.614856     0.006002    Cartesian    0.09
    109 x         -2.202951     -2.207470    -0.004519    Cartesian    0.21
    109 y          6.608853      6.615504     0.006650    Cartesian    0.10
    109 z          6.608853      6.615504     0.006650    Cartesian    0.10
    110 x         13.217707     13.192813    -0.024894    Cartesian   -0.19
    110 y          0.000000      0.000000     0.000000    Cartesian    0.00
    110 z          0.000000      0.000000     0.000000    Cartesian    0.00
    111 x          8.811805      8.806119    -0.005686    Cartesian   -0.06
    111 y          0.000000      0.000000     0.000000    Cartesian    0.00
    111 z          8.811805      8.796670    -0.015135    Cartesian   -0.17
    112 x         -4.405902     -4.401549     0.004353    Cartesian   -0.10
    112 y          0.000000      0.000000     0.000000    Cartesian    0.00
    112 z          8.811805      8.796878    -0.014927    Cartesian   -0.17
    113 x         -8.811805     -8.786992     0.024812    Cartesian   -0.28
    113 y          0.000000      0.000000     0.000000    Cartesian    0.00
    113 z          0.000000      0.000000     0.000000    Cartesian    0.00
    114 x         11.014756     11.010875    -0.003881    Cartesian   -0.04
    114 y         -2.202951     -2.202130     0.000821    Cartesian   -0.04
    114 z          6.608853      6.604087    -0.004766    Cartesian   -0.07
    115 x          2.202951      2.202418    -0.000534    Cartesian   -0.02
    115 y         -2.202951     -2.201849     0.001102    Cartesian   -0.05
    115 z         11.014756     11.023802     0.009046    Cartesian    0.08
    116 x         -6.608853     -6.605414     0.003439    Cartesian   -0.05
    116 y          6.608853      6.604714    -0.004140    Cartesian   -0.06
    116 z         -2.202951     -2.202230     0.000722    Cartesian   -0.03
    117 x         13.217707     13.191028    -0.026679    Cartesian   -0.20
    117 y          0.000000      0.000000     0.000000    Cartesian    0.00
    117 z          4.405902      4.395086    -0.010816    Cartesian   -0.25
    118 x          8.811805      8.806056    -0.005748    Cartesian   -0.07
    118 y          4.405902      4.396007    -0.009896    Cartesian   -0.22
    118 z          8.811805      8.792764    -0.019041    Cartesian   -0.22
    119 x         -4.405902     -4.401109     0.004794    Cartesian   -0.11
    119 y          4.405902      4.396091    -0.009811    Cartesian   -0.22
    119 z          8.811805      8.793085    -0.018719    Cartesian   -0.21
    120 x         -8.811805     -8.785935     0.025869    Cartesian   -0.29
    120 y          0.000000      0.000000     0.000000    Cartesian    0.00
    120 z          4.405902      4.395560    -0.010342    Cartesian   -0.23
--------------------------------------------------------------------------------


  Time to end of optimisation  =       10.3957 seconds


  Peak dynamic memory used =      76.10 MB 


  Timing analysis for GULP :

--------------------------------------------------------------------------------
  Task / Subroutine                                          Time (Seconds)
--------------------------------------------------------------------------------
  Calculation of reciprocal space energy and derivatives          0.0008
  Calculation of reciprocal space energy using symmetry           0.0015
  Calculation of real space energy and derivatives                0.0045
  Calculation of real space energy using symmetry                 0.0141
  Calculation for region 1 energy and derivatives (2-b)           6.2957
  Calculation for region 2a energy                                3.4027
  Calculation for region 2b energy                                0.0036
  Calculation and manipulation of Hessian matrix                  0.5177
  Calculation of matrix inversion                                 0.0376
  Symmetry generation of equivalent positions                     0.0053
--------------------------------------------------------------------------------
  Total CPU time                                                 10.3958
--------------------------------------------------------------------------------


  Dump file written as Na3OCl.grs


  Job Finished at 16:17.00  8th January    2021                               

