********************************************************************************
*                       GENERAL UTILITY LATTICE PROGRAM                        *
*                                 Julian Gale                                  *
*                       Curtin Institute for Computation                       *
*                    School of Molecular and Life Sciences                     *
*                    Curtin University, Western Australia                      *
********************************************************************************
* Version = 5.2.0 * Last modified =  10th September 2020                       *
********************************************************************************
*  optimise     - perform optimisation run                                     *
*  conp         - constant pressure calculation                                *
*  property     - calculate properties for final geometry                      *
*  defect       - perform defect calculation after bulk run                    *
*  compare      - compare initial and final structures                         *
********************************************************************************

  Job Started  at 16:17.04  8th January    2021                               

  Number of CPUs =     1


  Total number of configurations input =      1

********************************************************************************
*  Input for Configuration =   1                                               *
********************************************************************************

  Formula = ClONa3                                                      

  Number of irreducible atoms/shells =       5


  Total number atoms/shells =       7

  Dimensionality = 3               :  Bulk   


  Symmetry :

  Crystal family                   :  Cubic       
  Crystal class  (Groth - 1921)    :  Cubic Hexakisoctahedral              

  Space group (centrosymmetric)    :  P M 3 M         

  Patterson group                  :  P m -3 m 

  Cartesian lattice vectors (Angstroms) :

        4.504000    0.000000    0.000000
        0.000000    4.504000    0.000000
        0.000000    0.000000    4.504000

  Cell parameters (Angstroms/Degrees):

  a =       4.5040    alpha =  90.0000
  b =       4.5040    beta  =  90.0000
  c =       4.5040    gamma =  90.0000

  Initial cell volume =          91.368216 Angs**3

  Temperature of configuration =   0.00     K 

  Pressure of configuration =         0.000 GPa 

  Fractional coordinates of asymmetric unit :

--------------------------------------------------------------------------------
   No.  Atomic       x           y          z         Charge      Occupancy
        Label      (Frac)      (Frac)     (Frac)        (e)         (Frac)  
--------------------------------------------------------------------------------
      1 Cl    c    0.000000    0.000000    0.000000     1.48500    1.000000    
      2 O     c    0.500000    0.500000    0.500000     0.18300    1.000000    
      3 Na    c    0.500000    0.500000    0.000000     1.00000    1.000000    
      4 Cl    s    0.000000    0.000000    0.000000    -2.48500    1.000000    
      5 O     s    0.500000    0.500000    0.500000    -2.18300    1.000000    
--------------------------------------------------------------------------------


  Constraints : 

--------------------------------------------------------------------------------
  Constraint no.      Unconstrained     Constrained    Coefficient    Offset
                         Variable         Variable
--------------------------------------------------------------------------------
           1              Strain 1        Strain 2       1.00000      0.0000
           2              Strain 1        Strain 3       1.00000      0.0000
--------------------------------------------------------------------------------


********************************************************************************
*  General input information                                                   *
********************************************************************************

  Species output for all configurations : 

--------------------------------------------------------------------------------
  Species    Type    Atomic    Atomic    Charge       Radii (Angs)     Library
                     Number     Mass       (e)     Cova   Ionic  VDW   Symbol
--------------------------------------------------------------------------------
    Na       Core       11      22.99   1.000000   0.970  0.000  2.300          
    O        Core        8      16.00   0.183000   0.730  0.000  1.360          
    O        Shell       8       0.00  -2.183000   0.730  0.000  1.360          
    Cl       Core       17      35.45   1.485000   0.990  0.000  1.650          
    Cl       Shell      17       0.00  -2.485000   0.990  0.000  1.650          
    Mg       Core       12      24.31   0.415000   1.100  0.000  0.000          
    Mg       Shell      12       0.00   1.585000   1.100  0.000  0.000          
    Ca       Core       20      40.08  -1.135000   0.990  0.000  0.000          
    Ca       Shell      20       0.00   3.135000   0.990  0.000  0.000          
    Sr       Core       38      87.62  -1.251000   1.120  0.000  0.000          
    Sr       Shell      38       0.00   3.251000   1.120  0.000  0.000          
    Ba       Core       56     137.33  -7.203000   1.340  0.000  0.000          
    Ba       Shell      56       0.00   9.203000   1.340  0.000  0.000          
--------------------------------------------------------------------------------


  Lattice summation method               =    Ewald          (3-D)
                                         =    Parry          (2-D)
                                         =    Saunders et al (1-D)
  Accuracy factor for lattice sums       =   12.000


  Analytic derivatives to be used

  Time limit = Infinity

  Maximum range for interatomic potentials =    100000.000000 Angstroms

  General interatomic potentials :

--------------------------------------------------------------------------------
Atom  Types   Potential      Parameter       Value         Units   Cutoffs(Ang)
  1     2                                                            Min /  Max 
--------------------------------------------------------------------------------
O    c O    s Spring (c-s)  Spring k 2       593.71600    eV*Ang^-2 0.000  0.800
                            Spring k 4       0.0000000    eV*Ang^-4 
--------------------------------------------------------------------------------
Cl   c Cl   s Spring (c-s)  Spring k 2       29.380000    eV*Ang^-2 0.000  0.800
                            Spring k 4       0.0000000    eV*Ang^-4 
--------------------------------------------------------------------------------
Mg   c Mg   s Spring (c-s)  Spring k 2       361.60000    eV*Ang^-2 0.000  0.800
                            Spring k 4       0.0000000    eV*Ang^-4 
--------------------------------------------------------------------------------
Ca   c Ca   s Spring (c-s)  Spring k 2       110.20000    eV*Ang^-2 0.000  0.800
                            Spring k 4       0.0000000    eV*Ang^-4 
--------------------------------------------------------------------------------
Sr   c Sr   s Spring (c-s)  Spring k 2       71.700000    eV*Ang^-2 0.000  0.800
                            Spring k 4       0.0000000    eV*Ang^-4 
--------------------------------------------------------------------------------
Ba   c Ba   s Spring (c-s)  Spring k 2       495.20000    eV*Ang^-2 0.000  0.800
                            Spring k 4       0.0000000    eV*Ang^-4 
--------------------------------------------------------------------------------
Na   c Na   c Buckingham    Buckingham A     1788.1900    eV        0.000 12.000
                            Buckingham rho  0.15900000    Ang       
                            Buckingham C     0.0000000    eV*Ang^6  
--------------------------------------------------------------------------------
Na   c O    s Buckingham    Buckingham A     588.38000    eV        0.000 12.000
                            Buckingham rho  0.33800000    Ang       
                            Buckingham C     0.0000000    eV*Ang^6  
--------------------------------------------------------------------------------
Na   c Cl   s Buckingham    Buckingham A     1170.4100    eV        0.000 12.000
                            Buckingham rho  0.31500000    Ang       
                            Buckingham C     0.0000000    eV*Ang^6  
--------------------------------------------------------------------------------
O    s O    s Buckingham    Buckingham A     22764.300    eV        0.000 12.000
                            Buckingham rho  0.14900000    Ang       
                            Buckingham C     13.190000    eV*Ang^6  
--------------------------------------------------------------------------------
O    s Cl   s Buckingham    Buckingham A     8286.9100    eV        0.000 12.000
                            Buckingham rho  0.25900000    Ang       
                            Buckingham C     62.200000    eV*Ang^6  
--------------------------------------------------------------------------------
Cl   s Cl   s Buckingham    Buckingham A     1227.2000    eV        0.000 12.000
                            Buckingham rho  0.32100000    Ang       
                            Buckingham C     14.530000    eV*Ang^6  
--------------------------------------------------------------------------------
O    s Mg   s Buckingham    Buckingham A     1428.5000    eV        0.000 12.000
                            Buckingham rho  0.29450000    Ang       
                            Buckingham C     0.0000000    eV*Ang^6  
--------------------------------------------------------------------------------
Mg   s Cl   s Buckingham    Buckingham A     4914.5400    eV        0.000 12.000
                            Buckingham rho  0.25700000    Ang       
                            Buckingham C     0.0000000    eV*Ang^6  
--------------------------------------------------------------------------------
O    s Ca   s Buckingham    Buckingham A     1090.4000    eV        0.000 12.000
                            Buckingham rho  0.34370000    Ang       
                            Buckingham C     0.0000000    eV*Ang^6  
--------------------------------------------------------------------------------
Cl   s Ca   s Buckingham    Buckingham A     2302.0000    eV        0.000 12.000
                            Buckingham rho  0.34020000    Ang       
                            Buckingham C     0.0000000    eV*Ang^6  
--------------------------------------------------------------------------------
O    s Sr   s Buckingham    Buckingham A     959.10000    eV        0.000 12.000
                            Buckingham rho  0.37210000    Ang       
                            Buckingham C     0.0000000    eV*Ang^6  
--------------------------------------------------------------------------------
Cl   s Sr   s Buckingham    Buckingham A     2191.0900    eV        0.000 12.000
                            Buckingham rho  0.34570000    Ang       
                            Buckingham C     0.0000000    eV*Ang^6  
--------------------------------------------------------------------------------
O    s Ba   s Buckingham    Buckingham A     905.70000    eV        0.000 12.000
                            Buckingham rho  0.39760000    Ang       
                            Buckingham C     0.0000000    eV*Ang^6  
--------------------------------------------------------------------------------
Cl   s Ba   s Buckingham    Buckingham A     2704.5500    eV        0.000 12.000
                            Buckingham rho  0.35280000    Ang       
                            Buckingham C     0.0000000    eV*Ang^6  
--------------------------------------------------------------------------------

********************************************************************************
*  Output for configuration   1                                                *
********************************************************************************


  Components of energy : 

--------------------------------------------------------------------------------
  Interatomic potentials     =           4.94315381 eV    
  Monopole - monopole (real) =         -10.03624526 eV    
  Monopole - monopole (recip)=         -29.53581274 eV    
  Monopole - monopole (total)=         -39.57205800 eV    
--------------------------------------------------------------------------------
  Total lattice energy       =         -34.62890419 eV    
--------------------------------------------------------------------------------
  Total lattice energy       =           -3341.1599 kJ/(mole unit cells)
--------------------------------------------------------------------------------


  Number of variables =        1

  Maximum number of calculations  =          1000
  Maximum Hessian update interval =            10
  Maximum step size               =   1.000000000
  Maximum parameter tolerance     =   0.000010000
  Maximum function  tolerance     =   0.000010000
  Maximum gradient  tolerance     =   0.001000000
  Maximum gradient  component     =   0.010000000

  Symmetry constrained optimisation

  Symmetry used for second derivatives

  Cell parameters to be optimised using strains

  Newton-Raphson optimiser to be used

  BFGS hessian update to be used

  Lower half triangular hessian to be used

  Start of bulk optimisation :

  Cycle:      0 Energy:       -34.628904  Gnorm:      4.328237  CPU:    0.016
  ** Hessian calculated **
  Cycle:      1 Energy:       -34.677667  Gnorm:      0.044008  CPU:    0.021
  Cycle:      2 Energy:       -34.677671  Gnorm:      0.003653  CPU:    0.024


  **** Optimisation achieved ****


  Final energy =     -34.67767136 eV
  Final Gnorm  =       0.00000010

  Components of energy : 

--------------------------------------------------------------------------------
  Interatomic potentials     =           5.77546103 eV    
  Monopole - monopole (real) =         -10.25970290 eV    
  Monopole - monopole (recip)=         -30.19342950 eV    
  Monopole - monopole (total)=         -40.45313239 eV    
--------------------------------------------------------------------------------
  Total lattice energy       =         -34.67767136 eV    
--------------------------------------------------------------------------------
  Total lattice energy       =           -3345.8652 kJ/(mole unit cells)
--------------------------------------------------------------------------------

  Final asymmetric unit coordinates :

--------------------------------------------------------------------------------
   No.  Atomic        x           y           z         Radius
        Label       (Frac)      (Frac)      (Frac)       (Angs) 
--------------------------------------------------------------------------------
     1  Cl    c     0.000000    0.000000    0.000000    0.000000
     2  O     c     0.500000    0.500000    0.500000    0.000000
     3  Na    c     0.500000    0.500000    0.000000    0.000000
     4  Cl    s     0.000000    0.000000    0.000000    0.000000
     5  O     s     0.500000    0.500000    0.500000    0.000000
--------------------------------------------------------------------------------

  Final Cartesian lattice vectors (Angstroms) :

        4.405902    0.000000    0.000000
        0.000000    4.405902    0.000000
        0.000000    0.000000    4.405902


  Final cell parameters and derivatives :

--------------------------------------------------------------------------------
       a            4.405902 Angstrom     dE/de1(xx)     0.000000 eV/strain
       b            4.405902 Angstrom     dE/de2(yy)     0.000000 eV/strain
       c            4.405902 Angstrom     dE/de3(zz)     0.000000 eV/strain
       alpha       90.000000 Degrees      dE/de4(yz)     0.000000 eV/strain
       beta        90.000000 Degrees      dE/de5(xz)     0.000000 eV/strain
       gamma       90.000000 Degrees      dE/de6(xy)     0.000000 eV/strain
--------------------------------------------------------------------------------

  Primitive cell volume =            85.527266 Angs**3

  Density of cell =      2.338030 g/cm**3

  Non-primitive cell volume =            85.527266 Angs**3


  Final internal derivatives :

--------------------------------------------------------------------------------
   No.  Atomic          a             b             c           Radius
        Label          (eV)          (eV)          (eV)        (eV/Angs)
--------------------------------------------------------------------------------
      1 Cl    c       0.000000      0.000000      0.000000      0.000000
      2 O     c       0.000000      0.000000      0.000000      0.000000
      3 Na    c       0.000000      0.000000      0.000000      0.000000
      4 Cl    s       0.000000      0.000000      0.000000      0.000000
      5 O     s       0.000000      0.000000      0.000000      0.000000
--------------------------------------------------------------------------------
  Maximum abs         0.000000      0.000000      0.000000      0.000000
--------------------------------------------------------------------------------

  Comparison of initial and final structures : 

--------------------------------------------------------------------------------
  Parameter   Initial value   Final value   Difference    Units      Percent
--------------------------------------------------------------------------------
    Volume        91.368216     85.527266    -5.840950    Angs**3     -6.39
    a              4.504000      4.405902    -0.098098    Angstroms   -2.18
    b              4.504000      4.405902    -0.098098    Angstroms   -2.18
    c              4.504000      4.405902    -0.098098    Angstroms   -2.18
    alpha         90.000000     90.000000     0.000000    Degrees      0.00
    beta          90.000000     90.000000     0.000000    Degrees      0.00
    gamma         90.000000     90.000000     0.000000    Degrees      0.00
      1 x          0.000000      0.000000     0.000000    Fractional   0.00
      1 y          0.000000      0.000000     0.000000    Fractional   0.00
      1 z          0.000000      0.000000     0.000000    Fractional   0.00
      2 x          0.500000      0.500000     0.000000    Fractional   0.00
      2 y          0.500000      0.500000     0.000000    Fractional   0.00
      2 z          0.500000      0.500000     0.000000    Fractional   0.00
      3 x          0.500000      0.500000     0.000000    Fractional   0.00
      3 y          0.500000      0.500000     0.000000    Fractional   0.00
      3 z          0.000000      0.000000     0.000000    Fractional   0.00
      4 x          0.000000      0.000000     0.000000    Fractional   0.00
      4 y          0.000000      0.000000     0.000000    Fractional   0.00
      4 z          0.000000      0.000000     0.000000    Fractional   0.00
      5 x          0.500000      0.500000     0.000000    Fractional   0.00
      5 y          0.500000      0.500000     0.000000    Fractional   0.00
      5 z          0.500000      0.500000     0.000000    Fractional   0.00
--------------------------------------------------------------------------------


  Born effective charge tensors : 

-------------------------------------------------------------------------------
  Atom             x           y             z
-------------------------------------------------------------------------------
    1 Cl    x      -0.9918     -0.0000     -0.0000
            y      -0.0000     -0.9918     -0.0000
            z      -0.0000     -0.0000     -0.9918
-------------------------------------------------------------------------------
    2 O     x      -2.2939      0.0000      0.0000
            y       0.0000     -2.2939      0.0000
            z       0.0000      0.0000     -2.2939
-------------------------------------------------------------------------------
    3 Na    x       1.2243      0.0000      0.0000
            y       0.0000      1.2243     -0.0000
            z       0.0000      0.0000      0.8372
-------------------------------------------------------------------------------




  Elastic Constant Matrix: (Units=GPa)

-------------------------------------------------------------------------------
  Indices      1         2         3         4         5         6    
-------------------------------------------------------------------------------
       1     82.7680   24.3534   24.3534   -0.0000    0.0000   -0.0000
       2     24.3534   82.7680   24.3534    0.0000   -0.0000   -0.0000
       3     24.3534   24.3534   82.7680    0.0000   -0.0000    0.0000
       4     -0.0000    0.0000    0.0000   24.3534   -0.0000    0.0000
       5      0.0000   -0.0000   -0.0000   -0.0000   24.3534    0.0000
       6     -0.0000   -0.0000    0.0000    0.0000    0.0000   24.3534
-------------------------------------------------------------------------------


  Elastic Compliance Matrix: (Units=1/GPa)

-------------------------------------------------------------------------------
  Indices      1         2         3         4         5         6    
-------------------------------------------------------------------------------
       1    0.013948 -0.003171 -0.003171  0.000000 -0.000000  0.000000
       2   -0.003171  0.013948 -0.003171 -0.000000  0.000000 -0.000000
       3   -0.003171 -0.003171  0.013948 -0.000000  0.000000 -0.000000
       4    0.000000 -0.000000 -0.000000  0.041062  0.000000 -0.000000
       5   -0.000000  0.000000  0.000000  0.000000  0.041062 -0.000000
       6    0.000000 -0.000000 -0.000000 -0.000000 -0.000000  0.041062
-------------------------------------------------------------------------------

  Mechanical properties :

-------------------------------------------------------------------------------
  Convention :                    Reuss         Voigt         Hill
-------------------------------------------------------------------------------
  Bulk  Modulus (GPa)     =      43.82493      43.82493      43.82493
  Shear Modulus (GPa)     =      26.08758      26.29496      26.19127
-------------------------------------------------------------------------------
  Velocity S-wave (km/s)  =       3.34035       3.35360       3.34698
  Velocity P-wave (km/s)  =       5.79842       5.80861       5.80351
-------------------------------------------------------------------------------
  Compressibility (1/GPa) =    0.02281806
-------------------------------------------------------------------------------
  Stress axis :                     x             y             z
-------------------------------------------------------------------------------
  Youngs Moduli (GPa)     =      71.69479      71.69479      71.69479
-------------------------------------------------------------------------------
  Poissons Ratio (x)      =                     0.22734       0.22734
  Poissons Ratio (y)      =       0.22734                     0.22734
  Poissons Ratio (z)      =       0.22734       0.22734
-------------------------------------------------------------------------------


  Piezoelectric Strain Matrix: (Units=C/m**2)

-------------------------------------------------------------------------------
  Indices      1         2         3         4         5         6    
-------------------------------------------------------------------------------
       x    -0.00000  -0.00000  -0.00000  -0.00000   0.00000  -0.00000
       y     0.00000  -0.00000   0.00000   0.00000  -0.00000   0.00000
       z    -0.00000  -0.00000   0.00000  -0.00000   0.00000  -0.00000
-------------------------------------------------------------------------------


  Piezoelectric Stress Matrix: (Units=10**-11 C/N)

-------------------------------------------------------------------------------
  Indices      1         2         3         4         5         6    
-------------------------------------------------------------------------------
       x     0.00000  -0.00000  -0.00000  -0.00000   0.00000  -0.00000
       y     0.00000  -0.00000   0.00000   0.00000  -0.00000   0.00000
       z    -0.00000  -0.00000   0.00000  -0.00000   0.00000  -0.00000
-------------------------------------------------------------------------------


  Static dielectric constant tensor : 

-------------------------------------------------------------------------------
              x         y         z
-------------------------------------------------------------------------------
       x    11.08357   0.00000   0.00000
       y     0.00000  11.08357   0.00000
       z     0.00000   0.00000  11.08357
--------------------------------------------------------------------------------

  High frequency dielectric constant tensor : 

-------------------------------------------------------------------------------
              x         y         z
-------------------------------------------------------------------------------
       x     1.50771   0.00000   0.00000
       y     0.00000   1.50771   0.00000
       z     0.00000   0.00000   1.50771
-------------------------------------------------------------------------------

  Static refractive indices : 

-------------------------------------------------------------------------------
    1 =    3.32920      2 =    3.32920      3 =    3.32920
-------------------------------------------------------------------------------

  High frequency refractive indices : 

-------------------------------------------------------------------------------
    1 =    1.22789      2 =    1.22789      3 =    1.22789
-------------------------------------------------------------------------------


  Time to end of optimisation =       0.0346 seconds

********************************************************************************
*  Defect calculation for configuration   1 :                                  *
********************************************************************************

  Total number of defects =      3

  Total charge on defect  =   1.00

  Defect centre is at   2.2520   0.0000   0.0000  Angs

  Region 1 radius =  12.0000      Number of ions =    622

  Number of symmetry inequivalent region 1 ions  =    120

  Region 2 radius =  16.0000      Number of ions =    760

  Number of symmetry inequivalent region 2a ions =    123

  Region 2a mode = 4 : screened electrostatics due to region 1 
                       neglect correction to region 1 forces from 2a
                       region 2a displacements based on defects only

  Region 2a ions will only interact with defects in region 1

  Vacancies:

--------------------------------------------------------------------------------
    Specification type     Symbol/Number         x          y          z
--------------------------------------------------------------------------------
    Cartesian                                4.504000   0.000000   0.000000
    Cartesian                                0.000000   0.000000   0.000000
--------------------------------------------------------------------------------

  Interstitials:

--------------------------------------------------------------------------------
    Specification type     Symbol/Number         x          y          z
--------------------------------------------------------------------------------
    Atom/Cartesian          Cl               2.972640   0.000000   0.000000
--------------------------------------------------------------------------------


  Symmetry reduced region 1 (Relative to defect centre) :

--------------------------------------------------------------------------------
   No.   Atomic       x            y             z       Radius  Multiplicity   
         Label      (Angs)       (Angs)        (Angs)    (Angs)     
--------------------------------------------------------------------------------
     1  Cl    c      0.7206       0.0000       0.0000    0.0000     1    Defect
     2  Na    c     -0.0490 *    -2.2030 *     0.0000    0.0000     4          
     3  O     c     -0.0490 *    -2.2030 *    -2.2030    0.0000     4          
     4  Na    c      2.1539 *    -2.2030 *    -2.2030    0.0000     4          
     5  Na    c     -2.2520 *    -2.2030 *    -2.2030    0.0000     4          
     6  Na    c      4.3569 *    -2.2030 *     0.0000    0.0000     4          
     7  Cl    c      2.1539 *     0.0000       4.4059 *  0.0000     4          
     8  Na    c     -0.0490 *    -2.2030 *     4.4059 *  0.0000     8          
     9  Cl    c     -2.2520 *     0.0000       4.4059 *  0.0000     4          
    10  Na    c     -4.4550 *    -2.2030 *     0.0000    0.0000     4          
    11  O     c      4.3569 *    -2.2030 *    -2.2030    0.0000     4          
    12  O     c     -4.4550 *    -2.2030 *    -2.2030    0.0000     4          
    13  Cl    c      6.5598 *     0.0000       0.0000    0.0000     1          
    14  Na    c      4.3569 *     4.4059 *    -2.2030 *  0.0000     8          
    15  Cl    c      2.1539 *     4.4059 *     4.4059    0.0000     4          
    16  Na    c     -0.0490 *     6.6089 *     0.0000    0.0000     4          
    17  Cl    c     -2.2520 *     4.4059 *     4.4059    0.0000     4          
    18  Na    c     -4.4550 *    -2.2030 *     4.4059 *  0.0000     8          
    19  Cl    c     -6.6579 *     0.0000       0.0000    0.0000     1          
    20  O     c     -0.0490 *    -2.2030 *     6.6089 *  0.0000     8          
    21  Na    c      6.5598 *    -2.2030 *    -2.2030    0.0000     4          
    22  Na    c      2.1539 *    -2.2030 *     6.6089 *  0.0000     8          
    23  Na    c     -2.2520 *     6.6089 *    -2.2030 *  0.0000     8          
    24  Na    c     -6.6579 *    -2.2030 *    -2.2030    0.0000     4          
    25  Cl    c      6.5598 *     0.0000       4.4059 *  0.0000     4          
    26  Na    c      4.3569 *     6.6089 *     0.0000    0.0000     4          
    27  Na    c     -0.0490 *     6.6089 *     4.4059 *  0.0000     8          
    28  Na    c     -4.4550 *     6.6089 *     0.0000    0.0000     4          
    29  Cl    c     -6.6579 *     0.0000       4.4059 *  0.0000     4          
    30  O     c      4.3569 *    -2.2030 *     6.6089 *  0.0000     8          
    31  O     c     -4.4550 *    -2.2030 *     6.6089 *  0.0000     8          
    32  Na    c      8.7628 *    -2.2030 *     0.0000    0.0000     4          
    33  Cl    c      6.5598 *     4.4059 *     4.4059    0.0000     4          
    34  Na    c      4.3569 *     6.6089 *     4.4059 *  0.0000     8          
    35  Cl    c      2.1539 *     0.0000       8.8118 *  0.0000     4          
    36  Na    c     -0.0490 *    -2.2030 *     8.8118 *  0.0000     8          
    37  Cl    c     -2.2520 *     0.0000       8.8118 *  0.0000     4          
    38  Na    c     -4.4550 *     6.6089 *     4.4059 *  0.0000     8          
    39  Cl    c     -6.6579 *     4.4059 *     4.4059    0.0000     4          
    40  Na    c     -8.8609 *    -2.2030 *     0.0000    0.0000     4          
    41  O     c      8.7628 *    -2.2030 *    -2.2030    0.0000     4          
    42  O     c     -0.0490 *     6.6089 *     6.6089    0.0000     4          
    43  O     c     -8.8609 *    -2.2030 *    -2.2030    0.0000     4          
    44  Na    c      6.5598 *    -2.2030 *     6.6089 *  0.0000     8          
    45  Na    c      2.1539 *     6.6089 *     6.6089    0.0000     4          
    46  Na    c     -2.2520 *     6.6089 *     6.6089    0.0000     4          
    47  Na    c     -6.6579 *    -2.2030 *     6.6089 *  0.0000     8          
    48  Na    c      8.7628 *     4.4059 *    -2.2030 *  0.0000     8          
    49  Na    c      4.3569 *    -2.2030 *     8.8118 *  0.0000     8          
    50  Cl    c      2.1539 *     4.4059 *     8.8118 *  0.0000     8          
    51  Cl    c     -2.2520 *     4.4059 *     8.8118 *  0.0000     8          
    52  Na    c     -4.4550 *    -2.2030 *     8.8118 *  0.0000     8          
    53  Na    c     -8.8609 *    -2.2030 *     4.4059 *  0.0000     8          
    54  O     c      4.3569 *     6.6089 *     6.6089    0.0000     4          
    55  O     c     -4.4550 *     6.6089 *     6.6089    0.0000     4          
    56  Cl    c     10.9657 *     0.0000       0.0000    0.0000     1          
    57  Na    c      8.7628 *     6.6089 *     0.0000    0.0000     4          
    58  Cl    c      6.5598 *     0.0000       8.8118 *  0.0000     4          
    59  Na    c     -0.0490 *     6.6089 *     8.8118 *  0.0000     8          
    60  Na    c     -0.0490 *    11.0148 *     0.0000    0.0000     4          
    61  Cl    c     -6.6579 *     0.0000       8.8118 *  0.0000     4          
    62  Na    c     -8.8609 *     6.6089 *     0.0000    0.0000     4          
    63  Cl    c    -11.0638 *     0.0000       0.0000    0.0000     1          
    64  O     c      8.7628 *    -2.2030 *     6.6089 *  0.0000     8          
    65  O     c     -0.0490 *    -2.2030 *    11.0148 *  0.0000     8          
    66  O     c     -8.8609 *     6.6089 *    -2.2030 *  0.0000     8          
    67  Na    c     10.9657 *    -2.2030 *    -2.2030    0.0000     4          
    68  Na    c      6.5598 *     6.6089 *     6.6089    0.0000     4          
    69  Na    c      2.1539 *    -2.2030 *    11.0148 *  0.0000     8          
    70  Na    c     -2.2520 *    -2.2030 *    11.0148 *  0.0000     8          
    71  Na    c     -6.6579 *     6.6089 *     6.6089    0.0000     4          
    72  Na    c    -11.0638 *    -2.2030 *    -2.2030    0.0000     4          
    73  Cl    c     10.9657 *     0.0000       4.4059 *  0.0000     4          
    74  Na    c      8.7628 *     6.6089 *     4.4059 *  0.0000     8          
    75  Cl    c      6.5598 *     4.4059 *     8.8118 *  0.0000     8          
    76  Na    c      4.3569 *    11.0148 *     0.0000    0.0000     4          
    77  Na    c      4.3569 *     6.6089 *     8.8118 *  0.0000     8          
    78  Na    c     -0.0490 *    11.0148 *     4.4059 *  0.0000     8          
    79  Na    c     -4.4550 *    11.0148 *     0.0000    0.0000     4          
    80  Na    c     -4.4550 *     8.8118 *     6.6089 *  0.0000     8          
    81  Cl    c     -6.6579 *     4.4059 *     8.8118 *  0.0000     8          
    82  Na    c     -8.8609 *     6.6089 *     4.4059 *  0.0000     8          
    83  Cl    c    -11.0638 *     0.0000       4.4059 *  0.0000     4          
    84  Cl    s      0.7206       0.0000       0.0000    0.0000     1    Defect
    85  O     s     -0.0490 *    -2.2030 *    -2.2030    0.0000     4          
    86  Cl    s      2.1539 *     0.0000       4.4059 *  0.0000     4          
    87  Cl    s     -2.2520 *     0.0000       4.4059 *  0.0000     4          
    88  O     s      4.3569 *    -2.2030 *    -2.2030    0.0000     4          
    89  O     s     -4.4550 *    -2.2030 *    -2.2030    0.0000     4          
    90  Cl    s      6.5598 *     0.0000       0.0000    0.0000     1          
    91  Cl    s      2.1539 *     4.4059 *     4.4059    0.0000     4          
    92  Cl    s     -2.2520 *     4.4059 *     4.4059    0.0000     4          
    93  Cl    s     -6.6579 *     0.0000       0.0000    0.0000     1          
    94  O     s     -0.0490 *    -2.2030 *     6.6089 *  0.0000     8          
    95  Cl    s      6.5598 *     0.0000       4.4059 *  0.0000     4          
    96  Cl    s     -6.6579 *     0.0000       4.4059 *  0.0000     4          
    97  O     s      4.3569 *    -2.2030 *     6.6089 *  0.0000     8          
    98  O     s     -4.4550 *    -2.2030 *     6.6089 *  0.0000     8          
    99  Cl    s      6.5598 *     4.4059 *     4.4059    0.0000     4          
   100  Cl    s      2.1539 *     0.0000       8.8118 *  0.0000     4          
   101  Cl    s     -2.2520 *     0.0000       8.8118 *  0.0000     4          
   102  Cl    s     -6.6579 *     4.4059 *     4.4059    0.0000     4          
   103  O     s      8.7628 *    -2.2030 *    -2.2030    0.0000     4          
   104  O     s     -0.0490 *     6.6089 *     6.6089    0.0000     4          
   105  O     s     -8.8609 *    -2.2030 *    -2.2030    0.0000     4          
   106  Cl    s      2.1539 *     4.4059 *     8.8118 *  0.0000     8          
   107  Cl    s     -2.2520 *     4.4059 *     8.8118 *  0.0000     8          
   108  O     s      4.3569 *     6.6089 *     6.6089    0.0000     4          
   109  O     s     -4.4550 *     6.6089 *     6.6089    0.0000     4          
   110  Cl    s     10.9657 *     0.0000       0.0000    0.0000     1          
   111  Cl    s      6.5598 *     0.0000       8.8118 *  0.0000     4          
   112  Cl    s     -6.6579 *     0.0000       8.8118 *  0.0000     4          
   113  Cl    s    -11.0638 *     0.0000       0.0000    0.0000     1          
   114  O     s      8.7628 *    -2.2030 *     6.6089 *  0.0000     8          
   115  O     s     -0.0490 *    -2.2030 *    11.0148 *  0.0000     8          
   116  O     s     -8.8609 *     6.6089 *    -2.2030 *  0.0000     8          
   117  Cl    s     10.9657 *     0.0000       4.4059 *  0.0000     4          
   118  Cl    s      6.5598 *     4.4059 *     8.8118 *  0.0000     8          
   119  Cl    s     -6.6579 *     4.4059 *     8.8118 *  0.0000     8          
   120  Cl    s    -11.0638 *     0.0000       4.4059 *  0.0000     4          
--------------------------------------------------------------------------------


  Constraints on symmetry reduced coordinates :

--------------------------------------------------------------------------------
  Constraint no.      Unconstrained     Constrained    Coefficient    
                         Variable         Variable
--------------------------------------------------------------------------------
           1                 3 y             3 z         1.00000
           2                 4 y             4 z         1.00000
           3                 5 y             5 z         1.00000
           4                11 y            11 z         1.00000
           5                12 y            12 z         1.00000
           6                15 y            15 z         1.00000
           7                17 y            17 z         1.00000
           8                21 y            21 z         1.00000
           9                24 y            24 z         1.00000
          10                33 y            33 z         1.00000
          11                39 y            39 z         1.00000
          12                41 y            41 z         1.00000
          13                42 y            42 z         1.00000
          14                43 y            43 z         1.00000
          15                45 y            45 z         1.00000
          16                46 y            46 z         1.00000
          17                54 y            54 z         1.00000
          18                55 y            55 z         1.00000
          19                67 y            67 z         1.00000
          20                68 y            68 z         1.00000
          21                71 y            71 z         1.00000
          22                72 y            72 z         1.00000
          23                85 y            85 z         1.00000
          24                88 y            88 z         1.00000
          25                89 y            89 z         1.00000
          26                91 y            91 z         1.00000
          27                92 y            92 z         1.00000
          28                99 y            99 z         1.00000
          29               102 y           102 z         1.00000
          30               103 y           103 z         1.00000
          31               104 y           104 z         1.00000
          32               105 y           105 z         1.00000
          33               108 y           108 z         1.00000
          34               109 y           109 z         1.00000
--------------------------------------------------------------------------------


  Components of defect energy : 

--------------------------------------------------------------------------------
  Region 1 - region 1                   =     34.71954865 eV
  Region 1 - region 2a (unrelaxed)      =    -25.63512841 eV
  Region 1 - 2a (relaxed - correction)  =     -0.24069403 eV
  Region 1 (Total)                      =      8.84372622 eV
  Region 2a                             =      0.12038665 eV
  Region 2b                             =     -0.41250574 eV
--------------------------------------------------------------------------------
  Total defect energy                   =      8.55160713 eV
--------------------------------------------------------------------------------

  Largest displacement in region 2 =   0.0180 Angstroms


  Number of variables =      271

  Maximum number of calculations  =        1000
  Maximum Hessian update interval =          10
  Maximum step size               =   1.0000000
  Maximum parameter tolerance     =   0.0000100
  Maximum function  tolerance     =   0.0000100
  Maximum gradient  tolerance     =   0.0010000

  Symmetry adapted optimisation

  Symmetry to be used for second derivatives

  Newton-Raphson optimiser to be used

  BFGS hessian update to be used

  Lower half triangular hessian to be used

  Start of defect optimisation :

  Cycle:      0 Defect Energy:   8.551607  Gnorm:     0.090109  CPU:    1.716
  ** Hessian calculated **
  Cycle:      1 Defect Energy:   6.499659  Gnorm:     0.037543  CPU:    3.434
  Cycle:      2 Defect Energy:   6.033200  Gnorm:     0.003752  CPU:    4.666
  Cycle:      3 Defect Energy:   6.013620  Gnorm:     0.002341  CPU:    5.011
  Cycle:      4 Defect Energy:   6.007738  Gnorm:     0.001623  CPU:    5.421
  Cycle:      5 Defect Energy:   6.004404  Gnorm:     0.001129  CPU:    5.762
  Cycle:      6 Defect Energy:   6.002654  Gnorm:     0.000793  CPU:    6.098
  Cycle:      7 Defect Energy:   6.001788  Gnorm:     0.000547  CPU:    6.451
  Cycle:      8 Defect Energy:   6.001366  Gnorm:     0.000383  CPU:    6.785
  Cycle:      9 Defect Energy:   6.001168  Gnorm:     0.000265  CPU:    7.120
  Cycle:     10 Defect Energy:   6.001073  Gnorm:     0.000186  CPU:    7.456
  ** Hessian calculated **
  Cycle:     11 Defect Energy:   6.001030  Gnorm:     0.000130  CPU:    8.359
  Cycle:     12 Defect Energy:   6.001010  Gnorm:     0.000091  CPU:    8.695
  Cycle:     13 Defect Energy:   6.001001  Gnorm:     0.000064  CPU:    9.035
  Cycle:     14 Defect Energy:   6.000997  Gnorm:     0.000045  CPU:    9.371


  **** Optimisation achieved ****


  Final defect energy  =        6.00099610
  Final defect Gnorm   =        0.00003130

  Components of defect energy : 

--------------------------------------------------------------------------------
  Region 1 - region 1                   =     29.71347123 eV
  Region 1 - region 2a (unrelaxed)      =    -23.20977062 eV
  Region 1 - 2a (relaxed - correction)  =     -0.18202982 eV
  Region 1 (Total)                      =      6.32167079 eV
  Region 2a                             =      0.09096811 eV
  Region 2b                             =     -0.41164280 eV
--------------------------------------------------------------------------------
  Total defect energy                   =      6.00099610 eV
--------------------------------------------------------------------------------

  Largest displacement in region 2 =   0.0180 Angstroms

  Final coordinates of region 1 :

--------------------------------------------------------------------------------
   No.  Atomic        x           y           z          Radius      Charge
        Label       (Angs)      (Angs)      (Angs)       (Angs)       (e) 
--------------------------------------------------------------------------------
     1  Cl    c     2.972640    0.000000    0.000000    0.000000    1.485000
     2  Na    c     2.067599   -2.409721    0.000000    0.000000    1.000000
     3  Na    c     2.067599    2.409721    0.000000    0.000000    1.000000
     4  Na    c     2.067599    0.000000   -2.409721    0.000000    1.000000
     5  Na    c     2.067599    0.000000    2.409721    0.000000    1.000000
     6  O     c     2.112330   -2.280017   -2.280017    0.000000    0.183000
     7  O     c     2.112330   -2.280017    2.280017    0.000000    0.183000
     8  O     c     2.112330    2.280017   -2.280017    0.000000    0.183000
     9  O     c     2.112330    2.280017    2.280017    0.000000    0.183000
    10  Na    c     4.311075   -2.134643   -2.134643    0.000000    1.000000
    11  Na    c     4.311075   -2.134643    2.134643    0.000000    1.000000
    12  Na    c     4.311075    2.134643   -2.134643    0.000000    1.000000
    13  Na    c     4.311075    2.134643    2.134643    0.000000    1.000000
    14  Na    c    -0.035411   -2.407386   -2.407386    0.000000    1.000000
    15  Na    c    -0.035411   -2.407386    2.407386    0.000000    1.000000
    16  Na    c    -0.035411    2.407386   -2.407386    0.000000    1.000000
    17  Na    c    -0.035411    2.407386    2.407386    0.000000    1.000000
    18  Na    c     6.725577   -2.292901    0.000000    0.000000    1.000000
    19  Na    c     6.725577    2.292901    0.000000    0.000000    1.000000
    20  Na    c     6.725577    0.000000   -2.292901    0.000000    1.000000
    21  Na    c     6.725577    0.000000    2.292901    0.000000    1.000000
    22  Cl    c     4.349593    0.000000    4.367310    0.000000    1.485000
    23  Cl    c     4.349593    0.000000   -4.367310    0.000000    1.485000
    24  Cl    c     4.349593    4.367310    0.000000    0.000000    1.485000
    25  Cl    c     4.349593   -4.367310    0.000000    0.000000    1.485000
    26  Na    c     2.264627   -2.274180    4.455445    0.000000    1.000000
    27  Na    c     2.264627   -2.274180   -4.455445    0.000000    1.000000
    28  Na    c     2.264627    2.274180    4.455445    0.000000    1.000000
    29  Na    c     2.264627    2.274180   -4.455445    0.000000    1.000000
    30  Na    c     2.264627    4.455445   -2.274180    0.000000    1.000000
    31  Na    c     2.264627    4.455445    2.274180    0.000000    1.000000
    32  Na    c     2.264627   -4.455445   -2.274180    0.000000    1.000000
    33  Na    c     2.264627   -4.455445    2.274180    0.000000    1.000000
    34  Cl    c    -0.051107    0.000000    4.389834    0.000000    1.485000
    35  Cl    c    -0.051107    0.000000   -4.389834    0.000000    1.485000
    36  Cl    c    -0.051107    4.389834    0.000000    0.000000    1.485000
    37  Cl    c    -0.051107   -4.389834    0.000000    0.000000    1.485000
    38  Na    c    -2.288438   -2.330418    0.000000    0.000000    1.000000
    39  Na    c    -2.288438    2.330418    0.000000    0.000000    1.000000
    40  Na    c    -2.288438    0.000000   -2.330418    0.000000    1.000000
    41  Na    c    -2.288438    0.000000    2.330418    0.000000    1.000000
    42  O     c     6.534994   -2.177170   -2.177170    0.000000    0.183000
    43  O     c     6.534994   -2.177170    2.177170    0.000000    0.183000
    44  O     c     6.534994    2.177170   -2.177170    0.000000    0.183000
    45  O     c     6.534994    2.177170    2.177170    0.000000    0.183000
    46  O     c    -2.199790   -2.191159   -2.191159    0.000000    0.183000
    47  O     c    -2.199790   -2.191159    2.191159    0.000000    0.183000
    48  O     c    -2.199790    2.191159   -2.191159    0.000000    0.183000
    49  O     c    -2.199790    2.191159    2.191159    0.000000    0.183000
    50  Cl    c     8.736625    0.000000    0.000000    0.000000    1.485000
    51  Na    c     6.492205    4.403992   -2.224494    0.000000    1.000000
    52  Na    c     6.492205    4.403992    2.224494    0.000000    1.000000
    53  Na    c     6.492205   -4.403992   -2.224494    0.000000    1.000000
    54  Na    c     6.492205   -4.403992    2.224494    0.000000    1.000000
    55  Na    c     6.492205   -2.224494    4.403992    0.000000    1.000000
    56  Na    c     6.492205   -2.224494   -4.403992    0.000000    1.000000
    57  Na    c     6.492205    2.224494    4.403992    0.000000    1.000000
    58  Na    c     6.492205    2.224494   -4.403992    0.000000    1.000000
    59  Cl    c     4.393419    4.409958    4.409958    0.000000    1.485000
    60  Cl    c     4.393419    4.409958   -4.409958    0.000000    1.485000
    61  Cl    c     4.393419   -4.409958    4.409958    0.000000    1.485000
    62  Cl    c     4.393419   -4.409958   -4.409958    0.000000    1.485000
    63  Na    c     2.188256    6.622543    0.000000    0.000000    1.000000
    64  Na    c     2.188256   -6.622543    0.000000    0.000000    1.000000
    65  Na    c     2.188256    0.000000    6.622543    0.000000    1.000000
    66  Na    c     2.188256    0.000000   -6.622543    0.000000    1.000000
    67  Cl    c    -0.044231    4.435847    4.435847    0.000000    1.485000
    68  Cl    c    -0.044231    4.435847   -4.435847    0.000000    1.485000
    69  Cl    c    -0.044231   -4.435847    4.435847    0.000000    1.485000
    70  Cl    c    -0.044231   -4.435847   -4.435847    0.000000    1.485000
    71  Na    c    -2.283296   -2.221562    4.425605    0.000000    1.000000
    72  Na    c    -2.283296   -2.221562   -4.425605    0.000000    1.000000
    73  Na    c    -2.283296    2.221562    4.425605    0.000000    1.000000
    74  Na    c    -2.283296    2.221562   -4.425605    0.000000    1.000000
    75  Na    c    -2.283296    4.425605   -2.221562    0.000000    1.000000
    76  Na    c    -2.283296    4.425605    2.221562    0.000000    1.000000
    77  Na    c    -2.283296   -4.425605   -2.221562    0.000000    1.000000
    78  Na    c    -2.283296   -4.425605    2.221562    0.000000    1.000000
    79  Cl    c    -4.345998    0.000000    0.000000    0.000000    1.485000
    80  O     c     2.192951   -2.209439    6.631306    0.000000    0.183000
    81  O     c     2.192951   -2.209439   -6.631306    0.000000    0.183000
    82  O     c     2.192951    2.209439    6.631306    0.000000    0.183000
    83  O     c     2.192951    2.209439   -6.631306    0.000000    0.183000
    84  O     c     2.192951    6.631306   -2.209439    0.000000    0.183000
    85  O     c     2.192951    6.631306    2.209439    0.000000    0.183000
    86  O     c     2.192951   -6.631306   -2.209439    0.000000    0.183000
    87  O     c     2.192951   -6.631306    2.209439    0.000000    0.183000
    88  Na    c     8.781997   -2.270330   -2.270330    0.000000    1.000000
    89  Na    c     8.781997   -2.270330    2.270330    0.000000    1.000000
    90  Na    c     8.781997    2.270330   -2.270330    0.000000    1.000000
    91  Na    c     8.781997    2.270330    2.270330    0.000000    1.000000
    92  Na    c     4.395504   -2.204854    6.708491    0.000000    1.000000
    93  Na    c     4.395504   -2.204854   -6.708491    0.000000    1.000000
    94  Na    c     4.395504    2.204854    6.708491    0.000000    1.000000
    95  Na    c     4.395504    2.204854   -6.708491    0.000000    1.000000
    96  Na    c     4.395504    6.708491   -2.204854    0.000000    1.000000
    97  Na    c     4.395504    6.708491    2.204854    0.000000    1.000000
    98  Na    c     4.395504   -6.708491   -2.204854    0.000000    1.000000
    99  Na    c     4.395504   -6.708491    2.204854    0.000000    1.000000
   100  Na    c    -0.011516    6.600390   -2.210263    0.000000    1.000000
   101  Na    c    -0.011516    6.600390    2.210263    0.000000    1.000000
   102  Na    c    -0.011516   -6.600390   -2.210263    0.000000    1.000000
   103  Na    c    -0.011516   -6.600390    2.210263    0.000000    1.000000
   104  Na    c    -0.011516   -2.210263    6.600390    0.000000    1.000000
   105  Na    c    -0.011516   -2.210263   -6.600390    0.000000    1.000000
   106  Na    c    -0.011516    2.210263    6.600390    0.000000    1.000000
   107  Na    c    -0.011516    2.210263   -6.600390    0.000000    1.000000
   108  Na    c    -4.426938   -2.182476   -2.182476    0.000000    1.000000
   109  Na    c    -4.426938   -2.182476    2.182476    0.000000    1.000000
   110  Na    c    -4.426938    2.182476   -2.182476    0.000000    1.000000
   111  Na    c    -4.426938    2.182476    2.182476    0.000000    1.000000
   112  Cl    c     8.766250    0.000000    4.376069    0.000000    1.485000
   113  Cl    c     8.766250    0.000000   -4.376069    0.000000    1.485000
   114  Cl    c     8.766250    4.376069    0.000000    0.000000    1.485000
   115  Cl    c     8.766250   -4.376069    0.000000    0.000000    1.485000
   116  Na    c     6.621353    6.605371    0.000000    0.000000    1.000000
   117  Na    c     6.621353   -6.605371    0.000000    0.000000    1.000000
   118  Na    c     6.621353    0.000000    6.605371    0.000000    1.000000
   119  Na    c     6.621353    0.000000   -6.605371    0.000000    1.000000
   120  Na    c     2.193779    6.661204    4.420762    0.000000    1.000000
   121  Na    c     2.193779    6.661204   -4.420762    0.000000    1.000000
   122  Na    c     2.193779   -6.661204    4.420762    0.000000    1.000000
   123  Na    c     2.193779   -6.661204   -4.420762    0.000000    1.000000
   124  Na    c     2.193779    4.420762    6.661204    0.000000    1.000000
   125  Na    c     2.193779    4.420762   -6.661204    0.000000    1.000000
   126  Na    c     2.193779   -4.420762    6.661204    0.000000    1.000000
   127  Na    c     2.193779   -4.420762   -6.661204    0.000000    1.000000
   128  Na    c    -2.207296    6.627667    0.000000    0.000000    1.000000
   129  Na    c    -2.207296   -6.627667    0.000000    0.000000    1.000000
   130  Na    c    -2.207296    0.000000    6.627667    0.000000    1.000000
   131  Na    c    -2.207296    0.000000   -6.627667    0.000000    1.000000
   132  Cl    c    -4.387155    0.000000    4.374439    0.000000    1.485000
   133  Cl    c    -4.387155    0.000000   -4.374439    0.000000    1.485000
   134  Cl    c    -4.387155    4.374439    0.000000    0.000000    1.485000
   135  Cl    c    -4.387155   -4.374439    0.000000    0.000000    1.485000
   136  O     c     6.590184   -2.200435    6.604638    0.000000    0.183000
   137  O     c     6.590184   -2.200435   -6.604638    0.000000    0.183000
   138  O     c     6.590184    2.200435    6.604638    0.000000    0.183000
   139  O     c     6.590184    2.200435   -6.604638    0.000000    0.183000
   140  O     c     6.590184    6.604638   -2.200435    0.000000    0.183000
   141  O     c     6.590184    6.604638    2.200435    0.000000    0.183000
   142  O     c     6.590184   -6.604638   -2.200435    0.000000    0.183000
   143  O     c     6.590184   -6.604638    2.200435    0.000000    0.183000
   144  O     c    -2.212933   -2.204801    6.612998    0.000000    0.183000
   145  O     c    -2.212933   -2.204801   -6.612998    0.000000    0.183000
   146  O     c    -2.212933    2.204801    6.612998    0.000000    0.183000
   147  O     c    -2.212933    2.204801   -6.612998    0.000000    0.183000
   148  O     c    -2.212933    6.612998   -2.204801    0.000000    0.183000
   149  O     c    -2.212933    6.612998    2.204801    0.000000    0.183000
   150  O     c    -2.212933   -6.612998   -2.204801    0.000000    0.183000
   151  O     c    -2.212933   -6.612998    2.204801    0.000000    0.183000
   152  Na    c    10.966393   -2.201870    0.000000    0.000000    1.000000
   153  Na    c    10.966393    2.201870    0.000000    0.000000    1.000000
   154  Na    c    10.966393    0.000000   -2.201870    0.000000    1.000000
   155  Na    c    10.966393    0.000000    2.201870    0.000000    1.000000
   156  Cl    c     8.773511    4.383134    4.383134    0.000000    1.485000
   157  Cl    c     8.773511    4.383134   -4.383134    0.000000    1.485000
   158  Cl    c     8.773511   -4.383134    4.383134    0.000000    1.485000
   159  Cl    c     8.773511   -4.383134   -4.383134    0.000000    1.485000
   160  Na    c     6.607519    6.621893    4.408756    0.000000    1.000000
   161  Na    c     6.607519    6.621893   -4.408756    0.000000    1.000000
   162  Na    c     6.607519   -6.621893    4.408756    0.000000    1.000000
   163  Na    c     6.607519   -6.621893   -4.408756    0.000000    1.000000
   164  Na    c     6.607519    4.408756    6.621893    0.000000    1.000000
   165  Na    c     6.607519    4.408756   -6.621893    0.000000    1.000000
   166  Na    c     6.607519   -4.408756    6.621893    0.000000    1.000000
   167  Na    c     6.607519   -4.408756   -6.621893    0.000000    1.000000
   168  Cl    c     4.397139    0.000000    8.803274    0.000000    1.485000
   169  Cl    c     4.397139    0.000000   -8.803274    0.000000    1.485000
   170  Cl    c     4.397139    8.803274    0.000000    0.000000    1.485000
   171  Cl    c     4.397139   -8.803274    0.000000    0.000000    1.485000
   172  Na    c     2.158018   -2.198089    8.830208    0.000000    1.000000
   173  Na    c     2.158018   -2.198089   -8.830208    0.000000    1.000000
   174  Na    c     2.158018    2.198089    8.830208    0.000000    1.000000
   175  Na    c     2.158018    2.198089   -8.830208    0.000000    1.000000
   176  Na    c     2.158018    8.830208   -2.198089    0.000000    1.000000
   177  Na    c     2.158018    8.830208    2.198089    0.000000    1.000000
   178  Na    c     2.158018   -8.830208   -2.198089    0.000000    1.000000
   179  Na    c     2.158018   -8.830208    2.198089    0.000000    1.000000
   180  Cl    c    -0.007829    0.000000    8.801598    0.000000    1.485000
   181  Cl    c    -0.007829    0.000000   -8.801598    0.000000    1.485000
   182  Cl    c    -0.007829    8.801598    0.000000    0.000000    1.485000
   183  Cl    c    -0.007829   -8.801598    0.000000    0.000000    1.485000
   184  Na    c    -2.202635    6.628614    4.415402    0.000000    1.000000
   185  Na    c    -2.202635    6.628614   -4.415402    0.000000    1.000000
   186  Na    c    -2.202635   -6.628614    4.415402    0.000000    1.000000
   187  Na    c    -2.202635   -6.628614   -4.415402    0.000000    1.000000
   188  Na    c    -2.202635    4.415402    6.628614    0.000000    1.000000
   189  Na    c    -2.202635    4.415402   -6.628614    0.000000    1.000000
   190  Na    c    -2.202635   -4.415402    6.628614    0.000000    1.000000
   191  Na    c    -2.202635   -4.415402   -6.628614    0.000000    1.000000
   192  Cl    c    -4.393992    4.379431    4.379431    0.000000    1.485000
   193  Cl    c    -4.393992    4.379431   -4.379431    0.000000    1.485000
   194  Cl    c    -4.393992   -4.379431    4.379431    0.000000    1.485000
   195  Cl    c    -4.393992   -4.379431   -4.379431    0.000000    1.485000
   196  Na    c    -6.659800   -2.209834    0.000000    0.000000    1.000000
   197  Na    c    -6.659800    2.209834    0.000000    0.000000    1.000000
   198  Na    c    -6.659800    0.000000   -2.209834    0.000000    1.000000
   199  Na    c    -6.659800    0.000000    2.209834    0.000000    1.000000
   200  O     c    10.989895   -2.204006   -2.204006    0.000000    0.183000
   201  O     c    10.989895   -2.204006    2.204006    0.000000    0.183000
   202  O     c    10.989895    2.204006   -2.204006    0.000000    0.183000
   203  O     c    10.989895    2.204006    2.204006    0.000000    0.183000
   204  O     c     2.198927    6.618542    6.618542    0.000000    0.183000
   205  O     c     2.198927    6.618542   -6.618542    0.000000    0.183000
   206  O     c     2.198927   -6.618542    6.618542    0.000000    0.183000
   207  O     c     2.198927   -6.618542   -6.618542    0.000000    0.183000
   208  O     c    -6.615523   -2.201246   -2.201246    0.000000    0.183000
   209  O     c    -6.615523   -2.201246    2.201246    0.000000    0.183000
   210  O     c    -6.615523    2.201246   -2.201246    0.000000    0.183000
   211  O     c    -6.615523    2.201246    2.201246    0.000000    0.183000
   212  Na    c     8.801273   -2.218505    6.571065    0.000000    1.000000
   213  Na    c     8.801273   -2.218505   -6.571065    0.000000    1.000000
   214  Na    c     8.801273    2.218505    6.571065    0.000000    1.000000
   215  Na    c     8.801273    2.218505   -6.571065    0.000000    1.000000
   216  Na    c     8.801273    6.571065   -2.218505    0.000000    1.000000
   217  Na    c     8.801273    6.571065    2.218505    0.000000    1.000000
   218  Na    c     8.801273   -6.571065   -2.218505    0.000000    1.000000
   219  Na    c     8.801273   -6.571065    2.218505    0.000000    1.000000
   220  Na    c     4.405439    6.615306    6.615306    0.000000    1.000000
   221  Na    c     4.405439    6.615306   -6.615306    0.000000    1.000000
   222  Na    c     4.405439   -6.615306    6.615306    0.000000    1.000000
   223  Na    c     4.405439   -6.615306   -6.615306    0.000000    1.000000
   224  Na    c    -0.006617    6.624070    6.624070    0.000000    1.000000
   225  Na    c    -0.006617    6.624070   -6.624070    0.000000    1.000000
   226  Na    c    -0.006617   -6.624070    6.624070    0.000000    1.000000
   227  Na    c    -0.006617   -6.624070   -6.624070    0.000000    1.000000
   228  Na    c    -4.412374   -2.216005    6.656131    0.000000    1.000000
   229  Na    c    -4.412374   -2.216005   -6.656131    0.000000    1.000000
   230  Na    c    -4.412374    2.216005    6.656131    0.000000    1.000000
   231  Na    c    -4.412374    2.216005   -6.656131    0.000000    1.000000
   232  Na    c    -4.412374    6.656131   -2.216005    0.000000    1.000000
   233  Na    c    -4.412374    6.656131    2.216005    0.000000    1.000000
   234  Na    c    -4.412374   -6.656131   -2.216005    0.000000    1.000000
   235  Na    c    -4.412374   -6.656131    2.216005    0.000000    1.000000
   236  Na    c    11.040100    4.404537   -2.198638    0.000000    1.000000
   237  Na    c    11.040100    4.404537    2.198638    0.000000    1.000000
   238  Na    c    11.040100   -4.404537   -2.198638    0.000000    1.000000
   239  Na    c    11.040100   -4.404537    2.198638    0.000000    1.000000
   240  Na    c    11.040100   -2.198638    4.404537    0.000000    1.000000
   241  Na    c    11.040100   -2.198638   -4.404537    0.000000    1.000000
   242  Na    c    11.040100    2.198638    4.404537    0.000000    1.000000
   243  Na    c    11.040100    2.198638   -4.404537    0.000000    1.000000
   244  Na    c     6.642111   -2.192632    8.814850    0.000000    1.000000
   245  Na    c     6.642111   -2.192632   -8.814850    0.000000    1.000000
   246  Na    c     6.642111    2.192632    8.814850    0.000000    1.000000
   247  Na    c     6.642111    2.192632   -8.814850    0.000000    1.000000
   248  Na    c     6.642111    8.814850   -2.192632    0.000000    1.000000
   249  Na    c     6.642111    8.814850    2.192632    0.000000    1.000000
   250  Na    c     6.642111   -8.814850   -2.192632    0.000000    1.000000
   251  Na    c     6.642111   -8.814850    2.192632    0.000000    1.000000
   252  Cl    c     4.399398    4.403345    8.805354    0.000000    1.485000
   253  Cl    c     4.399398    4.403345   -8.805354    0.000000    1.485000
   254  Cl    c     4.399398    8.805354    4.403345    0.000000    1.485000
   255  Cl    c     4.399398    8.805354   -4.403345    0.000000    1.485000
   256  Cl    c     4.399398   -4.403345    8.805354    0.000000    1.485000
   257  Cl    c     4.399398   -4.403345   -8.805354    0.000000    1.485000
   258  Cl    c     4.399398   -8.805354    4.403345    0.000000    1.485000
   259  Cl    c     4.399398   -8.805354   -4.403345    0.000000    1.485000
   260  Cl    c    -0.004110    4.404031    8.806303    0.000000    1.485000
   261  Cl    c    -0.004110    4.404031   -8.806303    0.000000    1.485000
   262  Cl    c    -0.004110    8.806303    4.404031    0.000000    1.485000
   263  Cl    c    -0.004110    8.806303   -4.404031    0.000000    1.485000
   264  Cl    c    -0.004110   -4.404031    8.806303    0.000000    1.485000
   265  Cl    c    -0.004110   -4.404031   -8.806303    0.000000    1.485000
   266  Cl    c    -0.004110   -8.806303    4.404031    0.000000    1.485000
   267  Cl    c    -0.004110   -8.806303   -4.404031    0.000000    1.485000
   268  Na    c    -2.188316   -2.204041    8.818344    0.000000    1.000000
   269  Na    c    -2.188316   -2.204041   -8.818344    0.000000    1.000000
   270  Na    c    -2.188316    2.204041    8.818344    0.000000    1.000000
   271  Na    c    -2.188316    2.204041   -8.818344    0.000000    1.000000
   272  Na    c    -2.188316    8.818344   -2.204041    0.000000    1.000000
   273  Na    c    -2.188316    8.818344    2.204041    0.000000    1.000000
   274  Na    c    -2.188316   -8.818344   -2.204041    0.000000    1.000000
   275  Na    c    -2.188316   -8.818344    2.204041    0.000000    1.000000
   276  Na    c    -6.605716   -2.209919    4.408580    0.000000    1.000000
   277  Na    c    -6.605716   -2.209919   -4.408580    0.000000    1.000000
   278  Na    c    -6.605716    2.209919    4.408580    0.000000    1.000000
   279  Na    c    -6.605716    2.209919   -4.408580    0.000000    1.000000
   280  Na    c    -6.605716    4.408580   -2.209919    0.000000    1.000000
   281  Na    c    -6.605716    4.408580    2.209919    0.000000    1.000000
   282  Na    c    -6.605716   -4.408580   -2.209919    0.000000    1.000000
   283  Na    c    -6.605716   -4.408580    2.209919    0.000000    1.000000
   284  O     c     6.607689    6.610916    6.610916    0.000000    0.183000
   285  O     c     6.607689    6.610916   -6.610916    0.000000    0.183000
   286  O     c     6.607689   -6.610916    6.610916    0.000000    0.183000
   287  O     c     6.607689   -6.610916   -6.610916    0.000000    0.183000
   288  O     c    -2.209727    6.617096    6.617096    0.000000    0.183000
   289  O     c    -2.209727    6.617096   -6.617096    0.000000    0.183000
   290  O     c    -2.209727   -6.617096    6.617096    0.000000    0.183000
   291  O     c    -2.209727   -6.617096   -6.617096    0.000000    0.183000
   292  Cl    c    13.194038    0.000000    0.000000    0.000000    1.485000
   293  Na    c    11.010448    6.626438    0.000000    0.000000    1.000000
   294  Na    c    11.010448   -6.626438    0.000000    0.000000    1.000000
   295  Na    c    11.010448    0.000000    6.626438    0.000000    1.000000
   296  Na    c    11.010448    0.000000   -6.626438    0.000000    1.000000
   297  Cl    c     8.800247    0.000000    8.796218    0.000000    1.485000
   298  Cl    c     8.800247    0.000000   -8.796218    0.000000    1.485000
   299  Cl    c     8.800247    8.796218    0.000000    0.000000    1.485000
   300  Cl    c     8.800247   -8.796218    0.000000    0.000000    1.485000
   301  Na    c     2.204337    6.626863    8.821383    0.000000    1.000000
   302  Na    c     2.204337    6.626863   -8.821383    0.000000    1.000000
   303  Na    c     2.204337   -6.626863    8.821383    0.000000    1.000000
   304  Na    c     2.204337   -6.626863   -8.821383    0.000000    1.000000
   305  Na    c     2.204337    8.821383    6.626863    0.000000    1.000000
   306  Na    c     2.204337    8.821383   -6.626863    0.000000    1.000000
   307  Na    c     2.204337   -8.821383    6.626863    0.000000    1.000000
   308  Na    c     2.204337   -8.821383   -6.626863    0.000000    1.000000
   309  Na    c     2.214521   11.034458    0.000000    0.000000    1.000000
   310  Na    c     2.214521  -11.034458    0.000000    0.000000    1.000000
   311  Na    c     2.214521    0.000000   11.034458    0.000000    1.000000
   312  Na    c     2.214521    0.000000  -11.034458    0.000000    1.000000
   313  Cl    c    -4.406663    0.000000    8.799022    0.000000    1.485000
   314  Cl    c    -4.406663    0.000000   -8.799022    0.000000    1.485000
   315  Cl    c    -4.406663    8.799022    0.000000    0.000000    1.485000
   316  Cl    c    -4.406663   -8.799022    0.000000    0.000000    1.485000
   317  Na    c    -6.622016    6.615741    0.000000    0.000000    1.000000
   318  Na    c    -6.622016   -6.615741    0.000000    0.000000    1.000000
   319  Na    c    -6.622016    0.000000    6.615741    0.000000    1.000000
   320  Na    c    -6.622016    0.000000   -6.615741    0.000000    1.000000
   321  Cl    c    -8.793669    0.000000    0.000000    0.000000    1.485000
   322  O     c    11.008444   -2.201638    6.601653    0.000000    0.183000
   323  O     c    11.008444   -2.201638   -6.601653    0.000000    0.183000
   324  O     c    11.008444    2.201638    6.601653    0.000000    0.183000
   325  O     c    11.008444    2.201638   -6.601653    0.000000    0.183000
   326  O     c    11.008444    6.601653   -2.201638    0.000000    0.183000
   327  O     c    11.008444    6.601653    2.201638    0.000000    0.183000
   328  O     c    11.008444   -6.601653   -2.201638    0.000000    0.183000
   329  O     c    11.008444   -6.601653    2.201638    0.000000    0.183000
   330  O     c     2.198030   -2.202242   11.019705    0.000000    0.183000
   331  O     c     2.198030   -2.202242  -11.019705    0.000000    0.183000
   332  O     c     2.198030    2.202242   11.019705    0.000000    0.183000
   333  O     c     2.198030    2.202242  -11.019705    0.000000    0.183000
   334  O     c     2.198030   11.019705   -2.202242    0.000000    0.183000
   335  O     c     2.198030   11.019705    2.202242    0.000000    0.183000
   336  O     c     2.198030  -11.019705   -2.202242    0.000000    0.183000
   337  O     c     2.198030  -11.019705    2.202242    0.000000    0.183000
   338  O     c    -6.607142    6.607401   -2.202525    0.000000    0.183000
   339  O     c    -6.607142    6.607401    2.202525    0.000000    0.183000
   340  O     c    -6.607142   -6.607401   -2.202525    0.000000    0.183000
   341  O     c    -6.607142   -6.607401    2.202525    0.000000    0.183000
   342  O     c    -6.607142   -2.202525    6.607401    0.000000    0.183000
   343  O     c    -6.607142   -2.202525   -6.607401    0.000000    0.183000
   344  O     c    -6.607142    2.202525    6.607401    0.000000    0.183000
   345  O     c    -6.607142    2.202525   -6.607401    0.000000    0.183000
   346  Na    c    13.210236   -2.185810   -2.185810    0.000000    1.000000
   347  Na    c    13.210236   -2.185810    2.185810    0.000000    1.000000
   348  Na    c    13.210236    2.185810   -2.185810    0.000000    1.000000
   349  Na    c    13.210236    2.185810    2.185810    0.000000    1.000000
   350  Na    c     8.812205    6.615610    6.615610    0.000000    1.000000
   351  Na    c     8.812205    6.615610   -6.615610    0.000000    1.000000
   352  Na    c     8.812205   -6.615610    6.615610    0.000000    1.000000
   353  Na    c     8.812205   -6.615610   -6.615610    0.000000    1.000000
   354  Na    c     4.405738   -2.212865   11.014255    0.000000    1.000000
   355  Na    c     4.405738   -2.212865  -11.014255    0.000000    1.000000
   356  Na    c     4.405738    2.212865   11.014255    0.000000    1.000000
   357  Na    c     4.405738    2.212865  -11.014255    0.000000    1.000000
   358  Na    c     4.405738   11.014255   -2.212865    0.000000    1.000000
   359  Na    c     4.405738   11.014255    2.212865    0.000000    1.000000
   360  Na    c     4.405738  -11.014255   -2.212865    0.000000    1.000000
   361  Na    c     4.405738  -11.014255    2.212865    0.000000    1.000000
   362  Na    c    -0.003689   -2.202865   11.045250    0.000000    1.000000
   363  Na    c    -0.003689   -2.202865  -11.045250    0.000000    1.000000
   364  Na    c    -0.003689    2.202865   11.045250    0.000000    1.000000
   365  Na    c    -0.003689    2.202865  -11.045250    0.000000    1.000000
   366  Na    c    -0.003689   11.045250   -2.202865    0.000000    1.000000
   367  Na    c    -0.003689   11.045250    2.202865    0.000000    1.000000
   368  Na    c    -0.003689  -11.045250   -2.202865    0.000000    1.000000
   369  Na    c    -0.003689  -11.045250    2.202865    0.000000    1.000000
   370  Na    c    -4.410026    6.618452    6.618452    0.000000    1.000000
   371  Na    c    -4.410026    6.618452   -6.618452    0.000000    1.000000
   372  Na    c    -4.410026   -6.618452    6.618452    0.000000    1.000000
   373  Na    c    -4.410026   -6.618452   -6.618452    0.000000    1.000000
   374  Na    c    -8.819749   -2.218319   -2.218319    0.000000    1.000000
   375  Na    c    -8.819749   -2.218319    2.218319    0.000000    1.000000
   376  Na    c    -8.819749    2.218319   -2.218319    0.000000    1.000000
   377  Na    c    -8.819749    2.218319    2.218319    0.000000    1.000000
   378  Cl    c    13.191313    0.000000    4.394396    0.000000    1.485000
   379  Cl    c    13.191313    0.000000   -4.394396    0.000000    1.485000
   380  Cl    c    13.191313    4.394396    0.000000    0.000000    1.485000
   381  Cl    c    13.191313   -4.394396    0.000000    0.000000    1.485000
   382  Na    c    11.024824    6.620243    4.406559    0.000000    1.000000
   383  Na    c    11.024824    6.620243   -4.406559    0.000000    1.000000
   384  Na    c    11.024824   -6.620243    4.406559    0.000000    1.000000
   385  Na    c    11.024824   -6.620243   -4.406559    0.000000    1.000000
   386  Na    c    11.024824    4.406559    6.620243    0.000000    1.000000
   387  Na    c    11.024824    4.406559   -6.620243    0.000000    1.000000
   388  Na    c    11.024824   -4.406559    6.620243    0.000000    1.000000
   389  Na    c    11.024824   -4.406559   -6.620243    0.000000    1.000000
   390  Cl    c     8.801593    4.397213    8.792911    0.000000    1.485000
   391  Cl    c     8.801593    4.397213   -8.792911    0.000000    1.485000
   392  Cl    c     8.801593    8.792911    4.397213    0.000000    1.485000
   393  Cl    c     8.801593    8.792911   -4.397213    0.000000    1.485000
   394  Cl    c     8.801593   -4.397213    8.792911    0.000000    1.485000
   395  Cl    c     8.801593   -4.397213   -8.792911    0.000000    1.485000
   396  Cl    c     8.801593   -8.792911    4.397213    0.000000    1.485000
   397  Cl    c     8.801593   -8.792911   -4.397213    0.000000    1.485000
   398  Na    c     6.604904   11.039476    0.000000    0.000000    1.000000
   399  Na    c     6.604904  -11.039476    0.000000    0.000000    1.000000
   400  Na    c     6.604904    0.000000   11.039476    0.000000    1.000000
   401  Na    c     6.604904    0.000000  -11.039476    0.000000    1.000000
   402  Na    c     6.612855    6.619155    8.816212    0.000000    1.000000
   403  Na    c     6.612855    6.619155   -8.816212    0.000000    1.000000
   404  Na    c     6.612855   -6.619155    8.816212    0.000000    1.000000
   405  Na    c     6.612855   -6.619155   -8.816212    0.000000    1.000000
   406  Na    c     6.612855    8.816212    6.619155    0.000000    1.000000
   407  Na    c     6.612855    8.816212   -6.619155    0.000000    1.000000
   408  Na    c     6.612855   -8.816212    6.619155    0.000000    1.000000
   409  Na    c     6.612855   -8.816212   -6.619155    0.000000    1.000000
   410  Na    c     2.203160   11.031413    4.408660    0.000000    1.000000
   411  Na    c     2.203160   11.031413   -4.408660    0.000000    1.000000
   412  Na    c     2.203160  -11.031413    4.408660    0.000000    1.000000
   413  Na    c     2.203160  -11.031413   -4.408660    0.000000    1.000000
   414  Na    c     2.203160    4.408660   11.031413    0.000000    1.000000
   415  Na    c     2.203160    4.408660  -11.031413    0.000000    1.000000
   416  Na    c     2.203160   -4.408660   11.031413    0.000000    1.000000
   417  Na    c     2.203160   -4.408660  -11.031413    0.000000    1.000000
   418  Na    c    -2.211889   11.027133    0.000000    0.000000    1.000000
   419  Na    c    -2.211889  -11.027133    0.000000    0.000000    1.000000
   420  Na    c    -2.211889    0.000000   11.027133    0.000000    1.000000
   421  Na    c    -2.211889    0.000000  -11.027133    0.000000    1.000000
   422  Na    c    -2.210167    8.819287    6.623192    0.000000    1.000000
   423  Na    c    -2.210167    8.819287   -6.623192    0.000000    1.000000
   424  Na    c    -2.210167   -8.819287    6.623192    0.000000    1.000000
   425  Na    c    -2.210167   -8.819287   -6.623192    0.000000    1.000000
   426  Na    c    -2.210167    6.623192    8.819287    0.000000    1.000000
   427  Na    c    -2.210167    6.623192   -8.819287    0.000000    1.000000
   428  Na    c    -2.210167   -6.623192    8.819287    0.000000    1.000000
   429  Na    c    -2.210167   -6.623192   -8.819287    0.000000    1.000000
   430  Cl    c    -4.404627    4.398013    8.796072    0.000000    1.485000
   431  Cl    c    -4.404627    4.398013   -8.796072    0.000000    1.485000
   432  Cl    c    -4.404627    8.796072    4.398013    0.000000    1.485000
   433  Cl    c    -4.404627    8.796072   -4.398013    0.000000    1.485000
   434  Cl    c    -4.404627   -4.398013    8.796072    0.000000    1.485000
   435  Cl    c    -4.404627   -4.398013   -8.796072    0.000000    1.485000
   436  Cl    c    -4.404627   -8.796072    4.398013    0.000000    1.485000
   437  Cl    c    -4.404627   -8.796072   -4.398013    0.000000    1.485000
   438  Na    c    -6.624887    6.620501    4.408504    0.000000    1.000000
   439  Na    c    -6.624887    6.620501   -4.408504    0.000000    1.000000
   440  Na    c    -6.624887   -6.620501    4.408504    0.000000    1.000000
   441  Na    c    -6.624887   -6.620501   -4.408504    0.000000    1.000000
   442  Na    c    -6.624887    4.408504    6.620501    0.000000    1.000000
   443  Na    c    -6.624887    4.408504   -6.620501    0.000000    1.000000
   444  Na    c    -6.624887   -4.408504    6.620501    0.000000    1.000000
   445  Na    c    -6.624887   -4.408504   -6.620501    0.000000    1.000000
   446  Cl    c    -8.793044    0.000000    4.399516    0.000000    1.485000
   447  Cl    c    -8.793044    0.000000   -4.399516    0.000000    1.485000
   448  Cl    c    -8.793044    4.399516    0.000000    0.000000    1.485000
   449  Cl    c    -8.793044   -4.399516    0.000000    0.000000    1.485000
   450  Cl    s     2.972640    0.000000    0.000000    0.000000   -2.485000
   451  O     s     2.112311   -2.280143   -2.280143    0.000000   -2.183000
   452  O     s     2.112311   -2.280143    2.280143    0.000000   -2.183000
   453  O     s     2.112311    2.280143   -2.280143    0.000000   -2.183000
   454  O     s     2.112311    2.280143    2.280143    0.000000   -2.183000
   455  Cl    s     4.344402    0.000000    4.360281    0.000000   -2.485000
   456  Cl    s     4.344402    0.000000   -4.360281    0.000000   -2.485000
   457  Cl    s     4.344402    4.360281    0.000000    0.000000   -2.485000
   458  Cl    s     4.344402   -4.360281    0.000000    0.000000   -2.485000
   459  Cl    s    -0.049888    0.000000    4.382501    0.000000   -2.485000
   460  Cl    s    -0.049888    0.000000   -4.382501    0.000000   -2.485000
   461  Cl    s    -0.049888    4.382501    0.000000    0.000000   -2.485000
   462  Cl    s    -0.049888   -4.382501    0.000000    0.000000   -2.485000
   463  O     s     6.535022   -2.177162   -2.177162    0.000000   -2.183000
   464  O     s     6.535022   -2.177162    2.177162    0.000000   -2.183000
   465  O     s     6.535022    2.177162   -2.177162    0.000000   -2.183000
[...]
     40 y         -2.202951     -2.209834    -0.006883    Cartesian    0.31
     40 z          0.000000      0.000000     0.000000    Cartesian    0.00
     41 x         11.014756     10.989895    -0.024860    Cartesian   -0.23
     41 y         -2.202951     -2.204006    -0.001055    Cartesian    0.05
     41 z         -2.202951     -2.204006    -0.001055    Cartesian    0.05
     42 x          2.202951      2.198927    -0.004024    Cartesian   -0.18
     42 y          6.608853      6.618542     0.009688    Cartesian    0.15
     42 z          6.608853      6.618542     0.009688    Cartesian    0.15
     43 x         -6.608853     -6.615523    -0.006670    Cartesian    0.10
     43 y         -2.202951     -2.201246     0.001705    Cartesian   -0.08
     43 z         -2.202951     -2.201246     0.001705    Cartesian   -0.08
     44 x          8.811805      8.801273    -0.010531    Cartesian   -0.12
     44 y         -2.202951     -2.218505    -0.015554    Cartesian    0.71
     44 z          6.608853      6.571065    -0.037788    Cartesian   -0.57
     45 x          4.405902      4.405439    -0.000463    Cartesian   -0.01
     45 y          6.608853      6.615306     0.006453    Cartesian    0.10
     45 z          6.608853      6.615306     0.006453    Cartesian    0.10
     46 x          0.000000     -0.006617    -0.006617    Cartesian    0.00
     46 y          6.608853      6.624070     0.015216    Cartesian    0.23
     46 z          6.608853      6.624070     0.015216    Cartesian    0.23
     47 x         -4.405902     -4.412374    -0.006472    Cartesian    0.15
     47 y         -2.202951     -2.216005    -0.013053    Cartesian    0.59
     47 z          6.608853      6.656131     0.047277    Cartesian    0.72
     48 x         11.014756     11.040100     0.025344    Cartesian    0.23
     48 y          4.405902      4.404537    -0.001365    Cartesian   -0.03
     48 z         -2.202951     -2.198638     0.004314    Cartesian   -0.20
     49 x          6.608853      6.642111     0.033258    Cartesian    0.50
     49 y         -2.202951     -2.192632     0.010320    Cartesian   -0.47
     49 z          8.811805      8.814850     0.003045    Cartesian    0.03
     50 x          4.405902      4.399398    -0.006504    Cartesian   -0.15
     50 y          4.405902      4.403345    -0.002558    Cartesian   -0.06
     50 z          8.811805      8.805354    -0.006450    Cartesian   -0.07
     51 x          0.000000     -0.004110    -0.004110    Cartesian    0.00
     51 y          4.405902      4.404031    -0.001871    Cartesian   -0.04
     51 z          8.811805      8.806303    -0.005502    Cartesian   -0.06
     52 x         -2.202951     -2.188316     0.014635    Cartesian   -0.66
     52 y         -2.202951     -2.204041    -0.001090    Cartesian    0.05
     52 z          8.811805      8.818344     0.006540    Cartesian    0.07
     53 x         -6.608853     -6.605716     0.003138    Cartesian   -0.05
     53 y         -2.202951     -2.209919    -0.006967    Cartesian    0.32
     53 z          4.405902      4.408580     0.002677    Cartesian    0.06
     54 x          6.608853      6.607689    -0.001164    Cartesian   -0.02
     54 y          6.608853      6.610916     0.002062    Cartesian    0.03
     54 z          6.608853      6.610916     0.002062    Cartesian    0.03
     55 x         -2.202951     -2.209727    -0.006775    Cartesian    0.31
     55 y          6.608853      6.617096     0.008242    Cartesian    0.12
     55 z          6.608853      6.617096     0.008242    Cartesian    0.12
     56 x         13.217707     13.194038    -0.023668    Cartesian   -0.18
     56 y          0.000000      0.000000     0.000000    Cartesian    0.00
     56 z          0.000000      0.000000     0.000000    Cartesian    0.00
     57 x         11.014756     11.010448    -0.004308    Cartesian   -0.04
     57 y          6.608853      6.626438     0.017585    Cartesian    0.27
     57 z          0.000000      0.000000     0.000000    Cartesian    0.00
     58 x          8.811805      8.800247    -0.011557    Cartesian   -0.13
     58 y          0.000000      0.000000     0.000000    Cartesian    0.00
     58 z          8.811805      8.796218    -0.015586    Cartesian   -0.18
     59 x          2.202951      2.204337     0.001385    Cartesian    0.06
     59 y          6.608853      6.626863     0.018010    Cartesian    0.27
     59 z          8.811805      8.821383     0.009578    Cartesian    0.11
     60 x          2.202951      2.214521     0.011570    Cartesian    0.53
     60 y         11.014756     11.034458     0.019702    Cartesian    0.18
     60 z          0.000000      0.000000     0.000000    Cartesian    0.00
     61 x         -4.405902     -4.406663    -0.000760    Cartesian    0.02
     61 y          0.000000      0.000000     0.000000    Cartesian    0.00
     61 z          8.811805      8.799022    -0.012783    Cartesian   -0.15
     62 x         -6.608853     -6.622016    -0.013162    Cartesian    0.20
     62 y          6.608853      6.615741     0.006888    Cartesian    0.10
     62 z          0.000000      0.000000     0.000000    Cartesian    0.00
     63 x         -8.811805     -8.793669     0.018136    Cartesian   -0.21
     63 y          0.000000      0.000000     0.000000    Cartesian    0.00
     63 z          0.000000      0.000000     0.000000    Cartesian    0.00
     64 x         11.014756     11.008444    -0.006312    Cartesian   -0.06
     64 y         -2.202951     -2.201638     0.001313    Cartesian   -0.06
     64 z          6.608853      6.601653    -0.007200    Cartesian   -0.11
     65 x          2.202951      2.198030    -0.004921    Cartesian   -0.22
     65 y         -2.202951     -2.202242     0.000709    Cartesian   -0.03
     65 z         11.014756     11.019705     0.004950    Cartesian    0.04
     66 x         -6.608853     -6.607142     0.001712    Cartesian   -0.03
     66 y          6.608853      6.607401    -0.001452    Cartesian   -0.02
     66 z         -2.202951     -2.202525     0.000426    Cartesian   -0.02
     67 x         13.217707     13.210236    -0.007471    Cartesian   -0.06
     67 y         -2.202951     -2.185810     0.017141    Cartesian   -0.78
     67 z         -2.202951     -2.185810     0.017141    Cartesian   -0.78
     68 x          8.811805      8.812205     0.000400    Cartesian    0.00
     68 y          6.608853      6.615610     0.006756    Cartesian    0.10
     68 z          6.608853      6.615610     0.006756    Cartesian    0.10
     69 x          4.405902      4.405738    -0.000164    Cartesian   -0.00
     69 y         -2.202951     -2.212865    -0.009914    Cartesian    0.45
     69 z         11.014756     11.014255    -0.000501    Cartesian   -0.00
     70 x          0.000000     -0.003689    -0.003689    Cartesian    0.00
     70 y         -2.202951     -2.202865     0.000086    Cartesian   -0.00
     70 z         11.014756     11.045250     0.030494    Cartesian    0.28
     71 x         -4.405902     -4.410026    -0.004124    Cartesian    0.09
     71 y          6.608853      6.618452     0.009599    Cartesian    0.15
     71 z          6.608853      6.618452     0.009599    Cartesian    0.15
     72 x         -8.811805     -8.819749    -0.007945    Cartesian    0.09
     72 y         -2.202951     -2.218319    -0.015368    Cartesian    0.70
     72 z         -2.202951     -2.218319    -0.015368    Cartesian    0.70
     73 x         13.217707     13.191313    -0.026394    Cartesian   -0.20
     73 y          0.000000      0.000000     0.000000    Cartesian    0.00
     73 z          4.405902      4.394396    -0.011506    Cartesian   -0.26
     74 x         11.014756     11.024824     0.010068    Cartesian    0.09
     74 y          6.608853      6.620243     0.011389    Cartesian    0.17
     74 z          4.405902      4.406559     0.000657    Cartesian    0.01
     75 x          8.811805      8.801593    -0.010211    Cartesian   -0.12
     75 y          4.405902      4.397213    -0.008689    Cartesian   -0.20
     75 z          8.811805      8.792911    -0.018894    Cartesian   -0.21
     76 x          6.608853      6.604904    -0.003950    Cartesian   -0.06
     76 y         11.014756     11.039476     0.024720    Cartesian    0.22
     76 z          0.000000      0.000000     0.000000    Cartesian    0.00
     77 x          6.608853      6.612855     0.004002    Cartesian    0.06
     77 y          6.608853      6.619155     0.010302    Cartesian    0.16
     77 z          8.811805      8.816212     0.004408    Cartesian    0.05
     78 x          2.202951      2.203160     0.000209    Cartesian    0.01
     78 y         11.014756     11.031413     0.016657    Cartesian    0.15
     78 z          4.405902      4.408660     0.002758    Cartesian    0.06
     79 x         -2.202951     -2.211889    -0.008938    Cartesian    0.41
     79 y         11.014756     11.027133     0.012377    Cartesian    0.11
     79 z          0.000000      0.000000     0.000000    Cartesian    0.00
     80 x         -2.202951     -2.210167    -0.007216    Cartesian    0.33
     80 y          8.811805      8.819287     0.007483    Cartesian    0.08
     80 z          6.608853      6.623192     0.014339    Cartesian    0.22
     81 x         -4.405902     -4.404627     0.001275    Cartesian   -0.03
     81 y          4.405902      4.398013    -0.007889    Cartesian   -0.18
     81 z          8.811805      8.796072    -0.015733    Cartesian   -0.18
     82 x         -6.608853     -6.624887    -0.016033    Cartesian    0.24
     82 y          6.608853      6.620501     0.011647    Cartesian    0.18
     82 z          4.405902      4.408504     0.002602    Cartesian    0.06
     83 x         -8.811805     -8.793044     0.018760    Cartesian   -0.21
     83 y          0.000000      0.000000     0.000000    Cartesian    0.00
     83 z          4.405902      4.399516    -0.006386    Cartesian   -0.14
     84 x          2.972640      2.972640     0.000000    Cartesian    0.00
     84 y          0.000000      0.000000     0.000000    Cartesian    0.00
     84 z          0.000000      0.000000     0.000000    Cartesian    0.00
     85 x          2.202951      2.112311    -0.090640    Cartesian   -4.11
     85 y         -2.202951     -2.280143    -0.077192    Cartesian    3.50
     85 z         -2.202951     -2.280143    -0.077192    Cartesian    3.50
     86 x          4.405902      4.344402    -0.061500    Cartesian   -1.40
     86 y          0.000000      0.000000     0.000000    Cartesian    0.00
     86 z          4.405902      4.360281    -0.045621    Cartesian   -1.04
     87 x          0.000000     -0.049888    -0.049888    Cartesian    0.00
     87 y          0.000000      0.000000     0.000000    Cartesian    0.00
     87 z          4.405902      4.382501    -0.023401    Cartesian   -0.53
     88 x          6.608853      6.535022    -0.073831    Cartesian   -1.12
     88 y         -2.202951     -2.177162     0.025789    Cartesian   -1.17
     88 z         -2.202951     -2.177162     0.025789    Cartesian   -1.17
     89 x         -2.202951     -2.199804     0.003147    Cartesian   -0.14
     89 y         -2.202951     -2.191185     0.011766    Cartesian   -0.53
     89 z         -2.202951     -2.191185     0.011766    Cartesian   -0.53
     90 x          8.811805      8.731296    -0.080508    Cartesian   -0.91
     90 y          0.000000      0.000000     0.000000    Cartesian    0.00
     90 z          0.000000      0.000000     0.000000    Cartesian    0.00
     91 x          4.405902      4.393016    -0.012886    Cartesian   -0.29
     91 y          4.405902      4.406130     0.000228    Cartesian    0.01
     91 z          4.405902      4.406130     0.000228    Cartesian    0.01
     92 x          0.000000     -0.047619    -0.047619    Cartesian    0.00
     92 y          4.405902      4.429363     0.023460    Cartesian    0.53
     92 z          4.405902      4.429363     0.023460    Cartesian    0.53
     93 x         -4.405902     -4.342144     0.063759    Cartesian   -1.45
     93 y          0.000000      0.000000     0.000000    Cartesian    0.00
     93 z          0.000000      0.000000     0.000000    Cartesian    0.00
     94 x          2.202951      2.192958    -0.009993    Cartesian   -0.45
     94 y         -2.202951     -2.209446    -0.006495    Cartesian    0.29
     94 z          6.608853      6.631292     0.022439    Cartesian    0.34
     95 x          8.811805      8.759849    -0.051955    Cartesian   -0.59
     95 y          0.000000      0.000000     0.000000    Cartesian    0.00
     95 z          4.405902      4.367861    -0.038041    Cartesian   -0.86
     96 x         -4.405902     -4.377377     0.028525    Cartesian   -0.65
     96 y          0.000000      0.000000     0.000000    Cartesian    0.00
     96 z          4.405902      4.364762    -0.041140    Cartesian   -0.93
     97 x          6.608853      6.590167    -0.018686    Cartesian   -0.28
     97 y         -2.202951     -2.200432     0.002519    Cartesian   -0.11
     97 z          6.608853      6.604645    -0.004208    Cartesian   -0.06
     98 x         -2.202951     -2.212940    -0.009989    Cartesian    0.45
     98 y         -2.202951     -2.204801    -0.001849    Cartesian    0.08
     98 z          6.608853      6.612989     0.004136    Cartesian    0.06
     99 x          8.811805      8.771162    -0.040643    Cartesian   -0.46
     99 y          4.405902      4.379319    -0.026583    Cartesian   -0.60
     99 z          4.405902      4.379319    -0.026583    Cartesian   -0.60
    100 x          4.405902      4.396219    -0.009683    Cartesian   -0.22
    100 y          0.000000      0.000000     0.000000    Cartesian    0.00
    100 z          8.811805      8.798926    -0.012878    Cartesian   -0.15
    101 x          0.000000     -0.007558    -0.007558    Cartesian    0.00
    101 y          0.000000      0.000000     0.000000    Cartesian    0.00
    101 z          8.811805      8.798821    -0.012984    Cartesian   -0.15
    102 x         -4.405902     -4.389323     0.016579    Cartesian   -0.38
    102 y          4.405902      4.374353    -0.031550    Cartesian   -0.72
    102 z          4.405902      4.374353    -0.031550    Cartesian   -0.72
    103 x         11.014756     10.989893    -0.024862    Cartesian   -0.23
    103 y         -2.202951     -2.204017    -0.001066    Cartesian    0.05
    103 z         -2.202951     -2.204017    -0.001066    Cartesian    0.05
    104 x          2.202951      2.198926    -0.004025    Cartesian   -0.18
    104 y          6.608853      6.618546     0.009693    Cartesian    0.15
    104 z          6.608853      6.618546     0.009693    Cartesian    0.15
    105 x         -6.608853     -6.615517    -0.006663    Cartesian    0.10
    105 y         -2.202951     -2.201242     0.001709    Cartesian   -0.08
    105 z         -2.202951     -2.201242     0.001709    Cartesian   -0.08
    106 x          4.405902      4.398501    -0.007401    Cartesian   -0.17
    106 y          4.405902      4.402001    -0.003902    Cartesian   -0.09
    106 z          8.811805      8.802156    -0.009649    Cartesian   -0.11
    107 x          0.000000     -0.003745    -0.003745    Cartesian    0.00
    107 y          4.405902      4.402857    -0.003045    Cartesian   -0.07
    107 z          8.811805      8.803863    -0.007941    Cartesian   -0.09
    108 x          6.608853      6.607689    -0.001165    Cartesian   -0.02
    108 y          6.608853      6.610917     0.002064    Cartesian    0.03
    108 z          6.608853      6.610917     0.002064    Cartesian    0.03
    109 x         -2.202951     -2.209728    -0.006776    Cartesian    0.31
    109 y          6.608853      6.617100     0.008246    Cartesian    0.12
    109 z          6.608853      6.617100     0.008246    Cartesian    0.12
    110 x         13.217707     13.194272    -0.023435    Cartesian   -0.18
    110 y          0.000000      0.000000     0.000000    Cartesian    0.00
    110 z          0.000000      0.000000     0.000000    Cartesian    0.00
    111 x          8.811805      8.798226    -0.013579    Cartesian   -0.15
    111 y          0.000000      0.000000     0.000000    Cartesian    0.00
    111 z          8.811805      8.795277    -0.016527    Cartesian   -0.19
    112 x         -4.405902     -4.406845    -0.000942    Cartesian    0.02
    112 y          0.000000      0.000000     0.000000    Cartesian    0.00
    112 z          8.811805      8.796474    -0.015331    Cartesian   -0.17
    113 x         -8.811805     -8.789113     0.022691    Cartesian   -0.26
    113 y          0.000000      0.000000     0.000000    Cartesian    0.00
    113 z          0.000000      0.000000     0.000000    Cartesian    0.00
    114 x         11.014756     11.008452    -0.006304    Cartesian   -0.06
    114 y         -2.202951     -2.201637     0.001314    Cartesian   -0.06
    114 z          6.608853      6.601642    -0.007212    Cartesian   -0.11
    115 x          2.202951      2.198021    -0.004931    Cartesian   -0.22
    115 y         -2.202951     -2.202239     0.000712    Cartesian   -0.03
    115 z         11.014756     11.019704     0.004948    Cartesian    0.04
    116 x         -6.608853     -6.607137     0.001717    Cartesian   -0.03
    116 y          6.608853      6.607408    -0.001446    Cartesian   -0.02
    116 z         -2.202951     -2.202525     0.000427    Cartesian   -0.02
    117 x         13.217707     13.188611    -0.029096    Cartesian   -0.22
    117 y          0.000000      0.000000     0.000000    Cartesian    0.00
    117 z          4.405902      4.393600    -0.012302    Cartesian   -0.28
    118 x          8.811805      8.800085    -0.011720    Cartesian   -0.13
    118 y          4.405902      4.396215    -0.009687    Cartesian   -0.22
    118 z          8.811805      8.791066    -0.020738    Cartesian   -0.24
    119 x         -4.405902     -4.404472     0.001430    Cartesian   -0.03
    119 y          4.405902      4.396200    -0.009703    Cartesian   -0.22
    119 z          8.811805      8.793228    -0.018577    Cartesian   -0.21
    120 x         -8.811805     -8.790386     0.021419    Cartesian   -0.24
    120 y          0.000000      0.000000     0.000000    Cartesian    0.00
    120 z          4.405902      4.397922    -0.007981    Cartesian   -0.18
--------------------------------------------------------------------------------


  Time to end of optimisation  =        9.7159 seconds


  Peak dynamic memory used =      76.10 MB 


  Timing analysis for GULP :

--------------------------------------------------------------------------------
  Task / Subroutine                                          Time (Seconds)
--------------------------------------------------------------------------------
  Calculation of reciprocal space energy and derivatives          0.0009
  Calculation of reciprocal space energy using symmetry           0.0013
  Calculation of real space energy and derivatives                0.0042
  Calculation of real space energy using symmetry                 0.0132
  Calculation for region 1 energy and derivatives (2-b)           6.0214
  Calculation for region 2a energy                                3.2167
  Calculation for region 2b energy                                0.0041
  Calculation and manipulation of Hessian matrix                  0.3296
  Calculation of matrix inversion                                 0.0230
  Symmetry generation of equivalent positions                     0.0050
--------------------------------------------------------------------------------
  Total CPU time                                                  9.7159
--------------------------------------------------------------------------------


  Dump file written as Na3OCl.grs


  Job Finished at 16:17.14  8th January    2021                               

