********************************************************************************
*                       GENERAL UTILITY LATTICE PROGRAM                        *
*                                 Julian Gale                                  *
*                       Curtin Institute for Computation                       *
*                    School of Molecular and Life Sciences                     *
*                    Curtin University, Western Australia                      *
********************************************************************************
* Version = 5.2.0 * Last modified =  10th September 2020                       *
********************************************************************************
*  optimise     - perform optimisation run                                     *
*  conp         - constant pressure calculation                                *
*  property     - calculate properties for final geometry                      *
*  defect       - perform defect calculation after bulk run                    *
*  compare      - compare initial and final structures                         *
********************************************************************************

  Job Started  at 16:17.06  8th January    2021                               

  Number of CPUs =     1


  Total number of configurations input =      1

********************************************************************************
*  Input for Configuration =   1                                               *
********************************************************************************

  Formula = ClONa3                                                      

  Number of irreducible atoms/shells =       5


  Total number atoms/shells =       7

  Dimensionality = 3               :  Bulk   


  Symmetry :

  Crystal family                   :  Cubic       
  Crystal class  (Groth - 1921)    :  Cubic Hexakisoctahedral              

  Space group (centrosymmetric)    :  P M 3 M         

  Patterson group                  :  P m -3 m 

  Cartesian lattice vectors (Angstroms) :

        4.504000    0.000000    0.000000
        0.000000    4.504000    0.000000
        0.000000    0.000000    4.504000

  Cell parameters (Angstroms/Degrees):

  a =       4.5040    alpha =  90.0000
  b =       4.5040    beta  =  90.0000
  c =       4.5040    gamma =  90.0000

  Initial cell volume =          91.368216 Angs**3

  Temperature of configuration =   0.00     K 

  Pressure of configuration =         0.000 GPa 

  Fractional coordinates of asymmetric unit :

--------------------------------------------------------------------------------
   No.  Atomic       x           y          z         Charge      Occupancy
        Label      (Frac)      (Frac)     (Frac)        (e)         (Frac)  
--------------------------------------------------------------------------------
      1 Cl    c    0.000000    0.000000    0.000000     1.48500    1.000000    
      2 O     c    0.500000    0.500000    0.500000     0.18300    1.000000    
      3 Na    c    0.500000    0.500000    0.000000     1.00000    1.000000    
      4 Cl    s    0.000000    0.000000    0.000000    -2.48500    1.000000    
      5 O     s    0.500000    0.500000    0.500000    -2.18300    1.000000    
--------------------------------------------------------------------------------


  Constraints : 

--------------------------------------------------------------------------------
  Constraint no.      Unconstrained     Constrained    Coefficient    Offset
                         Variable         Variable
--------------------------------------------------------------------------------
           1              Strain 1        Strain 2       1.00000      0.0000
           2              Strain 1        Strain 3       1.00000      0.0000
--------------------------------------------------------------------------------


********************************************************************************
*  General input information                                                   *
********************************************************************************

  Species output for all configurations : 

--------------------------------------------------------------------------------
  Species    Type    Atomic    Atomic    Charge       Radii (Angs)     Library
                     Number     Mass       (e)     Cova   Ionic  VDW   Symbol
--------------------------------------------------------------------------------
    Na       Core       11      22.99   1.000000   0.970  0.000  2.300          
    O        Core        8      16.00   0.183000   0.730  0.000  1.360          
    O        Shell       8       0.00  -2.183000   0.730  0.000  1.360          
    Cl       Core       17      35.45   1.485000   0.990  0.000  1.650          
    Cl       Shell      17       0.00  -2.485000   0.990  0.000  1.650          
    Mg       Core       12      24.31   0.415000   1.100  0.000  0.000          
    Mg       Shell      12       0.00   1.585000   1.100  0.000  0.000          
    Ca       Core       20      40.08  -1.135000   0.990  0.000  0.000          
    Ca       Shell      20       0.00   3.135000   0.990  0.000  0.000          
    Sr       Core       38      87.62  -1.251000   1.120  0.000  0.000          
    Sr       Shell      38       0.00   3.251000   1.120  0.000  0.000          
    Ba       Core       56     137.33  -7.203000   1.340  0.000  0.000          
    Ba       Shell      56       0.00   9.203000   1.340  0.000  0.000          
--------------------------------------------------------------------------------


  Lattice summation method               =    Ewald          (3-D)
                                         =    Parry          (2-D)
                                         =    Saunders et al (1-D)
  Accuracy factor for lattice sums       =   12.000


  Analytic derivatives to be used

  Time limit = Infinity

  Maximum range for interatomic potentials =    100000.000000 Angstroms

  General interatomic potentials :

--------------------------------------------------------------------------------
Atom  Types   Potential      Parameter       Value         Units   Cutoffs(Ang)
  1     2                                                            Min /  Max 
--------------------------------------------------------------------------------
O    c O    s Spring (c-s)  Spring k 2       593.71600    eV*Ang^-2 0.000  0.800
                            Spring k 4       0.0000000    eV*Ang^-4 
--------------------------------------------------------------------------------
Cl   c Cl   s Spring (c-s)  Spring k 2       29.380000    eV*Ang^-2 0.000  0.800
                            Spring k 4       0.0000000    eV*Ang^-4 
--------------------------------------------------------------------------------
Mg   c Mg   s Spring (c-s)  Spring k 2       361.60000    eV*Ang^-2 0.000  0.800
                            Spring k 4       0.0000000    eV*Ang^-4 
--------------------------------------------------------------------------------
Ca   c Ca   s Spring (c-s)  Spring k 2       110.20000    eV*Ang^-2 0.000  0.800
                            Spring k 4       0.0000000    eV*Ang^-4 
--------------------------------------------------------------------------------
Sr   c Sr   s Spring (c-s)  Spring k 2       71.700000    eV*Ang^-2 0.000  0.800
                            Spring k 4       0.0000000    eV*Ang^-4 
--------------------------------------------------------------------------------
Ba   c Ba   s Spring (c-s)  Spring k 2       495.20000    eV*Ang^-2 0.000  0.800
                            Spring k 4       0.0000000    eV*Ang^-4 
--------------------------------------------------------------------------------
Na   c Na   c Buckingham    Buckingham A     1788.1900    eV        0.000 12.000
                            Buckingham rho  0.15900000    Ang       
                            Buckingham C     0.0000000    eV*Ang^6  
--------------------------------------------------------------------------------
Na   c O    s Buckingham    Buckingham A     588.38000    eV        0.000 12.000
                            Buckingham rho  0.33800000    Ang       
                            Buckingham C     0.0000000    eV*Ang^6  
--------------------------------------------------------------------------------
Na   c Cl   s Buckingham    Buckingham A     1170.4100    eV        0.000 12.000
                            Buckingham rho  0.31500000    Ang       
                            Buckingham C     0.0000000    eV*Ang^6  
--------------------------------------------------------------------------------
O    s O    s Buckingham    Buckingham A     22764.300    eV        0.000 12.000
                            Buckingham rho  0.14900000    Ang       
                            Buckingham C     13.190000    eV*Ang^6  
--------------------------------------------------------------------------------
O    s Cl   s Buckingham    Buckingham A     8286.9100    eV        0.000 12.000
                            Buckingham rho  0.25900000    Ang       
                            Buckingham C     62.200000    eV*Ang^6  
--------------------------------------------------------------------------------
Cl   s Cl   s Buckingham    Buckingham A     1227.2000    eV        0.000 12.000
                            Buckingham rho  0.32100000    Ang       
                            Buckingham C     14.530000    eV*Ang^6  
--------------------------------------------------------------------------------
O    s Mg   s Buckingham    Buckingham A     1428.5000    eV        0.000 12.000
                            Buckingham rho  0.29450000    Ang       
                            Buckingham C     0.0000000    eV*Ang^6  
--------------------------------------------------------------------------------
Mg   s Cl   s Buckingham    Buckingham A     4914.5400    eV        0.000 12.000
                            Buckingham rho  0.25700000    Ang       
                            Buckingham C     0.0000000    eV*Ang^6  
--------------------------------------------------------------------------------
O    s Ca   s Buckingham    Buckingham A     1090.4000    eV        0.000 12.000
                            Buckingham rho  0.34370000    Ang       
                            Buckingham C     0.0000000    eV*Ang^6  
--------------------------------------------------------------------------------
Cl   s Ca   s Buckingham    Buckingham A     2302.0000    eV        0.000 12.000
                            Buckingham rho  0.34020000    Ang       
                            Buckingham C     0.0000000    eV*Ang^6  
--------------------------------------------------------------------------------
O    s Sr   s Buckingham    Buckingham A     959.10000    eV        0.000 12.000
                            Buckingham rho  0.37210000    Ang       
                            Buckingham C     0.0000000    eV*Ang^6  
--------------------------------------------------------------------------------
Cl   s Sr   s Buckingham    Buckingham A     2191.0900    eV        0.000 12.000
                            Buckingham rho  0.34570000    Ang       
                            Buckingham C     0.0000000    eV*Ang^6  
--------------------------------------------------------------------------------
O    s Ba   s Buckingham    Buckingham A     905.70000    eV        0.000 12.000
                            Buckingham rho  0.39760000    Ang       
                            Buckingham C     0.0000000    eV*Ang^6  
--------------------------------------------------------------------------------
Cl   s Ba   s Buckingham    Buckingham A     2704.5500    eV        0.000 12.000
                            Buckingham rho  0.35280000    Ang       
                            Buckingham C     0.0000000    eV*Ang^6  
--------------------------------------------------------------------------------

********************************************************************************
*  Output for configuration   1                                                *
********************************************************************************


  Components of energy : 

--------------------------------------------------------------------------------
  Interatomic potentials     =           4.94315381 eV    
  Monopole - monopole (real) =         -10.03624526 eV    
  Monopole - monopole (recip)=         -29.53581274 eV    
  Monopole - monopole (total)=         -39.57205800 eV    
--------------------------------------------------------------------------------
  Total lattice energy       =         -34.62890419 eV    
--------------------------------------------------------------------------------
  Total lattice energy       =           -3341.1599 kJ/(mole unit cells)
--------------------------------------------------------------------------------


  Number of variables =        1

  Maximum number of calculations  =          1000
  Maximum Hessian update interval =            10
  Maximum step size               =   1.000000000
  Maximum parameter tolerance     =   0.000010000
  Maximum function  tolerance     =   0.000010000
  Maximum gradient  tolerance     =   0.001000000
  Maximum gradient  component     =   0.010000000

  Symmetry constrained optimisation

  Symmetry used for second derivatives

  Cell parameters to be optimised using strains

  Newton-Raphson optimiser to be used

  BFGS hessian update to be used

  Lower half triangular hessian to be used

  Start of bulk optimisation :

  Cycle:      0 Energy:       -34.628904  Gnorm:      4.328237  CPU:    0.015
  ** Hessian calculated **
  Cycle:      1 Energy:       -34.677667  Gnorm:      0.044008  CPU:    0.020
  Cycle:      2 Energy:       -34.677671  Gnorm:      0.003653  CPU:    0.023


  **** Optimisation achieved ****


  Final energy =     -34.67767136 eV
  Final Gnorm  =       0.00000010

  Components of energy : 

--------------------------------------------------------------------------------
  Interatomic potentials     =           5.77546103 eV    
  Monopole - monopole (real) =         -10.25970290 eV    
  Monopole - monopole (recip)=         -30.19342950 eV    
  Monopole - monopole (total)=         -40.45313239 eV    
--------------------------------------------------------------------------------
  Total lattice energy       =         -34.67767136 eV    
--------------------------------------------------------------------------------
  Total lattice energy       =           -3345.8652 kJ/(mole unit cells)
--------------------------------------------------------------------------------

  Final asymmetric unit coordinates :

--------------------------------------------------------------------------------
   No.  Atomic        x           y           z         Radius
        Label       (Frac)      (Frac)      (Frac)       (Angs) 
--------------------------------------------------------------------------------
     1  Cl    c     0.000000    0.000000    0.000000    0.000000
     2  O     c     0.500000    0.500000    0.500000    0.000000
     3  Na    c     0.500000    0.500000    0.000000    0.000000
     4  Cl    s     0.000000    0.000000    0.000000    0.000000
     5  O     s     0.500000    0.500000    0.500000    0.000000
--------------------------------------------------------------------------------

  Final Cartesian lattice vectors (Angstroms) :

        4.405902    0.000000    0.000000
        0.000000    4.405902    0.000000
        0.000000    0.000000    4.405902


  Final cell parameters and derivatives :

--------------------------------------------------------------------------------
       a            4.405902 Angstrom     dE/de1(xx)     0.000000 eV/strain
       b            4.405902 Angstrom     dE/de2(yy)     0.000000 eV/strain
       c            4.405902 Angstrom     dE/de3(zz)     0.000000 eV/strain
       alpha       90.000000 Degrees      dE/de4(yz)     0.000000 eV/strain
       beta        90.000000 Degrees      dE/de5(xz)     0.000000 eV/strain
       gamma       90.000000 Degrees      dE/de6(xy)     0.000000 eV/strain
--------------------------------------------------------------------------------

  Primitive cell volume =            85.527266 Angs**3

  Density of cell =      2.338030 g/cm**3

  Non-primitive cell volume =            85.527266 Angs**3


  Final internal derivatives :

--------------------------------------------------------------------------------
   No.  Atomic          a             b             c           Radius
        Label          (eV)          (eV)          (eV)        (eV/Angs)
--------------------------------------------------------------------------------
      1 Cl    c       0.000000      0.000000      0.000000      0.000000
      2 O     c       0.000000      0.000000      0.000000      0.000000
      3 Na    c       0.000000      0.000000      0.000000      0.000000
      4 Cl    s       0.000000      0.000000      0.000000      0.000000
      5 O     s       0.000000      0.000000      0.000000      0.000000
--------------------------------------------------------------------------------
  Maximum abs         0.000000      0.000000      0.000000      0.000000
--------------------------------------------------------------------------------

  Comparison of initial and final structures : 

--------------------------------------------------------------------------------
  Parameter   Initial value   Final value   Difference    Units      Percent
--------------------------------------------------------------------------------
    Volume        91.368216     85.527266    -5.840950    Angs**3     -6.39
    a              4.504000      4.405902    -0.098098    Angstroms   -2.18
    b              4.504000      4.405902    -0.098098    Angstroms   -2.18
    c              4.504000      4.405902    -0.098098    Angstroms   -2.18
    alpha         90.000000     90.000000     0.000000    Degrees      0.00
    beta          90.000000     90.000000     0.000000    Degrees      0.00
    gamma         90.000000     90.000000     0.000000    Degrees      0.00
      1 x          0.000000      0.000000     0.000000    Fractional   0.00
      1 y          0.000000      0.000000     0.000000    Fractional   0.00
      1 z          0.000000      0.000000     0.000000    Fractional   0.00
      2 x          0.500000      0.500000     0.000000    Fractional   0.00
      2 y          0.500000      0.500000     0.000000    Fractional   0.00
      2 z          0.500000      0.500000     0.000000    Fractional   0.00
      3 x          0.500000      0.500000     0.000000    Fractional   0.00
      3 y          0.500000      0.500000     0.000000    Fractional   0.00
      3 z          0.000000      0.000000     0.000000    Fractional   0.00
      4 x          0.000000      0.000000     0.000000    Fractional   0.00
      4 y          0.000000      0.000000     0.000000    Fractional   0.00
      4 z          0.000000      0.000000     0.000000    Fractional   0.00
      5 x          0.500000      0.500000     0.000000    Fractional   0.00
      5 y          0.500000      0.500000     0.000000    Fractional   0.00
      5 z          0.500000      0.500000     0.000000    Fractional   0.00
--------------------------------------------------------------------------------


  Born effective charge tensors : 

-------------------------------------------------------------------------------
  Atom             x           y             z
-------------------------------------------------------------------------------
    1 Cl    x      -0.9918     -0.0000     -0.0000
            y      -0.0000     -0.9918     -0.0000
            z      -0.0000     -0.0000     -0.9918
-------------------------------------------------------------------------------
    2 O     x      -2.2939      0.0000      0.0000
            y       0.0000     -2.2939      0.0000
            z       0.0000      0.0000     -2.2939
-------------------------------------------------------------------------------
    3 Na    x       1.2243      0.0000      0.0000
            y       0.0000      1.2243     -0.0000
            z       0.0000      0.0000      0.8372
-------------------------------------------------------------------------------




  Elastic Constant Matrix: (Units=GPa)

-------------------------------------------------------------------------------
  Indices      1         2         3         4         5         6    
-------------------------------------------------------------------------------
       1     82.7680   24.3534   24.3534   -0.0000    0.0000   -0.0000
       2     24.3534   82.7680   24.3534    0.0000   -0.0000   -0.0000
       3     24.3534   24.3534   82.7680    0.0000   -0.0000    0.0000
       4     -0.0000    0.0000    0.0000   24.3534   -0.0000    0.0000
       5      0.0000   -0.0000   -0.0000   -0.0000   24.3534    0.0000
       6     -0.0000   -0.0000    0.0000    0.0000    0.0000   24.3534
-------------------------------------------------------------------------------


  Elastic Compliance Matrix: (Units=1/GPa)

-------------------------------------------------------------------------------
  Indices      1         2         3         4         5         6    
-------------------------------------------------------------------------------
       1    0.013948 -0.003171 -0.003171  0.000000 -0.000000  0.000000
       2   -0.003171  0.013948 -0.003171 -0.000000  0.000000 -0.000000
       3   -0.003171 -0.003171  0.013948 -0.000000  0.000000 -0.000000
       4    0.000000 -0.000000 -0.000000  0.041062  0.000000 -0.000000
       5   -0.000000  0.000000  0.000000  0.000000  0.041062 -0.000000
       6    0.000000 -0.000000 -0.000000 -0.000000 -0.000000  0.041062
-------------------------------------------------------------------------------

  Mechanical properties :

-------------------------------------------------------------------------------
  Convention :                    Reuss         Voigt         Hill
-------------------------------------------------------------------------------
  Bulk  Modulus (GPa)     =      43.82493      43.82493      43.82493
  Shear Modulus (GPa)     =      26.08758      26.29496      26.19127
-------------------------------------------------------------------------------
  Velocity S-wave (km/s)  =       3.34035       3.35360       3.34698
  Velocity P-wave (km/s)  =       5.79842       5.80861       5.80351
-------------------------------------------------------------------------------
  Compressibility (1/GPa) =    0.02281806
-------------------------------------------------------------------------------
  Stress axis :                     x             y             z
-------------------------------------------------------------------------------
  Youngs Moduli (GPa)     =      71.69479      71.69479      71.69479
-------------------------------------------------------------------------------
  Poissons Ratio (x)      =                     0.22734       0.22734
  Poissons Ratio (y)      =       0.22734                     0.22734
  Poissons Ratio (z)      =       0.22734       0.22734
-------------------------------------------------------------------------------


  Piezoelectric Strain Matrix: (Units=C/m**2)

-------------------------------------------------------------------------------
  Indices      1         2         3         4         5         6    
-------------------------------------------------------------------------------
       x    -0.00000  -0.00000  -0.00000  -0.00000   0.00000  -0.00000
       y     0.00000  -0.00000   0.00000   0.00000  -0.00000   0.00000
       z    -0.00000  -0.00000   0.00000  -0.00000   0.00000  -0.00000
-------------------------------------------------------------------------------


  Piezoelectric Stress Matrix: (Units=10**-11 C/N)

-------------------------------------------------------------------------------
  Indices      1         2         3         4         5         6    
-------------------------------------------------------------------------------
       x     0.00000  -0.00000  -0.00000  -0.00000   0.00000  -0.00000
       y     0.00000  -0.00000   0.00000   0.00000  -0.00000   0.00000
       z    -0.00000  -0.00000   0.00000  -0.00000   0.00000  -0.00000
-------------------------------------------------------------------------------


  Static dielectric constant tensor : 

-------------------------------------------------------------------------------
              x         y         z
-------------------------------------------------------------------------------
       x    11.08357   0.00000   0.00000
       y     0.00000  11.08357   0.00000
       z     0.00000   0.00000  11.08357
--------------------------------------------------------------------------------

  High frequency dielectric constant tensor : 

-------------------------------------------------------------------------------
              x         y         z
-------------------------------------------------------------------------------
       x     1.50771   0.00000   0.00000
       y     0.00000   1.50771   0.00000
       z     0.00000   0.00000   1.50771
-------------------------------------------------------------------------------

  Static refractive indices : 

-------------------------------------------------------------------------------
    1 =    3.32920      2 =    3.32920      3 =    3.32920
-------------------------------------------------------------------------------

  High frequency refractive indices : 

-------------------------------------------------------------------------------
    1 =    1.22789      2 =    1.22789      3 =    1.22789
-------------------------------------------------------------------------------


  Time to end of optimisation =       0.0336 seconds

********************************************************************************
*  Defect calculation for configuration   1 :                                  *
********************************************************************************

  Total number of defects =      3

  Total charge on defect  =   1.00

  Defect centre is at   2.2520   0.0000   0.0000  Angs

  Region 1 radius =  12.0000      Number of ions =    622

  Number of symmetry inequivalent region 1 ions  =    120

  Region 2 radius =  16.0000      Number of ions =    760

  Number of symmetry inequivalent region 2a ions =    123

  Region 2a mode = 4 : screened electrostatics due to region 1 
                       neglect correction to region 1 forces from 2a
                       region 2a displacements based on defects only

  Region 2a ions will only interact with defects in region 1

  Vacancies:

--------------------------------------------------------------------------------
    Specification type     Symbol/Number         x          y          z
--------------------------------------------------------------------------------
    Cartesian                                4.504000   0.000000   0.000000
    Cartesian                                0.000000   0.000000   0.000000
--------------------------------------------------------------------------------

  Interstitials:

--------------------------------------------------------------------------------
    Specification type     Symbol/Number         x          y          z
--------------------------------------------------------------------------------
    Atom/Cartesian          Cl               3.152800   0.000000   0.000000
--------------------------------------------------------------------------------


  Symmetry reduced region 1 (Relative to defect centre) :

--------------------------------------------------------------------------------
   No.   Atomic       x            y             z       Radius  Multiplicity   
         Label      (Angs)       (Angs)        (Angs)    (Angs)     
--------------------------------------------------------------------------------
     1  Cl    c      0.9008       0.0000       0.0000    0.0000     1    Defect
     2  Na    c     -0.0490 *    -2.2030 *     0.0000    0.0000     4          
     3  O     c     -0.0490 *    -2.2030 *    -2.2030    0.0000     4          
     4  Na    c      2.1539 *    -2.2030 *    -2.2030    0.0000     4          
     5  Na    c     -2.2520 *    -2.2030 *    -2.2030    0.0000     4          
     6  Na    c      4.3569 *    -2.2030 *     0.0000    0.0000     4          
     7  Cl    c      2.1539 *     0.0000       4.4059 *  0.0000     4          
     8  Na    c     -0.0490 *    -2.2030 *     4.4059 *  0.0000     8          
     9  Cl    c     -2.2520 *     0.0000       4.4059 *  0.0000     4          
    10  Na    c     -4.4550 *    -2.2030 *     0.0000    0.0000     4          
    11  O     c      4.3569 *    -2.2030 *    -2.2030    0.0000     4          
    12  O     c     -4.4550 *    -2.2030 *    -2.2030    0.0000     4          
    13  Cl    c      6.5598 *     0.0000       0.0000    0.0000     1          
    14  Na    c      4.3569 *     4.4059 *    -2.2030 *  0.0000     8          
    15  Cl    c      2.1539 *     4.4059 *     4.4059    0.0000     4          
    16  Na    c     -0.0490 *     6.6089 *     0.0000    0.0000     4          
    17  Cl    c     -2.2520 *     4.4059 *     4.4059    0.0000     4          
    18  Na    c     -4.4550 *    -2.2030 *     4.4059 *  0.0000     8          
    19  Cl    c     -6.6579 *     0.0000       0.0000    0.0000     1          
    20  O     c     -0.0490 *    -2.2030 *     6.6089 *  0.0000     8          
    21  Na    c      6.5598 *    -2.2030 *    -2.2030    0.0000     4          
    22  Na    c      2.1539 *    -2.2030 *     6.6089 *  0.0000     8          
    23  Na    c     -2.2520 *     6.6089 *    -2.2030 *  0.0000     8          
    24  Na    c     -6.6579 *    -2.2030 *    -2.2030    0.0000     4          
    25  Cl    c      6.5598 *     0.0000       4.4059 *  0.0000     4          
    26  Na    c      4.3569 *     6.6089 *     0.0000    0.0000     4          
    27  Na    c     -0.0490 *     6.6089 *     4.4059 *  0.0000     8          
    28  Na    c     -4.4550 *     6.6089 *     0.0000    0.0000     4          
    29  Cl    c     -6.6579 *     0.0000       4.4059 *  0.0000     4          
    30  O     c      4.3569 *    -2.2030 *     6.6089 *  0.0000     8          
    31  O     c     -4.4550 *    -2.2030 *     6.6089 *  0.0000     8          
    32  Na    c      8.7628 *    -2.2030 *     0.0000    0.0000     4          
    33  Cl    c      6.5598 *     4.4059 *     4.4059    0.0000     4          
    34  Na    c      4.3569 *     6.6089 *     4.4059 *  0.0000     8          
    35  Cl    c      2.1539 *     0.0000       8.8118 *  0.0000     4          
    36  Na    c     -0.0490 *    -2.2030 *     8.8118 *  0.0000     8          
    37  Cl    c     -2.2520 *     0.0000       8.8118 *  0.0000     4          
    38  Na    c     -4.4550 *     6.6089 *     4.4059 *  0.0000     8          
    39  Cl    c     -6.6579 *     4.4059 *     4.4059    0.0000     4          
    40  Na    c     -8.8609 *    -2.2030 *     0.0000    0.0000     4          
    41  O     c      8.7628 *    -2.2030 *    -2.2030    0.0000     4          
    42  O     c     -0.0490 *     6.6089 *     6.6089    0.0000     4          
    43  O     c     -8.8609 *    -2.2030 *    -2.2030    0.0000     4          
    44  Na    c      6.5598 *    -2.2030 *     6.6089 *  0.0000     8          
    45  Na    c      2.1539 *     6.6089 *     6.6089    0.0000     4          
    46  Na    c     -2.2520 *     6.6089 *     6.6089    0.0000     4          
    47  Na    c     -6.6579 *    -2.2030 *     6.6089 *  0.0000     8          
    48  Na    c      8.7628 *     4.4059 *    -2.2030 *  0.0000     8          
    49  Na    c      4.3569 *    -2.2030 *     8.8118 *  0.0000     8          
    50  Cl    c      2.1539 *     4.4059 *     8.8118 *  0.0000     8          
    51  Cl    c     -2.2520 *     4.4059 *     8.8118 *  0.0000     8          
    52  Na    c     -4.4550 *    -2.2030 *     8.8118 *  0.0000     8          
    53  Na    c     -8.8609 *    -2.2030 *     4.4059 *  0.0000     8          
    54  O     c      4.3569 *     6.6089 *     6.6089    0.0000     4          
    55  O     c     -4.4550 *     6.6089 *     6.6089    0.0000     4          
    56  Cl    c     10.9657 *     0.0000       0.0000    0.0000     1          
    57  Na    c      8.7628 *     6.6089 *     0.0000    0.0000     4          
    58  Cl    c      6.5598 *     0.0000       8.8118 *  0.0000     4          
    59  Na    c     -0.0490 *     6.6089 *     8.8118 *  0.0000     8          
    60  Na    c     -0.0490 *    11.0148 *     0.0000    0.0000     4          
    61  Cl    c     -6.6579 *     0.0000       8.8118 *  0.0000     4          
    62  Na    c     -8.8609 *     6.6089 *     0.0000    0.0000     4          
    63  Cl    c    -11.0638 *     0.0000       0.0000    0.0000     1          
    64  O     c      8.7628 *    -2.2030 *     6.6089 *  0.0000     8          
    65  O     c     -0.0490 *    -2.2030 *    11.0148 *  0.0000     8          
    66  O     c     -8.8609 *     6.6089 *    -2.2030 *  0.0000     8          
    67  Na    c     10.9657 *    -2.2030 *    -2.2030    0.0000     4          
    68  Na    c      6.5598 *     6.6089 *     6.6089    0.0000     4          
    69  Na    c      2.1539 *    -2.2030 *    11.0148 *  0.0000     8          
    70  Na    c     -2.2520 *    -2.2030 *    11.0148 *  0.0000     8          
    71  Na    c     -6.6579 *     6.6089 *     6.6089    0.0000     4          
    72  Na    c    -11.0638 *    -2.2030 *    -2.2030    0.0000     4          
    73  Cl    c     10.9657 *     0.0000       4.4059 *  0.0000     4          
    74  Na    c      8.7628 *     6.6089 *     4.4059 *  0.0000     8          
    75  Cl    c      6.5598 *     4.4059 *     8.8118 *  0.0000     8          
    76  Na    c      4.3569 *    11.0148 *     0.0000    0.0000     4          
    77  Na    c      4.3569 *     6.6089 *     8.8118 *  0.0000     8          
    78  Na    c     -0.0490 *    11.0148 *     4.4059 *  0.0000     8          
    79  Na    c     -4.4550 *    11.0148 *     0.0000    0.0000     4          
    80  Na    c     -4.4550 *     8.8118 *     6.6089 *  0.0000     8          
    81  Cl    c     -6.6579 *     4.4059 *     8.8118 *  0.0000     8          
    82  Na    c     -8.8609 *     6.6089 *     4.4059 *  0.0000     8          
    83  Cl    c    -11.0638 *     0.0000       4.4059 *  0.0000     4          
    84  Cl    s      0.9008       0.0000       0.0000    0.0000     1    Defect
    85  O     s     -0.0490 *    -2.2030 *    -2.2030    0.0000     4          
    86  Cl    s      2.1539 *     0.0000       4.4059 *  0.0000     4          
    87  Cl    s     -2.2520 *     0.0000       4.4059 *  0.0000     4          
    88  O     s      4.3569 *    -2.2030 *    -2.2030    0.0000     4          
    89  O     s     -4.4550 *    -2.2030 *    -2.2030    0.0000     4          
    90  Cl    s      6.5598 *     0.0000       0.0000    0.0000     1          
    91  Cl    s      2.1539 *     4.4059 *     4.4059    0.0000     4          
    92  Cl    s     -2.2520 *     4.4059 *     4.4059    0.0000     4          
    93  Cl    s     -6.6579 *     0.0000       0.0000    0.0000     1          
    94  O     s     -0.0490 *    -2.2030 *     6.6089 *  0.0000     8          
    95  Cl    s      6.5598 *     0.0000       4.4059 *  0.0000     4          
    96  Cl    s     -6.6579 *     0.0000       4.4059 *  0.0000     4          
    97  O     s      4.3569 *    -2.2030 *     6.6089 *  0.0000     8          
    98  O     s     -4.4550 *    -2.2030 *     6.6089 *  0.0000     8          
    99  Cl    s      6.5598 *     4.4059 *     4.4059    0.0000     4          
   100  Cl    s      2.1539 *     0.0000       8.8118 *  0.0000     4          
   101  Cl    s     -2.2520 *     0.0000       8.8118 *  0.0000     4          
   102  Cl    s     -6.6579 *     4.4059 *     4.4059    0.0000     4          
   103  O     s      8.7628 *    -2.2030 *    -2.2030    0.0000     4          
   104  O     s     -0.0490 *     6.6089 *     6.6089    0.0000     4          
   105  O     s     -8.8609 *    -2.2030 *    -2.2030    0.0000     4          
   106  Cl    s      2.1539 *     4.4059 *     8.8118 *  0.0000     8          
   107  Cl    s     -2.2520 *     4.4059 *     8.8118 *  0.0000     8          
   108  O     s      4.3569 *     6.6089 *     6.6089    0.0000     4          
   109  O     s     -4.4550 *     6.6089 *     6.6089    0.0000     4          
   110  Cl    s     10.9657 *     0.0000       0.0000    0.0000     1          
   111  Cl    s      6.5598 *     0.0000       8.8118 *  0.0000     4          
   112  Cl    s     -6.6579 *     0.0000       8.8118 *  0.0000     4          
   113  Cl    s    -11.0638 *     0.0000       0.0000    0.0000     1          
   114  O     s      8.7628 *    -2.2030 *     6.6089 *  0.0000     8          
   115  O     s     -0.0490 *    -2.2030 *    11.0148 *  0.0000     8          
   116  O     s     -8.8609 *     6.6089 *    -2.2030 *  0.0000     8          
   117  Cl    s     10.9657 *     0.0000       4.4059 *  0.0000     4          
   118  Cl    s      6.5598 *     4.4059 *     8.8118 *  0.0000     8          
   119  Cl    s     -6.6579 *     4.4059 *     8.8118 *  0.0000     8          
   120  Cl    s    -11.0638 *     0.0000       4.4059 *  0.0000     4          
--------------------------------------------------------------------------------


  Constraints on symmetry reduced coordinates :

--------------------------------------------------------------------------------
  Constraint no.      Unconstrained     Constrained    Coefficient    
                         Variable         Variable
--------------------------------------------------------------------------------
           1                 3 y             3 z         1.00000
           2                 4 y             4 z         1.00000
           3                 5 y             5 z         1.00000
           4                11 y            11 z         1.00000
           5                12 y            12 z         1.00000
           6                15 y            15 z         1.00000
           7                17 y            17 z         1.00000
           8                21 y            21 z         1.00000
           9                24 y            24 z         1.00000
          10                33 y            33 z         1.00000
          11                39 y            39 z         1.00000
          12                41 y            41 z         1.00000
          13                42 y            42 z         1.00000
          14                43 y            43 z         1.00000
          15                45 y            45 z         1.00000
          16                46 y            46 z         1.00000
          17                54 y            54 z         1.00000
          18                55 y            55 z         1.00000
          19                67 y            67 z         1.00000
          20                68 y            68 z         1.00000
          21                71 y            71 z         1.00000
          22                72 y            72 z         1.00000
          23                85 y            85 z         1.00000
          24                88 y            88 z         1.00000
          25                89 y            89 z         1.00000
          26                91 y            91 z         1.00000
          27                92 y            92 z         1.00000
          28                99 y            99 z         1.00000
          29               102 y           102 z         1.00000
          30               103 y           103 z         1.00000
          31               104 y           104 z         1.00000
          32               105 y           105 z         1.00000
          33               108 y           108 z         1.00000
          34               109 y           109 z         1.00000
--------------------------------------------------------------------------------


  Components of defect energy : 

--------------------------------------------------------------------------------
  Region 1 - region 1                   =     34.43023275 eV
  Region 1 - region 2a (unrelaxed)      =    -25.66656426 eV
  Region 1 - 2a (relaxed - correction)  =     -0.24120351 eV
  Region 1 (Total)                      =      8.52246499 eV
  Region 2a                             =      0.12064174 eV
  Region 2b                             =     -0.41290719 eV
--------------------------------------------------------------------------------
  Total defect energy                   =      8.23019953 eV
--------------------------------------------------------------------------------

  Largest displacement in region 2 =   0.0183 Angstroms


  Number of variables =      271

  Maximum number of calculations  =        1000
  Maximum Hessian update interval =          10
  Maximum step size               =   1.0000000
  Maximum parameter tolerance     =   0.0000100
  Maximum function  tolerance     =   0.0000100
  Maximum gradient  tolerance     =   0.0010000

  Symmetry adapted optimisation

  Symmetry to be used for second derivatives

  Newton-Raphson optimiser to be used

  BFGS hessian update to be used

  Lower half triangular hessian to be used

  Start of defect optimisation :

  Cycle:      0 Defect Energy:   8.230200  Gnorm:     0.090289  CPU:    1.610
  ** Hessian calculated **
  Cycle:      1 Defect Energy:   6.225589  Gnorm:     0.035266  CPU:    3.442
  Cycle:      2 Defect Energy:   5.845268  Gnorm:     0.003172  CPU:    4.659
  Cycle:      3 Defect Energy:   5.831926  Gnorm:     0.001860  CPU:    4.990
  Cycle:      4 Defect Energy:   5.828465  Gnorm:     0.001241  CPU:    5.320
  Cycle:      5 Defect Energy:   5.826564  Gnorm:     0.000842  CPU:    5.648
  Cycle:      6 Defect Energy:   5.825593  Gnorm:     0.000586  CPU:    5.986
  Cycle:      7 Defect Energy:   5.825131  Gnorm:     0.000400  CPU:    6.317
  Cycle:      8 Defect Energy:   5.824912  Gnorm:     0.000280  CPU:    6.655
  Cycle:      9 Defect Energy:   5.824813  Gnorm:     0.000194  CPU:    6.986
  Cycle:     10 Defect Energy:   5.824768  Gnorm:     0.000136  CPU:    7.324
  ** Hessian calculated **
  Cycle:     11 Defect Energy:   5.824749  Gnorm:     0.000095  CPU:    8.291
  Cycle:     12 Defect Energy:   5.824741  Gnorm:     0.000067  CPU:    8.627
  Cycle:     13 Defect Energy:   5.824738  Gnorm:     0.000047  CPU:    8.959


  **** Optimisation achieved ****


  Final defect energy  =        5.82473807
  Final defect Gnorm   =        0.00003268

  Components of defect energy : 

--------------------------------------------------------------------------------
  Region 1 - region 1                   =     29.55128313 eV
  Region 1 - region 2a (unrelaxed)      =    -23.22362590 eV
  Region 1 - 2a (relaxed - correction)  =     -0.18239467 eV
  Region 1 (Total)                      =      6.14526256 eV
  Region 2a                             =      0.09115194 eV
  Region 2b                             =     -0.41167643 eV
--------------------------------------------------------------------------------
  Total defect energy                   =      5.82473807 eV
--------------------------------------------------------------------------------

  Largest displacement in region 2 =   0.0183 Angstroms

  Final coordinates of region 1 :

--------------------------------------------------------------------------------
   No.  Atomic        x           y           z          Radius      Charge
        Label       (Angs)      (Angs)      (Angs)       (Angs)       (e) 
--------------------------------------------------------------------------------
     1  Cl    c     3.152800    0.000000    0.000000    0.000000    1.485000
     2  Na    c     2.083099   -2.386030    0.000000    0.000000    1.000000
     3  Na    c     2.083099    2.386030    0.000000    0.000000    1.000000
     4  Na    c     2.083099    0.000000   -2.386030    0.000000    1.000000
     5  Na    c     2.083099    0.000000    2.386030    0.000000    1.000000
     6  O     c     2.110350   -2.263150   -2.263150    0.000000    0.183000
     7  O     c     2.110350   -2.263150    2.263150    0.000000    0.183000
     8  O     c     2.110350    2.263150   -2.263150    0.000000    0.183000
     9  O     c     2.110350    2.263150    2.263150    0.000000    0.183000
    10  Na    c     4.318433   -2.123912   -2.123912    0.000000    1.000000
    11  Na    c     4.318433   -2.123912    2.123912    0.000000    1.000000
    12  Na    c     4.318433    2.123912   -2.123912    0.000000    1.000000
    13  Na    c     4.318433    2.123912    2.123912    0.000000    1.000000
    14  Na    c    -0.038070   -2.406257   -2.406257    0.000000    1.000000
    15  Na    c    -0.038070   -2.406257    2.406257    0.000000    1.000000
    16  Na    c    -0.038070    2.406257   -2.406257    0.000000    1.000000
    17  Na    c    -0.038070    2.406257    2.406257    0.000000    1.000000
    18  Na    c     6.725832   -2.286982    0.000000    0.000000    1.000000
    19  Na    c     6.725832    2.286982    0.000000    0.000000    1.000000
    20  Na    c     6.725832    0.000000   -2.286982    0.000000    1.000000
    21  Na    c     6.725832    0.000000    2.286982    0.000000    1.000000
    22  Cl    c     4.349510    0.000000    4.365521    0.000000    1.485000
    23  Cl    c     4.349510    0.000000   -4.365521    0.000000    1.485000
    24  Cl    c     4.349510    4.365521    0.000000    0.000000    1.485000
    25  Cl    c     4.349510   -4.365521    0.000000    0.000000    1.485000
    26  Na    c     2.265049   -2.262651    4.446711    0.000000    1.000000
    27  Na    c     2.265049   -2.262651   -4.446711    0.000000    1.000000
    28  Na    c     2.265049    2.262651    4.446711    0.000000    1.000000
    29  Na    c     2.265049    2.262651   -4.446711    0.000000    1.000000
    30  Na    c     2.265049    4.446711   -2.262651    0.000000    1.000000
    31  Na    c     2.265049    4.446711    2.262651    0.000000    1.000000
    32  Na    c     2.265049   -4.446711   -2.262651    0.000000    1.000000
    33  Na    c     2.265049   -4.446711    2.262651    0.000000    1.000000
    34  Cl    c    -0.049138    0.000000    4.383019    0.000000    1.485000
    35  Cl    c    -0.049138    0.000000   -4.383019    0.000000    1.485000
    36  Cl    c    -0.049138    4.383019    0.000000    0.000000    1.485000
    37  Cl    c    -0.049138   -4.383019    0.000000    0.000000    1.485000
    38  Na    c    -2.291863   -2.331719    0.000000    0.000000    1.000000
    39  Na    c    -2.291863    2.331719    0.000000    0.000000    1.000000
    40  Na    c    -2.291863    0.000000   -2.331719    0.000000    1.000000
    41  Na    c    -2.291863    0.000000    2.331719    0.000000    1.000000
    42  O     c     6.540515   -2.178075   -2.178075    0.000000    0.183000
    43  O     c     6.540515   -2.178075    2.178075    0.000000    0.183000
    44  O     c     6.540515    2.178075   -2.178075    0.000000    0.183000
    45  O     c     6.540515    2.178075    2.178075    0.000000    0.183000
    46  O     c    -2.201807   -2.190543   -2.190543    0.000000    0.183000
    47  O     c    -2.201807   -2.190543    2.190543    0.000000    0.183000
    48  O     c    -2.201807    2.190543   -2.190543    0.000000    0.183000
    49  O     c    -2.201807    2.190543    2.190543    0.000000    0.183000
    50  Cl    c     8.740883    0.000000    0.000000    0.000000    1.485000
    51  Na    c     6.494503    4.403036   -2.223734    0.000000    1.000000
    52  Na    c     6.494503    4.403036    2.223734    0.000000    1.000000
    53  Na    c     6.494503   -4.403036   -2.223734    0.000000    1.000000
    54  Na    c     6.494503   -4.403036    2.223734    0.000000    1.000000
    55  Na    c     6.494503   -2.223734    4.403036    0.000000    1.000000
    56  Na    c     6.494503   -2.223734   -4.403036    0.000000    1.000000
    57  Na    c     6.494503    2.223734    4.403036    0.000000    1.000000
    58  Na    c     6.494503    2.223734   -4.403036    0.000000    1.000000
    59  Cl    c     4.388556    4.404768    4.404768    0.000000    1.485000
    60  Cl    c     4.388556    4.404768   -4.404768    0.000000    1.485000
    61  Cl    c     4.388556   -4.404768    4.404768    0.000000    1.485000
    62  Cl    c     4.388556   -4.404768   -4.404768    0.000000    1.485000
    63  Na    c     2.188280    6.622503    0.000000    0.000000    1.000000
    64  Na    c     2.188280   -6.622503    0.000000    0.000000    1.000000
    65  Na    c     2.188280    0.000000    6.622503    0.000000    1.000000
    66  Na    c     2.188280    0.000000   -6.622503    0.000000    1.000000
    67  Cl    c    -0.041536    4.430765    4.430765    0.000000    1.485000
    68  Cl    c    -0.041536    4.430765   -4.430765    0.000000    1.485000
    69  Cl    c    -0.041536   -4.430765    4.430765    0.000000    1.485000
    70  Cl    c    -0.041536   -4.430765   -4.430765    0.000000    1.485000
    71  Na    c    -2.284582   -2.221455    4.425138    0.000000    1.000000
    72  Na    c    -2.284582   -2.221455   -4.425138    0.000000    1.000000
    73  Na    c    -2.284582    2.221455    4.425138    0.000000    1.000000
    74  Na    c    -2.284582    2.221455   -4.425138    0.000000    1.000000
    75  Na    c    -2.284582    4.425138   -2.221455    0.000000    1.000000
    76  Na    c    -2.284582    4.425138    2.221455    0.000000    1.000000
    77  Na    c    -2.284582   -4.425138   -2.221455    0.000000    1.000000
    78  Na    c    -2.284582   -4.425138    2.221455    0.000000    1.000000
    79  Cl    c    -4.348128    0.000000    0.000000    0.000000    1.485000
    80  O     c     2.192927   -2.208098    6.626329    0.000000    0.183000
    81  O     c     2.192927   -2.208098   -6.626329    0.000000    0.183000
    82  O     c     2.192927    2.208098    6.626329    0.000000    0.183000
    83  O     c     2.192927    2.208098   -6.626329    0.000000    0.183000
    84  O     c     2.192927    6.626329   -2.208098    0.000000    0.183000
    85  O     c     2.192927    6.626329    2.208098    0.000000    0.183000
    86  O     c     2.192927   -6.626329   -2.208098    0.000000    0.183000
    87  O     c     2.192927   -6.626329    2.208098    0.000000    0.183000
    88  Na    c     8.784326   -2.270608   -2.270608    0.000000    1.000000
    89  Na    c     8.784326   -2.270608    2.270608    0.000000    1.000000
    90  Na    c     8.784326    2.270608   -2.270608    0.000000    1.000000
    91  Na    c     8.784326    2.270608    2.270608    0.000000    1.000000
    92  Na    c     4.395388   -2.204592    6.703530    0.000000    1.000000
    93  Na    c     4.395388   -2.204592   -6.703530    0.000000    1.000000
    94  Na    c     4.395388    2.204592    6.703530    0.000000    1.000000
    95  Na    c     4.395388    2.204592   -6.703530    0.000000    1.000000
    96  Na    c     4.395388    6.703530   -2.204592    0.000000    1.000000
    97  Na    c     4.395388    6.703530    2.204592    0.000000    1.000000
    98  Na    c     4.395388   -6.703530   -2.204592    0.000000    1.000000
    99  Na    c     4.395388   -6.703530    2.204592    0.000000    1.000000
   100  Na    c    -0.010901    6.596617   -2.210327    0.000000    1.000000
   101  Na    c    -0.010901    6.596617    2.210327    0.000000    1.000000
   102  Na    c    -0.010901   -6.596617   -2.210327    0.000000    1.000000
   103  Na    c    -0.010901   -6.596617    2.210327    0.000000    1.000000
   104  Na    c    -0.010901   -2.210327    6.596617    0.000000    1.000000
   105  Na    c    -0.010901   -2.210327   -6.596617    0.000000    1.000000
   106  Na    c    -0.010901    2.210327    6.596617    0.000000    1.000000
   107  Na    c    -0.010901    2.210327   -6.596617    0.000000    1.000000
   108  Na    c    -4.428466   -2.182485   -2.182485    0.000000    1.000000
   109  Na    c    -4.428466   -2.182485    2.182485    0.000000    1.000000
   110  Na    c    -4.428466    2.182485   -2.182485    0.000000    1.000000
   111  Na    c    -4.428466    2.182485    2.182485    0.000000    1.000000
   112  Cl    c     8.768253    0.000000    4.377673    0.000000    1.485000
   113  Cl    c     8.768253    0.000000   -4.377673    0.000000    1.485000
   114  Cl    c     8.768253    4.377673    0.000000    0.000000    1.485000
   115  Cl    c     8.768253   -4.377673    0.000000    0.000000    1.485000
   116  Na    c     6.622250    6.605327    0.000000    0.000000    1.000000
   117  Na    c     6.622250   -6.605327    0.000000    0.000000    1.000000
   118  Na    c     6.622250    0.000000    6.605327    0.000000    1.000000
   119  Na    c     6.622250    0.000000   -6.605327    0.000000    1.000000
   120  Na    c     2.194960    6.654168    4.418665    0.000000    1.000000
   121  Na    c     2.194960    6.654168   -4.418665    0.000000    1.000000
   122  Na    c     2.194960   -6.654168    4.418665    0.000000    1.000000
   123  Na    c     2.194960   -6.654168   -4.418665    0.000000    1.000000
   124  Na    c     2.194960    4.418665    6.654168    0.000000    1.000000
   125  Na    c     2.194960    4.418665   -6.654168    0.000000    1.000000
   126  Na    c     2.194960   -4.418665    6.654168    0.000000    1.000000
   127  Na    c     2.194960   -4.418665   -6.654168    0.000000    1.000000
   128  Na    c    -2.206223    6.627614    0.000000    0.000000    1.000000
   129  Na    c    -2.206223   -6.627614    0.000000    0.000000    1.000000
   130  Na    c    -2.206223    0.000000    6.627614    0.000000    1.000000
   131  Na    c    -2.206223    0.000000   -6.627614    0.000000    1.000000
   132  Cl    c    -4.387948    0.000000    4.374590    0.000000    1.485000
   133  Cl    c    -4.387948    0.000000   -4.374590    0.000000    1.485000
   134  Cl    c    -4.387948    4.374590    0.000000    0.000000    1.485000
   135  Cl    c    -4.387948   -4.374590    0.000000    0.000000    1.485000
   136  O     c     6.590230   -2.200424    6.603959    0.000000    0.183000
   137  O     c     6.590230   -2.200424   -6.603959    0.000000    0.183000
   138  O     c     6.590230    2.200424    6.603959    0.000000    0.183000
   139  O     c     6.590230    2.200424   -6.603959    0.000000    0.183000
   140  O     c     6.590230    6.603959   -2.200424    0.000000    0.183000
   141  O     c     6.590230    6.603959    2.200424    0.000000    0.183000
   142  O     c     6.590230   -6.603959   -2.200424    0.000000    0.183000
   143  O     c     6.590230   -6.603959    2.200424    0.000000    0.183000
   144  O     c    -2.212594   -2.204603    6.612182    0.000000    0.183000
   145  O     c    -2.212594   -2.204603   -6.612182    0.000000    0.183000
   146  O     c    -2.212594    2.204603    6.612182    0.000000    0.183000
   147  O     c    -2.212594    2.204603   -6.612182    0.000000    0.183000
   148  O     c    -2.212594    6.612182   -2.204603    0.000000    0.183000
   149  O     c    -2.212594    6.612182    2.204603    0.000000    0.183000
   150  O     c    -2.212594   -6.612182   -2.204603    0.000000    0.183000
   151  O     c    -2.212594   -6.612182    2.204603    0.000000    0.183000
   152  Na    c    10.967391   -2.201821    0.000000    0.000000    1.000000
   153  Na    c    10.967391    2.201821    0.000000    0.000000    1.000000
   154  Na    c    10.967391    0.000000   -2.201821    0.000000    1.000000
   155  Na    c    10.967391    0.000000    2.201821    0.000000    1.000000
   156  Cl    c     8.774535    4.384711    4.384711    0.000000    1.485000
   157  Cl    c     8.774535    4.384711   -4.384711    0.000000    1.485000
   158  Cl    c     8.774535   -4.384711    4.384711    0.000000    1.485000
   159  Cl    c     8.774535   -4.384711   -4.384711    0.000000    1.485000
   160  Na    c     6.608313    6.622032    4.408342    0.000000    1.000000
   161  Na    c     6.608313    6.622032   -4.408342    0.000000    1.000000
   162  Na    c     6.608313   -6.622032    4.408342    0.000000    1.000000
   163  Na    c     6.608313   -6.622032   -4.408342    0.000000    1.000000
   164  Na    c     6.608313    4.408342    6.622032    0.000000    1.000000
   165  Na    c     6.608313    4.408342   -6.622032    0.000000    1.000000
   166  Na    c     6.608313   -4.408342    6.622032    0.000000    1.000000
   167  Na    c     6.608313   -4.408342   -6.622032    0.000000    1.000000
   168  Cl    c     4.396239    0.000000    8.802114    0.000000    1.485000
   169  Cl    c     4.396239    0.000000   -8.802114    0.000000    1.485000
   170  Cl    c     4.396239    8.802114    0.000000    0.000000    1.485000
   171  Cl    c     4.396239   -8.802114    0.000000    0.000000    1.485000
   172  Na    c     2.158943   -2.199840    8.827576    0.000000    1.000000
   173  Na    c     2.158943   -2.199840   -8.827576    0.000000    1.000000
   174  Na    c     2.158943    2.199840    8.827576    0.000000    1.000000
   175  Na    c     2.158943    2.199840   -8.827576    0.000000    1.000000
   176  Na    c     2.158943    8.827576   -2.199840    0.000000    1.000000
   177  Na    c     2.158943    8.827576    2.199840    0.000000    1.000000
   178  Na    c     2.158943   -8.827576   -2.199840    0.000000    1.000000
   179  Na    c     2.158943   -8.827576    2.199840    0.000000    1.000000
   180  Cl    c    -0.007749    0.000000    8.800051    0.000000    1.485000
   181  Cl    c    -0.007749    0.000000   -8.800051    0.000000    1.485000
   182  Cl    c    -0.007749    8.800051    0.000000    0.000000    1.485000
   183  Cl    c    -0.007749   -8.800051    0.000000    0.000000    1.485000
   184  Na    c    -2.202795    6.629208    4.415008    0.000000    1.000000
   185  Na    c    -2.202795    6.629208   -4.415008    0.000000    1.000000
   186  Na    c    -2.202795   -6.629208    4.415008    0.000000    1.000000
   187  Na    c    -2.202795   -6.629208   -4.415008    0.000000    1.000000
   188  Na    c    -2.202795    4.415008    6.629208    0.000000    1.000000
   189  Na    c    -2.202795    4.415008   -6.629208    0.000000    1.000000
   190  Na    c    -2.202795   -4.415008    6.629208    0.000000    1.000000
   191  Na    c    -2.202795   -4.415008   -6.629208    0.000000    1.000000
   192  Cl    c    -4.393864    4.379295    4.379295    0.000000    1.485000
   193  Cl    c    -4.393864    4.379295   -4.379295    0.000000    1.485000
   194  Cl    c    -4.393864   -4.379295    4.379295    0.000000    1.485000
   195  Cl    c    -4.393864   -4.379295   -4.379295    0.000000    1.485000
   196  Na    c    -6.661029   -2.209759    0.000000    0.000000    1.000000
   197  Na    c    -6.661029    2.209759    0.000000    0.000000    1.000000
   198  Na    c    -6.661029    0.000000   -2.209759    0.000000    1.000000
   199  Na    c    -6.661029    0.000000    2.209759    0.000000    1.000000
   200  O     c    10.991327   -2.204215   -2.204215    0.000000    0.183000
   201  O     c    10.991327   -2.204215    2.204215    0.000000    0.183000
   202  O     c    10.991327    2.204215   -2.204215    0.000000    0.183000
   203  O     c    10.991327    2.204215    2.204215    0.000000    0.183000
   204  O     c     2.198985    6.617003    6.617003    0.000000    0.183000
   205  O     c     2.198985    6.617003   -6.617003    0.000000    0.183000
   206  O     c     2.198985   -6.617003    6.617003    0.000000    0.183000
   207  O     c     2.198985   -6.617003   -6.617003    0.000000    0.183000
   208  O     c    -6.616347   -2.201358   -2.201358    0.000000    0.183000
   209  O     c    -6.616347   -2.201358    2.201358    0.000000    0.183000
   210  O     c    -6.616347    2.201358   -2.201358    0.000000    0.183000
   211  O     c    -6.616347    2.201358    2.201358    0.000000    0.183000
   212  Na    c     8.801559   -2.218133    6.570800    0.000000    1.000000
   213  Na    c     8.801559   -2.218133   -6.570800    0.000000    1.000000
   214  Na    c     8.801559    2.218133    6.570800    0.000000    1.000000
   215  Na    c     8.801559    2.218133   -6.570800    0.000000    1.000000
   216  Na    c     8.801559    6.570800   -2.218133    0.000000    1.000000
   217  Na    c     8.801559    6.570800    2.218133    0.000000    1.000000
   218  Na    c     8.801559   -6.570800   -2.218133    0.000000    1.000000
   219  Na    c     8.801559   -6.570800    2.218133    0.000000    1.000000
   220  Na    c     4.405213    6.615481    6.615481    0.000000    1.000000
   221  Na    c     4.405213    6.615481   -6.615481    0.000000    1.000000
   222  Na    c     4.405213   -6.615481    6.615481    0.000000    1.000000
   223  Na    c     4.405213   -6.615481   -6.615481    0.000000    1.000000
   224  Na    c    -0.005923    6.624136    6.624136    0.000000    1.000000
   225  Na    c    -0.005923    6.624136   -6.624136    0.000000    1.000000
   226  Na    c    -0.005923   -6.624136    6.624136    0.000000    1.000000
   227  Na    c    -0.005923   -6.624136   -6.624136    0.000000    1.000000
   228  Na    c    -4.412240   -2.215507    6.656658    0.000000    1.000000
   229  Na    c    -4.412240   -2.215507   -6.656658    0.000000    1.000000
   230  Na    c    -4.412240    2.215507    6.656658    0.000000    1.000000
   231  Na    c    -4.412240    2.215507   -6.656658    0.000000    1.000000
   232  Na    c    -4.412240    6.656658   -2.215507    0.000000    1.000000
   233  Na    c    -4.412240    6.656658    2.215507    0.000000    1.000000
   234  Na    c    -4.412240   -6.656658   -2.215507    0.000000    1.000000
   235  Na    c    -4.412240   -6.656658    2.215507    0.000000    1.000000
   236  Na    c    11.040948    4.404747   -2.198384    0.000000    1.000000
   237  Na    c    11.040948    4.404747    2.198384    0.000000    1.000000
   238  Na    c    11.040948   -4.404747   -2.198384    0.000000    1.000000
   239  Na    c    11.040948   -4.404747    2.198384    0.000000    1.000000
   240  Na    c    11.040948   -2.198384    4.404747    0.000000    1.000000
   241  Na    c    11.040948   -2.198384   -4.404747    0.000000    1.000000
   242  Na    c    11.040948    2.198384    4.404747    0.000000    1.000000
   243  Na    c    11.040948    2.198384   -4.404747    0.000000    1.000000
   244  Na    c     6.640949   -2.192623    8.814401    0.000000    1.000000
   245  Na    c     6.640949   -2.192623   -8.814401    0.000000    1.000000
   246  Na    c     6.640949    2.192623    8.814401    0.000000    1.000000
   247  Na    c     6.640949    2.192623   -8.814401    0.000000    1.000000
   248  Na    c     6.640949    8.814401   -2.192623    0.000000    1.000000
   249  Na    c     6.640949    8.814401    2.192623    0.000000    1.000000
   250  Na    c     6.640949   -8.814401   -2.192623    0.000000    1.000000
   251  Na    c     6.640949   -8.814401    2.192623    0.000000    1.000000
   252  Cl    c     4.398700    4.402699    8.804151    0.000000    1.485000
   253  Cl    c     4.398700    4.402699   -8.804151    0.000000    1.485000
   254  Cl    c     4.398700    8.804151    4.402699    0.000000    1.485000
   255  Cl    c     4.398700    8.804151   -4.402699    0.000000    1.485000
   256  Cl    c     4.398700   -4.402699    8.804151    0.000000    1.485000
   257  Cl    c     4.398700   -4.402699   -8.804151    0.000000    1.485000
   258  Cl    c     4.398700   -8.804151    4.402699    0.000000    1.485000
   259  Cl    c     4.398700   -8.804151   -4.402699    0.000000    1.485000
   260  Cl    c    -0.004263    4.403504    8.804975    0.000000    1.485000
   261  Cl    c    -0.004263    4.403504   -8.804975    0.000000    1.485000
   262  Cl    c    -0.004263    8.804975    4.403504    0.000000    1.485000
   263  Cl    c    -0.004263    8.804975   -4.403504    0.000000    1.485000
   264  Cl    c    -0.004263   -4.403504    8.804975    0.000000    1.485000
   265  Cl    c    -0.004263   -4.403504   -8.804975    0.000000    1.485000
   266  Cl    c    -0.004263   -8.804975    4.403504    0.000000    1.485000
   267  Cl    c    -0.004263   -8.804975   -4.403504    0.000000    1.485000
   268  Na    c    -2.186672   -2.203762    8.817987    0.000000    1.000000
   269  Na    c    -2.186672   -2.203762   -8.817987    0.000000    1.000000
   270  Na    c    -2.186672    2.203762    8.817987    0.000000    1.000000
   271  Na    c    -2.186672    2.203762   -8.817987    0.000000    1.000000
   272  Na    c    -2.186672    8.817987   -2.203762    0.000000    1.000000
   273  Na    c    -2.186672    8.817987    2.203762    0.000000    1.000000
   274  Na    c    -2.186672   -8.817987   -2.203762    0.000000    1.000000
   275  Na    c    -2.186672   -8.817987    2.203762    0.000000    1.000000
   276  Na    c    -6.606084   -2.209987    4.408771    0.000000    1.000000
   277  Na    c    -6.606084   -2.209987   -4.408771    0.000000    1.000000
   278  Na    c    -6.606084    2.209987    4.408771    0.000000    1.000000
   279  Na    c    -6.606084    2.209987   -4.408771    0.000000    1.000000
   280  Na    c    -6.606084    4.408771   -2.209987    0.000000    1.000000
   281  Na    c    -6.606084    4.408771    2.209987    0.000000    1.000000
   282  Na    c    -6.606084   -4.408771   -2.209987    0.000000    1.000000
   283  Na    c    -6.606084   -4.408771    2.209987    0.000000    1.000000
   284  O     c     6.607079    6.610403    6.610403    0.000000    0.183000
   285  O     c     6.607079    6.610403   -6.610403    0.000000    0.183000
   286  O     c     6.607079   -6.610403    6.610403    0.000000    0.183000
   287  O     c     6.607079   -6.610403   -6.610403    0.000000    0.183000
   288  O     c    -2.209048    6.616533    6.616533    0.000000    0.183000
   289  O     c    -2.209048    6.616533   -6.616533    0.000000    0.183000
   290  O     c    -2.209048   -6.616533    6.616533    0.000000    0.183000
   291  O     c    -2.209048   -6.616533   -6.616533    0.000000    0.183000
   292  Cl    c    13.194815    0.000000    0.000000    0.000000    1.485000
   293  Na    c    11.010305    6.626022    0.000000    0.000000    1.000000
   294  Na    c    11.010305   -6.626022    0.000000    0.000000    1.000000
   295  Na    c    11.010305    0.000000    6.626022    0.000000    1.000000
   296  Na    c    11.010305    0.000000   -6.626022    0.000000    1.000000
   297  Cl    c     8.799700    0.000000    8.796426    0.000000    1.485000
   298  Cl    c     8.799700    0.000000   -8.796426    0.000000    1.485000
   299  Cl    c     8.799700    8.796426    0.000000    0.000000    1.485000
   300  Cl    c     8.799700   -8.796426    0.000000    0.000000    1.485000
   301  Na    c     2.204540    6.624764    8.820523    0.000000    1.000000
   302  Na    c     2.204540    6.624764   -8.820523    0.000000    1.000000
   303  Na    c     2.204540   -6.624764    8.820523    0.000000    1.000000
   304  Na    c     2.204540   -6.624764   -8.820523    0.000000    1.000000
   305  Na    c     2.204540    8.820523    6.624764    0.000000    1.000000
   306  Na    c     2.204540    8.820523   -6.624764    0.000000    1.000000
   307  Na    c     2.204540   -8.820523    6.624764    0.000000    1.000000
   308  Na    c     2.204540   -8.820523   -6.624764    0.000000    1.000000
   309  Na    c     2.214506   11.032026    0.000000    0.000000    1.000000
   310  Na    c     2.214506  -11.032026    0.000000    0.000000    1.000000
   311  Na    c     2.214506    0.000000   11.032026    0.000000    1.000000
   312  Na    c     2.214506    0.000000  -11.032026    0.000000    1.000000
   313  Cl    c    -4.406575    0.000000    8.798642    0.000000    1.485000
   314  Cl    c    -4.406575    0.000000   -8.798642    0.000000    1.485000
   315  Cl    c    -4.406575    8.798642    0.000000    0.000000    1.485000
   316  Cl    c    -4.406575   -8.798642    0.000000    0.000000    1.485000
   317  Na    c    -6.622093    6.615872    0.000000    0.000000    1.000000
   318  Na    c    -6.622093   -6.615872    0.000000    0.000000    1.000000
   319  Na    c    -6.622093    0.000000    6.615872    0.000000    1.000000
   320  Na    c    -6.622093    0.000000   -6.615872    0.000000    1.000000
   321  Cl    c    -8.793947    0.000000    0.000000    0.000000    1.485000
   322  O     c    11.008610   -2.201724    6.601888    0.000000    0.183000
   323  O     c    11.008610   -2.201724   -6.601888    0.000000    0.183000
   324  O     c    11.008610    2.201724    6.601888    0.000000    0.183000
   325  O     c    11.008610    2.201724   -6.601888    0.000000    0.183000
   326  O     c    11.008610    6.601888   -2.201724    0.000000    0.183000
   327  O     c    11.008610    6.601888    2.201724    0.000000    0.183000
   328  O     c    11.008610   -6.601888   -2.201724    0.000000    0.183000
   329  O     c    11.008610   -6.601888    2.201724    0.000000    0.183000
   330  O     c     2.198018   -2.202381   11.018530    0.000000    0.183000
   331  O     c     2.198018   -2.202381  -11.018530    0.000000    0.183000
   332  O     c     2.198018    2.202381   11.018530    0.000000    0.183000
   333  O     c     2.198018    2.202381  -11.018530    0.000000    0.183000
   334  O     c     2.198018   11.018530   -2.202381    0.000000    0.183000
   335  O     c     2.198018   11.018530    2.202381    0.000000    0.183000
   336  O     c     2.198018  -11.018530   -2.202381    0.000000    0.183000
   337  O     c     2.198018  -11.018530    2.202381    0.000000    0.183000
   338  O     c    -6.607125    6.607472   -2.202517    0.000000    0.183000
   339  O     c    -6.607125    6.607472    2.202517    0.000000    0.183000
   340  O     c    -6.607125   -6.607472   -2.202517    0.000000    0.183000
   341  O     c    -6.607125   -6.607472    2.202517    0.000000    0.183000
   342  O     c    -6.607125   -2.202517    6.607472    0.000000    0.183000
   343  O     c    -6.607125   -2.202517   -6.607472    0.000000    0.183000
   344  O     c    -6.607125    2.202517    6.607472    0.000000    0.183000
   345  O     c    -6.607125    2.202517   -6.607472    0.000000    0.183000
   346  Na    c    13.210789   -2.185928   -2.185928    0.000000    1.000000
   347  Na    c    13.210789   -2.185928    2.185928    0.000000    1.000000
   348  Na    c    13.210789    2.185928   -2.185928    0.000000    1.000000
   349  Na    c    13.210789    2.185928    2.185928    0.000000    1.000000
   350  Na    c     8.812211    6.614984    6.614984    0.000000    1.000000
   351  Na    c     8.812211    6.614984   -6.614984    0.000000    1.000000
   352  Na    c     8.812211   -6.614984    6.614984    0.000000    1.000000
   353  Na    c     8.812211   -6.614984   -6.614984    0.000000    1.000000
   354  Na    c     4.405656   -2.212345   11.013839    0.000000    1.000000
   355  Na    c     4.405656   -2.212345  -11.013839    0.000000    1.000000
   356  Na    c     4.405656    2.212345   11.013839    0.000000    1.000000
   357  Na    c     4.405656    2.212345  -11.013839    0.000000    1.000000
   358  Na    c     4.405656   11.013839   -2.212345    0.000000    1.000000
   359  Na    c     4.405656   11.013839    2.212345    0.000000    1.000000
   360  Na    c     4.405656  -11.013839   -2.212345    0.000000    1.000000
   361  Na    c     4.405656  -11.013839    2.212345    0.000000    1.000000
   362  Na    c    -0.003392   -2.202838   11.044712    0.000000    1.000000
   363  Na    c    -0.003392   -2.202838  -11.044712    0.000000    1.000000
   364  Na    c    -0.003392    2.202838   11.044712    0.000000    1.000000
   365  Na    c    -0.003392    2.202838  -11.044712    0.000000    1.000000
   366  Na    c    -0.003392   11.044712   -2.202838    0.000000    1.000000
   367  Na    c    -0.003392   11.044712    2.202838    0.000000    1.000000
   368  Na    c    -0.003392  -11.044712   -2.202838    0.000000    1.000000
   369  Na    c    -0.003392  -11.044712    2.202838    0.000000    1.000000
   370  Na    c    -4.409810    6.618361    6.618361    0.000000    1.000000
   371  Na    c    -4.409810    6.618361   -6.618361    0.000000    1.000000
   372  Na    c    -4.409810   -6.618361    6.618361    0.000000    1.000000
   373  Na    c    -4.409810   -6.618361   -6.618361    0.000000    1.000000
   374  Na    c    -8.820129   -2.218639   -2.218639    0.000000    1.000000
   375  Na    c    -8.820129   -2.218639    2.218639    0.000000    1.000000
   376  Na    c    -8.820129    2.218639   -2.218639    0.000000    1.000000
   377  Na    c    -8.820129    2.218639    2.218639    0.000000    1.000000
   378  Cl    c    13.191821    0.000000    4.394851    0.000000    1.485000
   379  Cl    c    13.191821    0.000000   -4.394851    0.000000    1.485000
   380  Cl    c    13.191821    4.394851    0.000000    0.000000    1.485000
   381  Cl    c    13.191821   -4.394851    0.000000    0.000000    1.485000
   382  Na    c    11.024778    6.619917    4.406570    0.000000    1.000000
   383  Na    c    11.024778    6.619917   -4.406570    0.000000    1.000000
   384  Na    c    11.024778   -6.619917    4.406570    0.000000    1.000000
   385  Na    c    11.024778   -6.619917   -4.406570    0.000000    1.000000
   386  Na    c    11.024778    4.406570    6.619917    0.000000    1.000000
   387  Na    c    11.024778    4.406570   -6.619917    0.000000    1.000000
   388  Na    c    11.024778   -4.406570    6.619917    0.000000    1.000000
   389  Na    c    11.024778   -4.406570   -6.619917    0.000000    1.000000
   390  Cl    c     8.800968    4.397558    8.792974    0.000000    1.485000
   391  Cl    c     8.800968    4.397558   -8.792974    0.000000    1.485000
   392  Cl    c     8.800968    8.792974    4.397558    0.000000    1.485000
   393  Cl    c     8.800968    8.792974   -4.397558    0.000000    1.485000
   394  Cl    c     8.800968   -4.397558    8.792974    0.000000    1.485000
   395  Cl    c     8.800968   -4.397558   -8.792974    0.000000    1.485000
   396  Cl    c     8.800968   -8.792974    4.397558    0.000000    1.485000
   397  Cl    c     8.800968   -8.792974   -4.397558    0.000000    1.485000
   398  Na    c     6.605692   11.039404    0.000000    0.000000    1.000000
   399  Na    c     6.605692  -11.039404    0.000000    0.000000    1.000000
   400  Na    c     6.605692    0.000000   11.039404    0.000000    1.000000
   401  Na    c     6.605692    0.000000  -11.039404    0.000000    1.000000
   402  Na    c     6.613159    6.618981    8.816045    0.000000    1.000000
   403  Na    c     6.613159    6.618981   -8.816045    0.000000    1.000000
   404  Na    c     6.613159   -6.618981    8.816045    0.000000    1.000000
   405  Na    c     6.613159   -6.618981   -8.816045    0.000000    1.000000
   406  Na    c     6.613159    8.816045    6.618981    0.000000    1.000000
   407  Na    c     6.613159    8.816045   -6.618981    0.000000    1.000000
   408  Na    c     6.613159   -8.816045    6.618981    0.000000    1.000000
   409  Na    c     6.613159   -8.816045   -6.618981    0.000000    1.000000
   410  Na    c     2.203469   11.031258    4.408573    0.000000    1.000000
   411  Na    c     2.203469   11.031258   -4.408573    0.000000    1.000000
   412  Na    c     2.203469  -11.031258    4.408573    0.000000    1.000000
   413  Na    c     2.203469  -11.031258   -4.408573    0.000000    1.000000
   414  Na    c     2.203469    4.408573   11.031258    0.000000    1.000000
   415  Na    c     2.203469    4.408573  -11.031258    0.000000    1.000000
   416  Na    c     2.203469   -4.408573   11.031258    0.000000    1.000000
   417  Na    c     2.203469   -4.408573  -11.031258    0.000000    1.000000
   418  Na    c    -2.212018   11.027477    0.000000    0.000000    1.000000
   419  Na    c    -2.212018  -11.027477    0.000000    0.000000    1.000000
   420  Na    c    -2.212018    0.000000   11.027477    0.000000    1.000000
   421  Na    c    -2.212018    0.000000  -11.027477    0.000000    1.000000
   422  Na    c    -2.209735    8.819154    6.623065    0.000000    1.000000
   423  Na    c    -2.209735    8.819154   -6.623065    0.000000    1.000000
   424  Na    c    -2.209735   -8.819154    6.623065    0.000000    1.000000
   425  Na    c    -2.209735   -8.819154   -6.623065    0.000000    1.000000
   426  Na    c    -2.209735    6.623065    8.819154    0.000000    1.000000
   427  Na    c    -2.209735    6.623065   -8.819154    0.000000    1.000000
   428  Na    c    -2.209735   -6.623065    8.819154    0.000000    1.000000
   429  Na    c    -2.209735   -6.623065   -8.819154    0.000000    1.000000
   430  Cl    c    -4.404400    4.398119    8.795593    0.000000    1.485000
   431  Cl    c    -4.404400    4.398119   -8.795593    0.000000    1.485000
   432  Cl    c    -4.404400    8.795593    4.398119    0.000000    1.485000
   433  Cl    c    -4.404400    8.795593   -4.398119    0.000000    1.485000
   434  Cl    c    -4.404400   -4.398119    8.795593    0.000000    1.485000
   435  Cl    c    -4.404400   -4.398119   -8.795593    0.000000    1.485000
   436  Cl    c    -4.404400   -8.795593    4.398119    0.000000    1.485000
   437  Cl    c    -4.404400   -8.795593   -4.398119    0.000000    1.485000
   438  Na    c    -6.624759    6.620626    4.408515    0.000000    1.000000
   439  Na    c    -6.624759    6.620626   -4.408515    0.000000    1.000000
   440  Na    c    -6.624759   -6.620626    4.408515    0.000000    1.000000
   441  Na    c    -6.624759   -6.620626   -4.408515    0.000000    1.000000
   442  Na    c    -6.624759    4.408515    6.620626    0.000000    1.000000
   443  Na    c    -6.624759    4.408515   -6.620626    0.000000    1.000000
   444  Na    c    -6.624759   -4.408515    6.620626    0.000000    1.000000
   445  Na    c    -6.624759   -4.408515   -6.620626    0.000000    1.000000
   446  Cl    c    -8.793215    0.000000    4.399686    0.000000    1.485000
   447  Cl    c    -8.793215    0.000000   -4.399686    0.000000    1.485000
   448  Cl    c    -8.793215    4.399686    0.000000    0.000000    1.485000
   449  Cl    c    -8.793215   -4.399686    0.000000    0.000000    1.485000
   450  Cl    s     3.152800    0.000000    0.000000    0.000000   -2.485000
   451  O     s     2.110328   -2.263256   -2.263256    0.000000   -2.183000
   452  O     s     2.110328   -2.263256    2.263256    0.000000   -2.183000
   453  O     s     2.110328    2.263256   -2.263256    0.000000   -2.183000
   454  O     s     2.110328    2.263256    2.263256    0.000000   -2.183000
   455  Cl    s     4.343932    0.000000    4.358379    0.000000   -2.485000
   456  Cl    s     4.343932    0.000000   -4.358379    0.000000   -2.485000
   457  Cl    s     4.343932    4.358379    0.000000    0.000000   -2.485000
   458  Cl    s     4.343932   -4.358379    0.000000    0.000000   -2.485000
   459  Cl    s    -0.048593    0.000000    4.376196    0.000000   -2.485000
   460  Cl    s    -0.048593    0.000000   -4.376196    0.000000   -2.485000
   461  Cl    s    -0.048593    4.376196    0.000000    0.000000   -2.485000
   462  Cl    s    -0.048593   -4.376196    0.000000    0.000000   -2.485000
   463  O     s     6.540542   -2.178066   -2.178066    0.000000   -2.183000
   464  O     s     6.540542   -2.178066    2.178066    0.000000   -2.183000
   465  O     s     6.540542    2.178066   -2.178066    0.000000   -2.183000
   466  O     s     6.540542    2.178066    2.178066    0.000000   -2.183000
[...]
     40 y         -2.202951     -2.209759    -0.006808    Cartesian    0.31
     40 z          0.000000      0.000000     0.000000    Cartesian    0.00
     41 x         11.014756     10.991327    -0.023429    Cartesian   -0.21
     41 y         -2.202951     -2.204215    -0.001264    Cartesian    0.06
     41 z         -2.202951     -2.204215    -0.001264    Cartesian    0.06
     42 x          2.202951      2.198985    -0.003966    Cartesian   -0.18
     42 y          6.608853      6.617003     0.008150    Cartesian    0.12
     42 z          6.608853      6.617003     0.008150    Cartesian    0.12
     43 x         -6.608853     -6.616347    -0.007494    Cartesian    0.11
     43 y         -2.202951     -2.201358     0.001593    Cartesian   -0.07
     43 z         -2.202951     -2.201358     0.001593    Cartesian   -0.07
     44 x          8.811805      8.801559    -0.010246    Cartesian   -0.12
     44 y         -2.202951     -2.218133    -0.015182    Cartesian    0.69
     44 z          6.608853      6.570800    -0.038054    Cartesian   -0.58
     45 x          4.405902      4.405213    -0.000690    Cartesian   -0.02
     45 y          6.608853      6.615481     0.006628    Cartesian    0.10
     45 z          6.608853      6.615481     0.006628    Cartesian    0.10
     46 x          0.000000     -0.005923    -0.005923    Cartesian    0.00
     46 y          6.608853      6.624136     0.015282    Cartesian    0.23
     46 z          6.608853      6.624136     0.015282    Cartesian    0.23
     47 x         -4.405902     -4.412240    -0.006338    Cartesian    0.14
     47 y         -2.202951     -2.215507    -0.012556    Cartesian    0.57
     47 z          6.608853      6.656658     0.047804    Cartesian    0.72
     48 x         11.014756     11.040948     0.026192    Cartesian    0.24
     48 y          4.405902      4.404747    -0.001156    Cartesian   -0.03
     48 z         -2.202951     -2.198384     0.004567    Cartesian   -0.21
     49 x          6.608853      6.640949     0.032095    Cartesian    0.49
     49 y         -2.202951     -2.192623     0.010328    Cartesian   -0.47
     49 z          8.811805      8.814401     0.002597    Cartesian    0.03
     50 x          4.405902      4.398700    -0.007202    Cartesian   -0.16
     50 y          4.405902      4.402699    -0.003203    Cartesian   -0.07
     50 z          8.811805      8.804151    -0.007653    Cartesian   -0.09
     51 x          0.000000     -0.004263    -0.004263    Cartesian    0.00
     51 y          4.405902      4.403504    -0.002398    Cartesian   -0.05
     51 z          8.811805      8.804975    -0.006829    Cartesian   -0.08
     52 x         -2.202951     -2.186672     0.016280    Cartesian   -0.74
     52 y         -2.202951     -2.203762    -0.000811    Cartesian    0.04
     52 z          8.811805      8.817987     0.006183    Cartesian    0.07
     53 x         -6.608853     -6.606084     0.002769    Cartesian   -0.04
     53 y         -2.202951     -2.209987    -0.007036    Cartesian    0.32
     53 z          4.405902      4.408771     0.002869    Cartesian    0.07
     54 x          6.608853      6.607079    -0.001774    Cartesian   -0.03
     54 y          6.608853      6.610403     0.001550    Cartesian    0.02
     54 z          6.608853      6.610403     0.001550    Cartesian    0.02
     55 x         -2.202951     -2.209048    -0.006096    Cartesian    0.28
     55 y          6.608853      6.616533     0.007679    Cartesian    0.12
     55 z          6.608853      6.616533     0.007679    Cartesian    0.12
     56 x         13.217707     13.194815    -0.022892    Cartesian   -0.17
     56 y          0.000000      0.000000     0.000000    Cartesian    0.00
     56 z          0.000000      0.000000     0.000000    Cartesian    0.00
     57 x         11.014756     11.010305    -0.004450    Cartesian   -0.04
     57 y          6.608853      6.626022     0.017168    Cartesian    0.26
     57 z          0.000000      0.000000     0.000000    Cartesian    0.00
     58 x          8.811805      8.799700    -0.012105    Cartesian   -0.14
     58 y          0.000000      0.000000     0.000000    Cartesian    0.00
     58 z          8.811805      8.796426    -0.015379    Cartesian   -0.17
     59 x          2.202951      2.204540     0.001589    Cartesian    0.07
     59 y          6.608853      6.624764     0.015911    Cartesian    0.24
     59 z          8.811805      8.820523     0.008718    Cartesian    0.10
     60 x          2.202951      2.214506     0.011555    Cartesian    0.52
     60 y         11.014756     11.032026     0.017270    Cartesian    0.16
     60 z          0.000000      0.000000     0.000000    Cartesian    0.00
     61 x         -4.405902     -4.406575    -0.000673    Cartesian    0.02
     61 y          0.000000      0.000000     0.000000    Cartesian    0.00
     61 z          8.811805      8.798642    -0.013163    Cartesian   -0.15
     62 x         -6.608853     -6.622093    -0.013239    Cartesian    0.20
     62 y          6.608853      6.615872     0.007019    Cartesian    0.11
     62 z          0.000000      0.000000     0.000000    Cartesian    0.00
     63 x         -8.811805     -8.793947     0.017857    Cartesian   -0.20
     63 y          0.000000      0.000000     0.000000    Cartesian    0.00
     63 z          0.000000      0.000000     0.000000    Cartesian    0.00
     64 x         11.014756     11.008610    -0.006146    Cartesian   -0.06
     64 y         -2.202951     -2.201724     0.001227    Cartesian   -0.06
     64 z          6.608853      6.601888    -0.006965    Cartesian   -0.11
     65 x          2.202951      2.198018    -0.004933    Cartesian   -0.22
     65 y         -2.202951     -2.202381     0.000570    Cartesian   -0.03
     65 z         11.014756     11.018530     0.003774    Cartesian    0.03
     66 x         -6.608853     -6.607125     0.001728    Cartesian   -0.03
     66 y          6.608853      6.607472    -0.001382    Cartesian   -0.02
     66 z         -2.202951     -2.202517     0.000434    Cartesian   -0.02
     67 x         13.217707     13.210789    -0.006917    Cartesian   -0.05
     67 y         -2.202951     -2.185928     0.017023    Cartesian   -0.77
     67 z         -2.202951     -2.185928     0.017023    Cartesian   -0.77
     68 x          8.811805      8.812211     0.000407    Cartesian    0.00
     68 y          6.608853      6.614984     0.006130    Cartesian    0.09
     68 z          6.608853      6.614984     0.006130    Cartesian    0.09
     69 x          4.405902      4.405656    -0.000246    Cartesian   -0.01
     69 y         -2.202951     -2.212345    -0.009394    Cartesian    0.43
     69 z         11.014756     11.013839    -0.000917    Cartesian   -0.01
     70 x          0.000000     -0.003392    -0.003392    Cartesian    0.00
     70 y         -2.202951     -2.202838     0.000113    Cartesian   -0.01
     70 z         11.014756     11.044712     0.029956    Cartesian    0.27
     71 x         -4.405902     -4.409810    -0.003907    Cartesian    0.09
     71 y          6.608853      6.618361     0.009507    Cartesian    0.14
     71 z          6.608853      6.618361     0.009507    Cartesian    0.14
     72 x         -8.811805     -8.820129    -0.008324    Cartesian    0.09
     72 y         -2.202951     -2.218639    -0.015688    Cartesian    0.71
     72 z         -2.202951     -2.218639    -0.015688    Cartesian    0.71
     73 x         13.217707     13.191821    -0.025885    Cartesian   -0.20
     73 y          0.000000      0.000000     0.000000    Cartesian    0.00
     73 z          4.405902      4.394851    -0.011051    Cartesian   -0.25
     74 x         11.014756     11.024778     0.010022    Cartesian    0.09
     74 y          6.608853      6.619917     0.011064    Cartesian    0.17
     74 z          4.405902      4.406570     0.000668    Cartesian    0.02
     75 x          8.811805      8.800968    -0.010837    Cartesian   -0.12
     75 y          4.405902      4.397558    -0.008344    Cartesian   -0.19
     75 z          8.811805      8.792974    -0.018831    Cartesian   -0.21
     76 x          6.608853      6.605692    -0.003161    Cartesian   -0.05
     76 y         11.014756     11.039404     0.024649    Cartesian    0.22
     76 z          0.000000      0.000000     0.000000    Cartesian    0.00
     77 x          6.608853      6.613159     0.004305    Cartesian    0.07
     77 y          6.608853      6.618981     0.010127    Cartesian    0.15
     77 z          8.811805      8.816045     0.004241    Cartesian    0.05
     78 x          2.202951      2.203469     0.000518    Cartesian    0.02
     78 y         11.014756     11.031258     0.016502    Cartesian    0.15
     78 z          4.405902      4.408573     0.002670    Cartesian    0.06
     79 x         -2.202951     -2.212018    -0.009066    Cartesian    0.41
     79 y         11.014756     11.027477     0.012721    Cartesian    0.12
     79 z          0.000000      0.000000     0.000000    Cartesian    0.00
     80 x         -2.202951     -2.209735    -0.006784    Cartesian    0.31
     80 y          8.811805      8.819154     0.007349    Cartesian    0.08
     80 z          6.608853      6.623065     0.014212    Cartesian    0.22
     81 x         -4.405902     -4.404400     0.001503    Cartesian   -0.03
     81 y          4.405902      4.398119    -0.007784    Cartesian   -0.18
     81 z          8.811805      8.795593    -0.016211    Cartesian   -0.18
     82 x         -6.608853     -6.624759    -0.015905    Cartesian    0.24
     82 y          6.608853      6.620626     0.011773    Cartesian    0.18
     82 z          4.405902      4.408515     0.002613    Cartesian    0.06
     83 x         -8.811805     -8.793215     0.018590    Cartesian   -0.21
     83 y          0.000000      0.000000     0.000000    Cartesian    0.00
     83 z          4.405902      4.399686    -0.006216    Cartesian   -0.14
     84 x          3.152800      3.152800     0.000000    Cartesian    0.00
     84 y          0.000000      0.000000     0.000000    Cartesian    0.00
     84 z          0.000000      0.000000     0.000000    Cartesian    0.00
     85 x          2.202951      2.110328    -0.092623    Cartesian   -4.20
     85 y         -2.202951     -2.263256    -0.060304    Cartesian    2.74
     85 z         -2.202951     -2.263256    -0.060304    Cartesian    2.74
     86 x          4.405902      4.343932    -0.061970    Cartesian   -1.41
     86 y          0.000000      0.000000     0.000000    Cartesian    0.00
     86 z          4.405902      4.358379    -0.047524    Cartesian   -1.08
     87 x          0.000000     -0.048593    -0.048593    Cartesian    0.00
     87 y          0.000000      0.000000     0.000000    Cartesian    0.00
     87 z          4.405902      4.376196    -0.029706    Cartesian   -0.67
     88 x          6.608853      6.540542    -0.068311    Cartesian   -1.03
     88 y         -2.202951     -2.178066     0.024885    Cartesian   -1.13
     88 z         -2.202951     -2.178066     0.024885    Cartesian   -1.13
     89 x         -2.202951     -2.201821     0.001130    Cartesian   -0.05
     89 y         -2.202951     -2.190569     0.012382    Cartesian   -0.56
     89 z         -2.202951     -2.190569     0.012382    Cartesian   -0.56
     90 x          8.811805      8.735440    -0.076365    Cartesian   -0.87
     90 y          0.000000      0.000000     0.000000    Cartesian    0.00
     90 z          0.000000      0.000000     0.000000    Cartesian    0.00
     91 x          4.405902      4.387700    -0.018203    Cartesian   -0.41
     91 y          4.405902      4.400962    -0.004940    Cartesian   -0.11
     91 z          4.405902      4.400962    -0.004940    Cartesian   -0.11
     92 x          0.000000     -0.044745    -0.044745    Cartesian    0.00
     92 y          4.405902      4.423790     0.017888    Cartesian    0.41
     92 z          4.405902      4.423790     0.017888    Cartesian    0.41
     93 x         -4.405902     -4.344342     0.061560    Cartesian   -1.40
     93 y          0.000000      0.000000     0.000000    Cartesian    0.00
     93 z          0.000000      0.000000     0.000000    Cartesian    0.00
     94 x          2.202951      2.192934    -0.010017    Cartesian   -0.45
     94 y         -2.202951     -2.208103    -0.005152    Cartesian    0.23
     94 z          6.608853      6.626317     0.017464    Cartesian    0.26
     95 x          8.811805      8.762185    -0.049620    Cartesian   -0.56
     95 y          0.000000      0.000000     0.000000    Cartesian    0.00
     95 z          4.405902      4.369908    -0.035994    Cartesian   -0.82
     96 x         -4.405902     -4.378070     0.027832    Cartesian   -0.63
     96 y          0.000000      0.000000     0.000000    Cartesian    0.00
     96 z          4.405902      4.364796    -0.041106    Cartesian   -0.93
     97 x          6.608853      6.590214    -0.018639    Cartesian   -0.28
     97 y         -2.202951     -2.200422     0.002529    Cartesian   -0.11
     97 z          6.608853      6.603966    -0.004887    Cartesian   -0.07
     98 x         -2.202951     -2.212602    -0.009651    Cartesian    0.44
     98 y         -2.202951     -2.204603    -0.001651    Cartesian    0.07
     98 z          6.608853      6.612172     0.003318    Cartesian    0.05
     99 x          8.811805      8.772211    -0.039594    Cartesian   -0.45
     99 y          4.405902      4.381077    -0.024825    Cartesian   -0.56
     99 z          4.405902      4.381077    -0.024825    Cartesian   -0.56
    100 x          4.405902      4.395226    -0.010676    Cartesian   -0.24
    100 y          0.000000      0.000000     0.000000    Cartesian    0.00
    100 z          8.811805      8.797854    -0.013950    Cartesian   -0.16
    101 x          0.000000     -0.007592    -0.007592    Cartesian    0.00
    101 y          0.000000      0.000000     0.000000    Cartesian    0.00
    101 z          8.811805      8.797231    -0.014573    Cartesian   -0.17
    102 x         -4.405902     -4.389145     0.016758    Cartesian   -0.38
    102 y          4.405902      4.374173    -0.031729    Cartesian   -0.72
    102 z          4.405902      4.374173    -0.031729    Cartesian   -0.72
    103 x         11.014756     10.991325    -0.023431    Cartesian   -0.21
    103 y         -2.202951     -2.204226    -0.001275    Cartesian    0.06
    103 z         -2.202951     -2.204226    -0.001275    Cartesian    0.06
    104 x          2.202951      2.198984    -0.003967    Cartesian   -0.18
    104 y          6.608853      6.617007     0.008153    Cartesian    0.12
    104 z          6.608853      6.617007     0.008153    Cartesian    0.12
    105 x         -6.608853     -6.616341    -0.007487    Cartesian    0.11
    105 y         -2.202951     -2.201354     0.001597    Cartesian   -0.07
    105 z         -2.202951     -2.201354     0.001597    Cartesian   -0.07
    106 x          4.405902      4.397765    -0.008137    Cartesian   -0.18
    106 y          4.405902      4.401366    -0.004537    Cartesian   -0.10
    106 z          8.811805      8.801009    -0.010795    Cartesian   -0.12
    107 x          0.000000     -0.004059    -0.004059    Cartesian    0.00
    107 y          4.405902      4.402319    -0.003583    Cartesian   -0.08
    107 z          8.811805      8.802579    -0.009226    Cartesian   -0.10
    108 x          6.608853      6.607078    -0.001775    Cartesian   -0.03
    108 y          6.608853      6.610405     0.001551    Cartesian    0.02
    108 z          6.608853      6.610405     0.001551    Cartesian    0.02
    109 x         -2.202951     -2.209048    -0.006097    Cartesian    0.28
    109 y          6.608853      6.616537     0.007683    Cartesian    0.12
    109 z          6.608853      6.616537     0.007683    Cartesian    0.12
    110 x         13.217707     13.195073    -0.022634    Cartesian   -0.17
    110 y          0.000000      0.000000     0.000000    Cartesian    0.00
    110 z          0.000000      0.000000     0.000000    Cartesian    0.00
    111 x          8.811805      8.797626    -0.014178    Cartesian   -0.16
    111 y          0.000000      0.000000     0.000000    Cartesian    0.00
    111 z          8.811805      8.795498    -0.016307    Cartesian   -0.19
    112 x         -4.405902     -4.406809    -0.000907    Cartesian    0.02
    112 y          0.000000      0.000000     0.000000    Cartesian    0.00
    112 z          8.811805      8.796032    -0.015773    Cartesian   -0.18
    113 x         -8.811805     -8.789339     0.022466    Cartesian   -0.25
    113 y          0.000000      0.000000     0.000000    Cartesian    0.00
    113 z          0.000000      0.000000     0.000000    Cartesian    0.00
    114 x         11.014756     11.008618    -0.006138    Cartesian   -0.06
    114 y         -2.202951     -2.201723     0.001228    Cartesian   -0.06
    114 z          6.608853      6.601877    -0.006976    Cartesian   -0.11
    115 x          2.202951      2.198009    -0.004942    Cartesian   -0.22
    115 y         -2.202951     -2.202378     0.000573    Cartesian   -0.03
    115 z         11.014756     11.018529     0.003774    Cartesian    0.03
    116 x         -6.608853     -6.607120     0.001733    Cartesian   -0.03
    116 y          6.608853      6.607478    -0.001375    Cartesian   -0.02
    116 z         -2.202951     -2.202516     0.000435    Cartesian   -0.02
    117 x         13.217707     13.189117    -0.028589    Cartesian   -0.22
    117 y          0.000000      0.000000     0.000000    Cartesian    0.00
    117 z          4.405902      4.394092    -0.011810    Cartesian   -0.27
    118 x          8.811805      8.799383    -0.012422    Cartesian   -0.14
    118 y          4.405902      4.396635    -0.009267    Cartesian   -0.21
    118 z          8.811805      8.791127    -0.020678    Cartesian   -0.23
    119 x         -4.405902     -4.404241     0.001661    Cartesian   -0.04
    119 y          4.405902      4.396340    -0.009563    Cartesian   -0.22
    119 z          8.811805      8.792679    -0.019125    Cartesian   -0.22
    120 x         -8.811805     -8.790550     0.021255    Cartesian   -0.24
    120 y          0.000000      0.000000     0.000000    Cartesian    0.00
    120 z          4.405902      4.398088    -0.007814    Cartesian   -0.18
--------------------------------------------------------------------------------


  Time to end of optimisation  =        9.2904 seconds


  Peak dynamic memory used =      76.10 MB 


  Timing analysis for GULP :

--------------------------------------------------------------------------------
  Task / Subroutine                                          Time (Seconds)
--------------------------------------------------------------------------------
  Calculation of reciprocal space energy and derivatives          0.0008
  Calculation of reciprocal space energy using symmetry           0.0012
  Calculation of real space energy and derivatives                0.0042
  Calculation of real space energy using symmetry                 0.0129
  Calculation for region 1 energy and derivatives (2-b)           5.5923
  Calculation for region 2a energy                                3.2299
  Calculation for region 2b energy                                0.0033
  Calculation and manipulation of Hessian matrix                  0.3228
  Calculation of matrix inversion                                 0.0230
  Symmetry generation of equivalent positions                     0.0048
--------------------------------------------------------------------------------
  Total CPU time                                                  9.2905
--------------------------------------------------------------------------------


  Dump file written as Na3OCl.grs


  Job Finished at 16:17.15  8th January    2021                               

