********************************************************************************
*                       GENERAL UTILITY LATTICE PROGRAM                        *
*                                 Julian Gale                                  *
*                       Curtin Institute for Computation                       *
*                    School of Molecular and Life Sciences                     *
*                    Curtin University, Western Australia                      *
********************************************************************************
* Version = 5.2.0 * Last modified =  10th September 2020                       *
********************************************************************************
*  optimise     - perform optimisation run                                     *
*  conp         - constant pressure calculation                                *
*  property     - calculate properties for final geometry                      *
*  defect       - perform defect calculation after bulk run                    *
*  compare      - compare initial and final structures                         *
********************************************************************************

  Job Started  at 16:17.06  8th January    2021                               

  Number of CPUs =     1


  Total number of configurations input =      1

********************************************************************************
*  Input for Configuration =   1                                               *
********************************************************************************

  Formula = ClONa3                                                      

  Number of irreducible atoms/shells =       5


  Total number atoms/shells =       7

  Dimensionality = 3               :  Bulk   


  Symmetry :

  Crystal family                   :  Cubic       
  Crystal class  (Groth - 1921)    :  Cubic Hexakisoctahedral              

  Space group (centrosymmetric)    :  P M 3 M         

  Patterson group                  :  P m -3 m 

  Cartesian lattice vectors (Angstroms) :

        4.504000    0.000000    0.000000
        0.000000    4.504000    0.000000
        0.000000    0.000000    4.504000

  Cell parameters (Angstroms/Degrees):

  a =       4.5040    alpha =  90.0000
  b =       4.5040    beta  =  90.0000
  c =       4.5040    gamma =  90.0000

  Initial cell volume =          91.368216 Angs**3

  Temperature of configuration =   0.00     K 

  Pressure of configuration =         0.000 GPa 

  Fractional coordinates of asymmetric unit :

--------------------------------------------------------------------------------
   No.  Atomic       x           y          z         Charge      Occupancy
        Label      (Frac)      (Frac)     (Frac)        (e)         (Frac)  
--------------------------------------------------------------------------------
      1 Cl    c    0.000000    0.000000    0.000000     1.48500    1.000000    
      2 O     c    0.500000    0.500000    0.500000     0.18300    1.000000    
      3 Na    c    0.500000    0.500000    0.000000     1.00000    1.000000    
      4 Cl    s    0.000000    0.000000    0.000000    -2.48500    1.000000    
      5 O     s    0.500000    0.500000    0.500000    -2.18300    1.000000    
--------------------------------------------------------------------------------


  Constraints : 

--------------------------------------------------------------------------------
  Constraint no.      Unconstrained     Constrained    Coefficient    Offset
                         Variable         Variable
--------------------------------------------------------------------------------
           1              Strain 1        Strain 2       1.00000      0.0000
           2              Strain 1        Strain 3       1.00000      0.0000
--------------------------------------------------------------------------------


********************************************************************************
*  General input information                                                   *
********************************************************************************

  Species output for all configurations : 

--------------------------------------------------------------------------------
  Species    Type    Atomic    Atomic    Charge       Radii (Angs)     Library
                     Number     Mass       (e)     Cova   Ionic  VDW   Symbol
--------------------------------------------------------------------------------
    Na       Core       11      22.99   1.000000   0.970  0.000  2.300          
    O        Core        8      16.00   0.183000   0.730  0.000  1.360          
    O        Shell       8       0.00  -2.183000   0.730  0.000  1.360          
    Cl       Core       17      35.45   1.485000   0.990  0.000  1.650          
    Cl       Shell      17       0.00  -2.485000   0.990  0.000  1.650          
    Mg       Core       12      24.31   0.415000   1.100  0.000  0.000          
    Mg       Shell      12       0.00   1.585000   1.100  0.000  0.000          
    Ca       Core       20      40.08  -1.135000   0.990  0.000  0.000          
    Ca       Shell      20       0.00   3.135000   0.990  0.000  0.000          
    Sr       Core       38      87.62  -1.251000   1.120  0.000  0.000          
    Sr       Shell      38       0.00   3.251000   1.120  0.000  0.000          
    Ba       Core       56     137.33  -7.203000   1.340  0.000  0.000          
    Ba       Shell      56       0.00   9.203000   1.340  0.000  0.000          
--------------------------------------------------------------------------------


  Lattice summation method               =    Ewald          (3-D)
                                         =    Parry          (2-D)
                                         =    Saunders et al (1-D)
  Accuracy factor for lattice sums       =   12.000


  Analytic derivatives to be used

  Time limit = Infinity

  Maximum range for interatomic potentials =    100000.000000 Angstroms

  General interatomic potentials :

--------------------------------------------------------------------------------
Atom  Types   Potential      Parameter       Value         Units   Cutoffs(Ang)
  1     2                                                            Min /  Max 
--------------------------------------------------------------------------------
O    c O    s Spring (c-s)  Spring k 2       593.71600    eV*Ang^-2 0.000  0.800
                            Spring k 4       0.0000000    eV*Ang^-4 
--------------------------------------------------------------------------------
Cl   c Cl   s Spring (c-s)  Spring k 2       29.380000    eV*Ang^-2 0.000  0.800
                            Spring k 4       0.0000000    eV*Ang^-4 
--------------------------------------------------------------------------------
Mg   c Mg   s Spring (c-s)  Spring k 2       361.60000    eV*Ang^-2 0.000  0.800
                            Spring k 4       0.0000000    eV*Ang^-4 
--------------------------------------------------------------------------------
Ca   c Ca   s Spring (c-s)  Spring k 2       110.20000    eV*Ang^-2 0.000  0.800
                            Spring k 4       0.0000000    eV*Ang^-4 
--------------------------------------------------------------------------------
Sr   c Sr   s Spring (c-s)  Spring k 2       71.700000    eV*Ang^-2 0.000  0.800
                            Spring k 4       0.0000000    eV*Ang^-4 
--------------------------------------------------------------------------------
Ba   c Ba   s Spring (c-s)  Spring k 2       495.20000    eV*Ang^-2 0.000  0.800
                            Spring k 4       0.0000000    eV*Ang^-4 
--------------------------------------------------------------------------------
Na   c Na   c Buckingham    Buckingham A     1788.1900    eV        0.000 12.000
                            Buckingham rho  0.15900000    Ang       
                            Buckingham C     0.0000000    eV*Ang^6  
--------------------------------------------------------------------------------
Na   c O    s Buckingham    Buckingham A     588.38000    eV        0.000 12.000
                            Buckingham rho  0.33800000    Ang       
                            Buckingham C     0.0000000    eV*Ang^6  
--------------------------------------------------------------------------------
Na   c Cl   s Buckingham    Buckingham A     1170.4100    eV        0.000 12.000
                            Buckingham rho  0.31500000    Ang       
                            Buckingham C     0.0000000    eV*Ang^6  
--------------------------------------------------------------------------------
O    s O    s Buckingham    Buckingham A     22764.300    eV        0.000 12.000
                            Buckingham rho  0.14900000    Ang       
                            Buckingham C     13.190000    eV*Ang^6  
--------------------------------------------------------------------------------
O    s Cl   s Buckingham    Buckingham A     8286.9100    eV        0.000 12.000
                            Buckingham rho  0.25900000    Ang       
                            Buckingham C     62.200000    eV*Ang^6  
--------------------------------------------------------------------------------
Cl   s Cl   s Buckingham    Buckingham A     1227.2000    eV        0.000 12.000
                            Buckingham rho  0.32100000    Ang       
                            Buckingham C     14.530000    eV*Ang^6  
--------------------------------------------------------------------------------
O    s Mg   s Buckingham    Buckingham A     1428.5000    eV        0.000 12.000
                            Buckingham rho  0.29450000    Ang       
                            Buckingham C     0.0000000    eV*Ang^6  
--------------------------------------------------------------------------------
Mg   s Cl   s Buckingham    Buckingham A     4914.5400    eV        0.000 12.000
                            Buckingham rho  0.25700000    Ang       
                            Buckingham C     0.0000000    eV*Ang^6  
--------------------------------------------------------------------------------
O    s Ca   s Buckingham    Buckingham A     1090.4000    eV        0.000 12.000
                            Buckingham rho  0.34370000    Ang       
                            Buckingham C     0.0000000    eV*Ang^6  
--------------------------------------------------------------------------------
Cl   s Ca   s Buckingham    Buckingham A     2302.0000    eV        0.000 12.000
                            Buckingham rho  0.34020000    Ang       
                            Buckingham C     0.0000000    eV*Ang^6  
--------------------------------------------------------------------------------
O    s Sr   s Buckingham    Buckingham A     959.10000    eV        0.000 12.000
                            Buckingham rho  0.37210000    Ang       
                            Buckingham C     0.0000000    eV*Ang^6  
--------------------------------------------------------------------------------
Cl   s Sr   s Buckingham    Buckingham A     2191.0900    eV        0.000 12.000
                            Buckingham rho  0.34570000    Ang       
                            Buckingham C     0.0000000    eV*Ang^6  
--------------------------------------------------------------------------------
O    s Ba   s Buckingham    Buckingham A     905.70000    eV        0.000 12.000
                            Buckingham rho  0.39760000    Ang       
                            Buckingham C     0.0000000    eV*Ang^6  
--------------------------------------------------------------------------------
Cl   s Ba   s Buckingham    Buckingham A     2704.5500    eV        0.000 12.000
                            Buckingham rho  0.35280000    Ang       
                            Buckingham C     0.0000000    eV*Ang^6  
--------------------------------------------------------------------------------

********************************************************************************
*  Output for configuration   1                                                *
********************************************************************************


  Components of energy : 

--------------------------------------------------------------------------------
  Interatomic potentials     =           4.94315381 eV    
  Monopole - monopole (real) =         -10.03624526 eV    
  Monopole - monopole (recip)=         -29.53581274 eV    
  Monopole - monopole (total)=         -39.57205800 eV    
--------------------------------------------------------------------------------
  Total lattice energy       =         -34.62890419 eV    
--------------------------------------------------------------------------------
  Total lattice energy       =           -3341.1599 kJ/(mole unit cells)
--------------------------------------------------------------------------------


  Number of variables =        1

  Maximum number of calculations  =          1000
  Maximum Hessian update interval =            10
  Maximum step size               =   1.000000000
  Maximum parameter tolerance     =   0.000010000
  Maximum function  tolerance     =   0.000010000
  Maximum gradient  tolerance     =   0.001000000
  Maximum gradient  component     =   0.010000000

  Symmetry constrained optimisation

  Symmetry used for second derivatives

  Cell parameters to be optimised using strains

  Newton-Raphson optimiser to be used

  BFGS hessian update to be used

  Lower half triangular hessian to be used

  Start of bulk optimisation :

  Cycle:      0 Energy:       -34.628904  Gnorm:      4.328237  CPU:    0.016
  ** Hessian calculated **
  Cycle:      1 Energy:       -34.677667  Gnorm:      0.044008  CPU:    0.020
  Cycle:      2 Energy:       -34.677671  Gnorm:      0.003653  CPU:    0.023


  **** Optimisation achieved ****


  Final energy =     -34.67767136 eV
  Final Gnorm  =       0.00000010

  Components of energy : 

--------------------------------------------------------------------------------
  Interatomic potentials     =           5.77546103 eV    
  Monopole - monopole (real) =         -10.25970290 eV    
  Monopole - monopole (recip)=         -30.19342950 eV    
  Monopole - monopole (total)=         -40.45313239 eV    
--------------------------------------------------------------------------------
  Total lattice energy       =         -34.67767136 eV    
--------------------------------------------------------------------------------
  Total lattice energy       =           -3345.8652 kJ/(mole unit cells)
--------------------------------------------------------------------------------

  Final asymmetric unit coordinates :

--------------------------------------------------------------------------------
   No.  Atomic        x           y           z         Radius
        Label       (Frac)      (Frac)      (Frac)       (Angs) 
--------------------------------------------------------------------------------
     1  Cl    c     0.000000    0.000000    0.000000    0.000000
     2  O     c     0.500000    0.500000    0.500000    0.000000
     3  Na    c     0.500000    0.500000    0.000000    0.000000
     4  Cl    s     0.000000    0.000000    0.000000    0.000000
     5  O     s     0.500000    0.500000    0.500000    0.000000
--------------------------------------------------------------------------------

  Final Cartesian lattice vectors (Angstroms) :

        4.405902    0.000000    0.000000
        0.000000    4.405902    0.000000
        0.000000    0.000000    4.405902


  Final cell parameters and derivatives :

--------------------------------------------------------------------------------
       a            4.405902 Angstrom     dE/de1(xx)     0.000000 eV/strain
       b            4.405902 Angstrom     dE/de2(yy)     0.000000 eV/strain
       c            4.405902 Angstrom     dE/de3(zz)     0.000000 eV/strain
       alpha       90.000000 Degrees      dE/de4(yz)     0.000000 eV/strain
       beta        90.000000 Degrees      dE/de5(xz)     0.000000 eV/strain
       gamma       90.000000 Degrees      dE/de6(xy)     0.000000 eV/strain
--------------------------------------------------------------------------------

  Primitive cell volume =            85.527266 Angs**3

  Density of cell =      2.338030 g/cm**3

  Non-primitive cell volume =            85.527266 Angs**3


  Final internal derivatives :

--------------------------------------------------------------------------------
   No.  Atomic          a             b             c           Radius
        Label          (eV)          (eV)          (eV)        (eV/Angs)
--------------------------------------------------------------------------------
      1 Cl    c       0.000000      0.000000      0.000000      0.000000
      2 O     c       0.000000      0.000000      0.000000      0.000000
      3 Na    c       0.000000      0.000000      0.000000      0.000000
      4 Cl    s       0.000000      0.000000      0.000000      0.000000
      5 O     s       0.000000      0.000000      0.000000      0.000000
--------------------------------------------------------------------------------
  Maximum abs         0.000000      0.000000      0.000000      0.000000
--------------------------------------------------------------------------------

  Comparison of initial and final structures : 

--------------------------------------------------------------------------------
  Parameter   Initial value   Final value   Difference    Units      Percent
--------------------------------------------------------------------------------
    Volume        91.368216     85.527266    -5.840950    Angs**3     -6.39
    a              4.504000      4.405902    -0.098098    Angstroms   -2.18
    b              4.504000      4.405902    -0.098098    Angstroms   -2.18
    c              4.504000      4.405902    -0.098098    Angstroms   -2.18
    alpha         90.000000     90.000000     0.000000    Degrees      0.00
    beta          90.000000     90.000000     0.000000    Degrees      0.00
    gamma         90.000000     90.000000     0.000000    Degrees      0.00
      1 x          0.000000      0.000000     0.000000    Fractional   0.00
      1 y          0.000000      0.000000     0.000000    Fractional   0.00
      1 z          0.000000      0.000000     0.000000    Fractional   0.00
      2 x          0.500000      0.500000     0.000000    Fractional   0.00
      2 y          0.500000      0.500000     0.000000    Fractional   0.00
      2 z          0.500000      0.500000     0.000000    Fractional   0.00
      3 x          0.500000      0.500000     0.000000    Fractional   0.00
      3 y          0.500000      0.500000     0.000000    Fractional   0.00
      3 z          0.000000      0.000000     0.000000    Fractional   0.00
      4 x          0.000000      0.000000     0.000000    Fractional   0.00
      4 y          0.000000      0.000000     0.000000    Fractional   0.00
      4 z          0.000000      0.000000     0.000000    Fractional   0.00
      5 x          0.500000      0.500000     0.000000    Fractional   0.00
      5 y          0.500000      0.500000     0.000000    Fractional   0.00
      5 z          0.500000      0.500000     0.000000    Fractional   0.00
--------------------------------------------------------------------------------


  Born effective charge tensors : 

-------------------------------------------------------------------------------
  Atom             x           y             z
-------------------------------------------------------------------------------
    1 Cl    x      -0.9918     -0.0000     -0.0000
            y      -0.0000     -0.9918     -0.0000
            z      -0.0000     -0.0000     -0.9918
-------------------------------------------------------------------------------
    2 O     x      -2.2939      0.0000      0.0000
            y       0.0000     -2.2939      0.0000
            z       0.0000      0.0000     -2.2939
-------------------------------------------------------------------------------
    3 Na    x       1.2243      0.0000      0.0000
            y       0.0000      1.2243     -0.0000
            z       0.0000      0.0000      0.8372
-------------------------------------------------------------------------------




  Elastic Constant Matrix: (Units=GPa)

-------------------------------------------------------------------------------
  Indices      1         2         3         4         5         6    
-------------------------------------------------------------------------------
       1     82.7680   24.3534   24.3534   -0.0000    0.0000   -0.0000
       2     24.3534   82.7680   24.3534    0.0000   -0.0000   -0.0000
       3     24.3534   24.3534   82.7680    0.0000   -0.0000    0.0000
       4     -0.0000    0.0000    0.0000   24.3534   -0.0000    0.0000
       5      0.0000   -0.0000   -0.0000   -0.0000   24.3534    0.0000
       6     -0.0000   -0.0000    0.0000    0.0000    0.0000   24.3534
-------------------------------------------------------------------------------


  Elastic Compliance Matrix: (Units=1/GPa)

-------------------------------------------------------------------------------
  Indices      1         2         3         4         5         6    
-------------------------------------------------------------------------------
       1    0.013948 -0.003171 -0.003171  0.000000 -0.000000  0.000000
       2   -0.003171  0.013948 -0.003171 -0.000000  0.000000 -0.000000
       3   -0.003171 -0.003171  0.013948 -0.000000  0.000000 -0.000000
       4    0.000000 -0.000000 -0.000000  0.041062  0.000000 -0.000000
       5   -0.000000  0.000000  0.000000  0.000000  0.041062 -0.000000
       6    0.000000 -0.000000 -0.000000 -0.000000 -0.000000  0.041062
-------------------------------------------------------------------------------

  Mechanical properties :

-------------------------------------------------------------------------------
  Convention :                    Reuss         Voigt         Hill
-------------------------------------------------------------------------------
  Bulk  Modulus (GPa)     =      43.82493      43.82493      43.82493
  Shear Modulus (GPa)     =      26.08758      26.29496      26.19127
-------------------------------------------------------------------------------
  Velocity S-wave (km/s)  =       3.34035       3.35360       3.34698
  Velocity P-wave (km/s)  =       5.79842       5.80861       5.80351
-------------------------------------------------------------------------------
  Compressibility (1/GPa) =    0.02281806
-------------------------------------------------------------------------------
  Stress axis :                     x             y             z
-------------------------------------------------------------------------------
  Youngs Moduli (GPa)     =      71.69479      71.69479      71.69479
-------------------------------------------------------------------------------
  Poissons Ratio (x)      =                     0.22734       0.22734
  Poissons Ratio (y)      =       0.22734                     0.22734
  Poissons Ratio (z)      =       0.22734       0.22734
-------------------------------------------------------------------------------


  Piezoelectric Strain Matrix: (Units=C/m**2)

-------------------------------------------------------------------------------
  Indices      1         2         3         4         5         6    
-------------------------------------------------------------------------------
       x    -0.00000  -0.00000  -0.00000  -0.00000   0.00000  -0.00000
       y     0.00000  -0.00000   0.00000   0.00000  -0.00000   0.00000
       z    -0.00000  -0.00000   0.00000  -0.00000   0.00000  -0.00000
-------------------------------------------------------------------------------


  Piezoelectric Stress Matrix: (Units=10**-11 C/N)

-------------------------------------------------------------------------------
  Indices      1         2         3         4         5         6    
-------------------------------------------------------------------------------
       x     0.00000  -0.00000  -0.00000  -0.00000   0.00000  -0.00000
       y     0.00000  -0.00000   0.00000   0.00000  -0.00000   0.00000
       z    -0.00000  -0.00000   0.00000  -0.00000   0.00000  -0.00000
-------------------------------------------------------------------------------


  Static dielectric constant tensor : 

-------------------------------------------------------------------------------
              x         y         z
-------------------------------------------------------------------------------
       x    11.08357   0.00000   0.00000
       y     0.00000  11.08357   0.00000
       z     0.00000   0.00000  11.08357
--------------------------------------------------------------------------------

  High frequency dielectric constant tensor : 

-------------------------------------------------------------------------------
              x         y         z
-------------------------------------------------------------------------------
       x     1.50771   0.00000   0.00000
       y     0.00000   1.50771   0.00000
       z     0.00000   0.00000   1.50771
-------------------------------------------------------------------------------

  Static refractive indices : 

-------------------------------------------------------------------------------
    1 =    3.32920      2 =    3.32920      3 =    3.32920
-------------------------------------------------------------------------------

  High frequency refractive indices : 

-------------------------------------------------------------------------------
    1 =    1.22789      2 =    1.22789      3 =    1.22789
-------------------------------------------------------------------------------


  Time to end of optimisation =       0.0330 seconds

********************************************************************************
*  Defect calculation for configuration   1 :                                  *
********************************************************************************

  Total number of defects =      3

  Total charge on defect  =   1.00

  Defect centre is at   2.2520   0.0000   0.0000  Angs

  Region 1 radius =  12.0000      Number of ions =    622

  Number of symmetry inequivalent region 1 ions  =    120

  Region 2 radius =  16.0000      Number of ions =    760

  Number of symmetry inequivalent region 2a ions =    123

  Region 2a mode = 4 : screened electrostatics due to region 1 
                       neglect correction to region 1 forces from 2a
                       region 2a displacements based on defects only

  Region 2a ions will only interact with defects in region 1

  Vacancies:

--------------------------------------------------------------------------------
    Specification type     Symbol/Number         x          y          z
--------------------------------------------------------------------------------
    Cartesian                                4.504000   0.000000   0.000000
    Cartesian                                0.000000   0.000000   0.000000
--------------------------------------------------------------------------------

  Interstitials:

--------------------------------------------------------------------------------
    Specification type     Symbol/Number         x          y          z
--------------------------------------------------------------------------------
    Atom/Cartesian          Cl               3.242880   0.000000   0.000000
--------------------------------------------------------------------------------


  Symmetry reduced region 1 (Relative to defect centre) :

--------------------------------------------------------------------------------
   No.   Atomic       x            y             z       Radius  Multiplicity   
         Label      (Angs)       (Angs)        (Angs)    (Angs)     
--------------------------------------------------------------------------------
     1  Cl    c      0.9909       0.0000       0.0000    0.0000     1    Defect
     2  Na    c     -0.0490 *    -2.2030 *     0.0000    0.0000     4          
     3  O     c     -0.0490 *    -2.2030 *    -2.2030    0.0000     4          
     4  Na    c      2.1539 *    -2.2030 *    -2.2030    0.0000     4          
     5  Na    c     -2.2520 *    -2.2030 *    -2.2030    0.0000     4          
     6  Na    c      4.3569 *    -2.2030 *     0.0000    0.0000     4          
     7  Cl    c      2.1539 *     0.0000       4.4059 *  0.0000     4          
     8  Na    c     -0.0490 *    -2.2030 *     4.4059 *  0.0000     8          
     9  Cl    c     -2.2520 *     0.0000       4.4059 *  0.0000     4          
    10  Na    c     -4.4550 *    -2.2030 *     0.0000    0.0000     4          
    11  O     c      4.3569 *    -2.2030 *    -2.2030    0.0000     4          
    12  O     c     -4.4550 *    -2.2030 *    -2.2030    0.0000     4          
    13  Cl    c      6.5598 *     0.0000       0.0000    0.0000     1          
    14  Na    c      4.3569 *     4.4059 *    -2.2030 *  0.0000     8          
    15  Cl    c      2.1539 *     4.4059 *     4.4059    0.0000     4          
    16  Na    c     -0.0490 *     6.6089 *     0.0000    0.0000     4          
    17  Cl    c     -2.2520 *     4.4059 *     4.4059    0.0000     4          
    18  Na    c     -4.4550 *    -2.2030 *     4.4059 *  0.0000     8          
    19  Cl    c     -6.6579 *     0.0000       0.0000    0.0000     1          
    20  O     c     -0.0490 *    -2.2030 *     6.6089 *  0.0000     8          
    21  Na    c      6.5598 *    -2.2030 *    -2.2030    0.0000     4          
    22  Na    c      2.1539 *    -2.2030 *     6.6089 *  0.0000     8          
    23  Na    c     -2.2520 *     6.6089 *    -2.2030 *  0.0000     8          
    24  Na    c     -6.6579 *    -2.2030 *    -2.2030    0.0000     4          
    25  Cl    c      6.5598 *     0.0000       4.4059 *  0.0000     4          
    26  Na    c      4.3569 *     6.6089 *     0.0000    0.0000     4          
    27  Na    c     -0.0490 *     6.6089 *     4.4059 *  0.0000     8          
    28  Na    c     -4.4550 *     6.6089 *     0.0000    0.0000     4          
    29  Cl    c     -6.6579 *     0.0000       4.4059 *  0.0000     4          
    30  O     c      4.3569 *    -2.2030 *     6.6089 *  0.0000     8          
    31  O     c     -4.4550 *    -2.2030 *     6.6089 *  0.0000     8          
    32  Na    c      8.7628 *    -2.2030 *     0.0000    0.0000     4          
    33  Cl    c      6.5598 *     4.4059 *     4.4059    0.0000     4          
    34  Na    c      4.3569 *     6.6089 *     4.4059 *  0.0000     8          
    35  Cl    c      2.1539 *     0.0000       8.8118 *  0.0000     4          
    36  Na    c     -0.0490 *    -2.2030 *     8.8118 *  0.0000     8          
    37  Cl    c     -2.2520 *     0.0000       8.8118 *  0.0000     4          
    38  Na    c     -4.4550 *     6.6089 *     4.4059 *  0.0000     8          
    39  Cl    c     -6.6579 *     4.4059 *     4.4059    0.0000     4          
    40  Na    c     -8.8609 *    -2.2030 *     0.0000    0.0000     4          
    41  O     c      8.7628 *    -2.2030 *    -2.2030    0.0000     4          
    42  O     c     -0.0490 *     6.6089 *     6.6089    0.0000     4          
    43  O     c     -8.8609 *    -2.2030 *    -2.2030    0.0000     4          
    44  Na    c      6.5598 *    -2.2030 *     6.6089 *  0.0000     8          
    45  Na    c      2.1539 *     6.6089 *     6.6089    0.0000     4          
    46  Na    c     -2.2520 *     6.6089 *     6.6089    0.0000     4          
    47  Na    c     -6.6579 *    -2.2030 *     6.6089 *  0.0000     8          
    48  Na    c      8.7628 *     4.4059 *    -2.2030 *  0.0000     8          
    49  Na    c      4.3569 *    -2.2030 *     8.8118 *  0.0000     8          
    50  Cl    c      2.1539 *     4.4059 *     8.8118 *  0.0000     8          
    51  Cl    c     -2.2520 *     4.4059 *     8.8118 *  0.0000     8          
    52  Na    c     -4.4550 *    -2.2030 *     8.8118 *  0.0000     8          
    53  Na    c     -8.8609 *    -2.2030 *     4.4059 *  0.0000     8          
    54  O     c      4.3569 *     6.6089 *     6.6089    0.0000     4          
    55  O     c     -4.4550 *     6.6089 *     6.6089    0.0000     4          
    56  Cl    c     10.9657 *     0.0000       0.0000    0.0000     1          
    57  Na    c      8.7628 *     6.6089 *     0.0000    0.0000     4          
    58  Cl    c      6.5598 *     0.0000       8.8118 *  0.0000     4          
    59  Na    c     -0.0490 *     6.6089 *     8.8118 *  0.0000     8          
    60  Na    c     -0.0490 *    11.0148 *     0.0000    0.0000     4          
    61  Cl    c     -6.6579 *     0.0000       8.8118 *  0.0000     4          
    62  Na    c     -8.8609 *     6.6089 *     0.0000    0.0000     4          
    63  Cl    c    -11.0638 *     0.0000       0.0000    0.0000     1          
    64  O     c      8.7628 *    -2.2030 *     6.6089 *  0.0000     8          
    65  O     c     -0.0490 *    -2.2030 *    11.0148 *  0.0000     8          
    66  O     c     -8.8609 *     6.6089 *    -2.2030 *  0.0000     8          
    67  Na    c     10.9657 *    -2.2030 *    -2.2030    0.0000     4          
    68  Na    c      6.5598 *     6.6089 *     6.6089    0.0000     4          
    69  Na    c      2.1539 *    -2.2030 *    11.0148 *  0.0000     8          
    70  Na    c     -2.2520 *    -2.2030 *    11.0148 *  0.0000     8          
    71  Na    c     -6.6579 *     6.6089 *     6.6089    0.0000     4          
    72  Na    c    -11.0638 *    -2.2030 *    -2.2030    0.0000     4          
    73  Cl    c     10.9657 *     0.0000       4.4059 *  0.0000     4          
    74  Na    c      8.7628 *     6.6089 *     4.4059 *  0.0000     8          
    75  Cl    c      6.5598 *     4.4059 *     8.8118 *  0.0000     8          
    76  Na    c      4.3569 *    11.0148 *     0.0000    0.0000     4          
    77  Na    c      4.3569 *     6.6089 *     8.8118 *  0.0000     8          
    78  Na    c     -0.0490 *    11.0148 *     4.4059 *  0.0000     8          
    79  Na    c     -4.4550 *    11.0148 *     0.0000    0.0000     4          
    80  Na    c     -4.4550 *     8.8118 *     6.6089 *  0.0000     8          
    81  Cl    c     -6.6579 *     4.4059 *     8.8118 *  0.0000     8          
    82  Na    c     -8.8609 *     6.6089 *     4.4059 *  0.0000     8          
    83  Cl    c    -11.0638 *     0.0000       4.4059 *  0.0000     4          
    84  Cl    s      0.9909       0.0000       0.0000    0.0000     1    Defect
    85  O     s     -0.0490 *    -2.2030 *    -2.2030    0.0000     4          
    86  Cl    s      2.1539 *     0.0000       4.4059 *  0.0000     4          
    87  Cl    s     -2.2520 *     0.0000       4.4059 *  0.0000     4          
    88  O     s      4.3569 *    -2.2030 *    -2.2030    0.0000     4          
    89  O     s     -4.4550 *    -2.2030 *    -2.2030    0.0000     4          
    90  Cl    s      6.5598 *     0.0000       0.0000    0.0000     1          
    91  Cl    s      2.1539 *     4.4059 *     4.4059    0.0000     4          
    92  Cl    s     -2.2520 *     4.4059 *     4.4059    0.0000     4          
    93  Cl    s     -6.6579 *     0.0000       0.0000    0.0000     1          
    94  O     s     -0.0490 *    -2.2030 *     6.6089 *  0.0000     8          
    95  Cl    s      6.5598 *     0.0000       4.4059 *  0.0000     4          
    96  Cl    s     -6.6579 *     0.0000       4.4059 *  0.0000     4          
    97  O     s      4.3569 *    -2.2030 *     6.6089 *  0.0000     8          
    98  O     s     -4.4550 *    -2.2030 *     6.6089 *  0.0000     8          
    99  Cl    s      6.5598 *     4.4059 *     4.4059    0.0000     4          
   100  Cl    s      2.1539 *     0.0000       8.8118 *  0.0000     4          
   101  Cl    s     -2.2520 *     0.0000       8.8118 *  0.0000     4          
   102  Cl    s     -6.6579 *     4.4059 *     4.4059    0.0000     4          
   103  O     s      8.7628 *    -2.2030 *    -2.2030    0.0000     4          
   104  O     s     -0.0490 *     6.6089 *     6.6089    0.0000     4          
   105  O     s     -8.8609 *    -2.2030 *    -2.2030    0.0000     4          
   106  Cl    s      2.1539 *     4.4059 *     8.8118 *  0.0000     8          
   107  Cl    s     -2.2520 *     4.4059 *     8.8118 *  0.0000     8          
   108  O     s      4.3569 *     6.6089 *     6.6089    0.0000     4          
   109  O     s     -4.4550 *     6.6089 *     6.6089    0.0000     4          
   110  Cl    s     10.9657 *     0.0000       0.0000    0.0000     1          
   111  Cl    s      6.5598 *     0.0000       8.8118 *  0.0000     4          
   112  Cl    s     -6.6579 *     0.0000       8.8118 *  0.0000     4          
   113  Cl    s    -11.0638 *     0.0000       0.0000    0.0000     1          
   114  O     s      8.7628 *    -2.2030 *     6.6089 *  0.0000     8          
   115  O     s     -0.0490 *    -2.2030 *    11.0148 *  0.0000     8          
   116  O     s     -8.8609 *     6.6089 *    -2.2030 *  0.0000     8          
   117  Cl    s     10.9657 *     0.0000       4.4059 *  0.0000     4          
   118  Cl    s      6.5598 *     4.4059 *     8.8118 *  0.0000     8          
   119  Cl    s     -6.6579 *     4.4059 *     8.8118 *  0.0000     8          
   120  Cl    s    -11.0638 *     0.0000       4.4059 *  0.0000     4          
--------------------------------------------------------------------------------


  Constraints on symmetry reduced coordinates :

--------------------------------------------------------------------------------
  Constraint no.      Unconstrained     Constrained    Coefficient    
                         Variable         Variable
--------------------------------------------------------------------------------
           1                 3 y             3 z         1.00000
           2                 4 y             4 z         1.00000
           3                 5 y             5 z         1.00000
           4                11 y            11 z         1.00000
           5                12 y            12 z         1.00000
           6                15 y            15 z         1.00000
           7                17 y            17 z         1.00000
           8                21 y            21 z         1.00000
           9                24 y            24 z         1.00000
          10                33 y            33 z         1.00000
          11                39 y            39 z         1.00000
          12                41 y            41 z         1.00000
          13                42 y            42 z         1.00000
          14                43 y            43 z         1.00000
          15                45 y            45 z         1.00000
          16                46 y            46 z         1.00000
          17                54 y            54 z         1.00000
          18                55 y            55 z         1.00000
          19                67 y            67 z         1.00000
          20                68 y            68 z         1.00000
          21                71 y            71 z         1.00000
          22                72 y            72 z         1.00000
          23                85 y            85 z         1.00000
          24                88 y            88 z         1.00000
          25                89 y            89 z         1.00000
          26                91 y            91 z         1.00000
          27                92 y            92 z         1.00000
          28                99 y            99 z         1.00000
          29               102 y           102 z         1.00000
          30               103 y           103 z         1.00000
          31               104 y           104 z         1.00000
          32               105 y           105 z         1.00000
          33               108 y           108 z         1.00000
          34               109 y           109 z         1.00000
--------------------------------------------------------------------------------


  Components of defect energy : 

--------------------------------------------------------------------------------
  Region 1 - region 1                   =     34.30401576 eV
  Region 1 - region 2a (unrelaxed)      =    -25.68472848 eV
  Region 1 - 2a (relaxed - correction)  =     -0.24151358 eV
  Region 1 (Total)                      =      8.37777369 eV
  Region 2a                             =      0.12079698 eV
  Region 2b                             =     -0.41313379 eV
--------------------------------------------------------------------------------
  Total defect energy                   =      8.08543688 eV
--------------------------------------------------------------------------------

  Largest displacement in region 2 =   0.0185 Angstroms


  Number of variables =      271

  Maximum number of calculations  =        1000
  Maximum Hessian update interval =          10
  Maximum step size               =   1.0000000
  Maximum parameter tolerance     =   0.0000100
  Maximum function  tolerance     =   0.0000100
  Maximum gradient  tolerance     =   0.0010000

  Symmetry adapted optimisation

  Symmetry to be used for second derivatives

  Newton-Raphson optimiser to be used

  BFGS hessian update to be used

  Lower half triangular hessian to be used

  Start of defect optimisation :

  Cycle:      0 Defect Energy:   8.085437  Gnorm:     0.090585  CPU:    1.600
  ** Hessian calculated **
  Cycle:      1 Defect Energy:   6.094231  Gnorm:     0.033962  CPU:    3.406
  Cycle:      2 Defect Energy:   5.756190  Gnorm:     0.002938  CPU:    4.607
  Cycle:      3 Defect Energy:   5.744777  Gnorm:     0.001643  CPU:    4.940
  Cycle:      4 Defect Energy:   5.742254  Gnorm:     0.001089  CPU:    5.273
  Cycle:      5 Defect Energy:   5.740889  Gnorm:     0.000729  CPU:    5.607
  Cycle:      6 Defect Energy:   5.740206  Gnorm:     0.000505  CPU:    5.941
  Cycle:      7 Defect Energy:   5.739888  Gnorm:     0.000344  CPU:    6.286
  Cycle:      8 Defect Energy:   5.739741  Gnorm:     0.000241  CPU:    6.627
  Cycle:      9 Defect Energy:   5.739676  Gnorm:     0.000167  CPU:    6.970
  Cycle:     10 Defect Energy:   5.739648  Gnorm:     0.000117  CPU:    7.307
  ** Hessian calculated **
  Cycle:     11 Defect Energy:   5.739637  Gnorm:     0.000082  CPU:    8.286
  Cycle:     12 Defect Energy:   5.739633  Gnorm:     0.000057  CPU:    8.620


  **** Optimisation achieved ****


  Final defect energy  =        5.73963282
  Final defect Gnorm   =        0.00004011

  Components of defect energy : 

--------------------------------------------------------------------------------
  Region 1 - region 1                   =     29.47753766 eV
  Region 1 - region 2a (unrelaxed)      =    -23.23487479 eV
  Region 1 - 2a (relaxed - correction)  =     -0.18258057 eV
  Region 1 (Total)                      =      6.06008229 eV
  Region 2a                             =      0.09124567 eV
  Region 2b                             =     -0.41169514 eV
--------------------------------------------------------------------------------
  Total defect energy                   =      5.73963282 eV
--------------------------------------------------------------------------------

  Largest displacement in region 2 =   0.0185 Angstroms

  Final coordinates of region 1 :

--------------------------------------------------------------------------------
   No.  Atomic        x           y           z          Radius      Charge
        Label       (Angs)      (Angs)      (Angs)       (Angs)       (e) 
--------------------------------------------------------------------------------
     1  Cl    c     3.242880    0.000000    0.000000    0.000000    1.485000
     2  Na    c     2.095972   -2.374981    0.000000    0.000000    1.000000
     3  Na    c     2.095972    2.374981    0.000000    0.000000    1.000000
     4  Na    c     2.095972    0.000000   -2.374981    0.000000    1.000000
     5  Na    c     2.095972    0.000000    2.374981    0.000000    1.000000
     6  O     c     2.111742   -2.254911   -2.254911    0.000000    0.183000
     7  O     c     2.111742   -2.254911    2.254911    0.000000    0.183000
     8  O     c     2.111742    2.254911   -2.254911    0.000000    0.183000
     9  O     c     2.111742    2.254911    2.254911    0.000000    0.183000
    10  Na    c     4.324279   -2.122308   -2.122308    0.000000    1.000000
    11  Na    c     4.324279   -2.122308    2.122308    0.000000    1.000000
    12  Na    c     4.324279    2.122308   -2.122308    0.000000    1.000000
    13  Na    c     4.324279    2.122308    2.122308    0.000000    1.000000
    14  Na    c    -0.037727   -2.403339   -2.403339    0.000000    1.000000
    15  Na    c    -0.037727   -2.403339    2.403339    0.000000    1.000000
    16  Na    c    -0.037727    2.403339   -2.403339    0.000000    1.000000
    17  Na    c    -0.037727    2.403339    2.403339    0.000000    1.000000
    18  Na    c     6.724654   -2.283568    0.000000    0.000000    1.000000
    19  Na    c     6.724654    2.283568    0.000000    0.000000    1.000000
    20  Na    c     6.724654    0.000000   -2.283568    0.000000    1.000000
    21  Na    c     6.724654    0.000000    2.283568    0.000000    1.000000
    22  Cl    c     4.350598    0.000000    4.365235    0.000000    1.485000
    23  Cl    c     4.350598    0.000000   -4.365235    0.000000    1.485000
    24  Cl    c     4.350598    4.365235    0.000000    0.000000    1.485000
    25  Cl    c     4.350598   -4.365235    0.000000    0.000000    1.485000
    26  Na    c     2.264118   -2.257287    4.442728    0.000000    1.000000
    27  Na    c     2.264118   -2.257287   -4.442728    0.000000    1.000000
    28  Na    c     2.264118    2.257287    4.442728    0.000000    1.000000
    29  Na    c     2.264118    2.257287   -4.442728    0.000000    1.000000
    30  Na    c     2.264118    4.442728   -2.257287    0.000000    1.000000
    31  Na    c     2.264118    4.442728    2.257287    0.000000    1.000000
    32  Na    c     2.264118   -4.442728   -2.257287    0.000000    1.000000
    33  Na    c     2.264118   -4.442728    2.257287    0.000000    1.000000
    34  Cl    c    -0.046848    0.000000    4.379517    0.000000    1.485000
    35  Cl    c    -0.046848    0.000000   -4.379517    0.000000    1.485000
    36  Cl    c    -0.046848    4.379517    0.000000    0.000000    1.485000
    37  Cl    c    -0.046848   -4.379517    0.000000    0.000000    1.485000
    38  Na    c    -2.293618   -2.332024    0.000000    0.000000    1.000000
    39  Na    c    -2.293618    2.332024    0.000000    0.000000    1.000000
    40  Na    c    -2.293618    0.000000   -2.332024    0.000000    1.000000
    41  Na    c    -2.293618    0.000000    2.332024    0.000000    1.000000
    42  O     c     6.544589   -2.178977   -2.178977    0.000000    0.183000
    43  O     c     6.544589   -2.178977    2.178977    0.000000    0.183000
    44  O     c     6.544589    2.178977   -2.178977    0.000000    0.183000
    45  O     c     6.544589    2.178977    2.178977    0.000000    0.183000
    46  O     c    -2.201894   -2.190091   -2.190091    0.000000    0.183000
    47  O     c    -2.201894   -2.190091    2.190091    0.000000    0.183000
    48  O     c    -2.201894    2.190091   -2.190091    0.000000    0.183000
    49  O     c    -2.201894    2.190091    2.190091    0.000000    0.183000
    50  Cl    c     8.743403    0.000000    0.000000    0.000000    1.485000
    51  Na    c     6.498658    4.402935   -2.223382    0.000000    1.000000
    52  Na    c     6.498658    4.402935    2.223382    0.000000    1.000000
    53  Na    c     6.498658   -4.402935   -2.223382    0.000000    1.000000
    54  Na    c     6.498658   -4.402935    2.223382    0.000000    1.000000
    55  Na    c     6.498658   -2.223382    4.402935    0.000000    1.000000
    56  Na    c     6.498658   -2.223382   -4.402935    0.000000    1.000000
    57  Na    c     6.498658    2.223382    4.402935    0.000000    1.000000
    58  Na    c     6.498658    2.223382   -4.402935    0.000000    1.000000
    59  Cl    c     4.386769    4.402058    4.402058    0.000000    1.485000
    60  Cl    c     4.386769    4.402058   -4.402058    0.000000    1.485000
    61  Cl    c     4.386769   -4.402058    4.402058    0.000000    1.485000
    62  Cl    c     4.386769   -4.402058   -4.402058    0.000000    1.485000
    63  Na    c     2.188690    6.622636    0.000000    0.000000    1.000000
    64  Na    c     2.188690   -6.622636    0.000000    0.000000    1.000000
    65  Na    c     2.188690    0.000000    6.622636    0.000000    1.000000
    66  Na    c     2.188690    0.000000   -6.622636    0.000000    1.000000
    67  Cl    c    -0.039522    4.427509    4.427509    0.000000    1.485000
    68  Cl    c    -0.039522    4.427509   -4.427509    0.000000    1.485000
    69  Cl    c    -0.039522   -4.427509    4.427509    0.000000    1.485000
    70  Cl    c    -0.039522   -4.427509   -4.427509    0.000000    1.485000
    71  Na    c    -2.283107   -2.221539    4.424714    0.000000    1.000000
    72  Na    c    -2.283107   -2.221539   -4.424714    0.000000    1.000000
    73  Na    c    -2.283107    2.221539    4.424714    0.000000    1.000000
    74  Na    c    -2.283107    2.221539   -4.424714    0.000000    1.000000
    75  Na    c    -2.283107    4.424714   -2.221539    0.000000    1.000000
    76  Na    c    -2.283107    4.424714    2.221539    0.000000    1.000000
    77  Na    c    -2.283107   -4.424714   -2.221539    0.000000    1.000000
    78  Na    c    -2.283107   -4.424714    2.221539    0.000000    1.000000
    79  Cl    c    -4.348912    0.000000    0.000000    0.000000    1.485000
    80  O     c     2.193192   -2.207467    6.624044    0.000000    0.183000
    81  O     c     2.193192   -2.207467   -6.624044    0.000000    0.183000
    82  O     c     2.193192    2.207467    6.624044    0.000000    0.183000
    83  O     c     2.193192    2.207467   -6.624044    0.000000    0.183000
    84  O     c     2.193192    6.624044   -2.207467    0.000000    0.183000
    85  O     c     2.193192    6.624044    2.207467    0.000000    0.183000
    86  O     c     2.193192   -6.624044   -2.207467    0.000000    0.183000
    87  O     c     2.193192   -6.624044    2.207467    0.000000    0.183000
    88  Na    c     8.786240   -2.269453   -2.269453    0.000000    1.000000
    89  Na    c     8.786240   -2.269453    2.269453    0.000000    1.000000
    90  Na    c     8.786240    2.269453   -2.269453    0.000000    1.000000
    91  Na    c     8.786240    2.269453    2.269453    0.000000    1.000000
    92  Na    c     4.395709   -2.204455    6.699794    0.000000    1.000000
    93  Na    c     4.395709   -2.204455   -6.699794    0.000000    1.000000
    94  Na    c     4.395709    2.204455    6.699794    0.000000    1.000000
    95  Na    c     4.395709    2.204455   -6.699794    0.000000    1.000000
    96  Na    c     4.395709    6.699794   -2.204455    0.000000    1.000000
    97  Na    c     4.395709    6.699794    2.204455    0.000000    1.000000
    98  Na    c     4.395709   -6.699794   -2.204455    0.000000    1.000000
    99  Na    c     4.395709   -6.699794    2.204455    0.000000    1.000000
   100  Na    c    -0.010326    6.595916   -2.210212    0.000000    1.000000
   101  Na    c    -0.010326    6.595916    2.210212    0.000000    1.000000
   102  Na    c    -0.010326   -6.595916   -2.210212    0.000000    1.000000
   103  Na    c    -0.010326   -6.595916    2.210212    0.000000    1.000000
   104  Na    c    -0.010326   -2.210212    6.595916    0.000000    1.000000
   105  Na    c    -0.010326   -2.210212   -6.595916    0.000000    1.000000
   106  Na    c    -0.010326    2.210212    6.595916    0.000000    1.000000
   107  Na    c    -0.010326    2.210212   -6.595916    0.000000    1.000000
   108  Na    c    -4.428589   -2.183374   -2.183374    0.000000    1.000000
   109  Na    c    -4.428589   -2.183374    2.183374    0.000000    1.000000
   110  Na    c    -4.428589    2.183374   -2.183374    0.000000    1.000000
   111  Na    c    -4.428589    2.183374    2.183374    0.000000    1.000000
   112  Cl    c     8.769581    0.000000    4.378693    0.000000    1.485000
   113  Cl    c     8.769581    0.000000   -4.378693    0.000000    1.485000
   114  Cl    c     8.769581    4.378693    0.000000    0.000000    1.485000
   115  Cl    c     8.769581   -4.378693    0.000000    0.000000    1.485000
   116  Na    c     6.622786    6.605613    0.000000    0.000000    1.000000
   117  Na    c     6.622786   -6.605613    0.000000    0.000000    1.000000
   118  Na    c     6.622786    0.000000    6.605613    0.000000    1.000000
   119  Na    c     6.622786    0.000000   -6.605613    0.000000    1.000000
   120  Na    c     2.195820    6.650944    4.417649    0.000000    1.000000
   121  Na    c     2.195820    6.650944   -4.417649    0.000000    1.000000
   122  Na    c     2.195820   -6.650944    4.417649    0.000000    1.000000
   123  Na    c     2.195820   -6.650944   -4.417649    0.000000    1.000000
   124  Na    c     2.195820    4.417649    6.650944    0.000000    1.000000
   125  Na    c     2.195820    4.417649   -6.650944    0.000000    1.000000
   126  Na    c     2.195820   -4.417649    6.650944    0.000000    1.000000
   127  Na    c     2.195820   -4.417649   -6.650944    0.000000    1.000000
   128  Na    c    -2.205774    6.627331    0.000000    0.000000    1.000000
   129  Na    c    -2.205774   -6.627331    0.000000    0.000000    1.000000
   130  Na    c    -2.205774    0.000000    6.627331    0.000000    1.000000
   131  Na    c    -2.205774    0.000000   -6.627331    0.000000    1.000000
   132  Cl    c    -4.387882    0.000000    4.374680    0.000000    1.485000
   133  Cl    c    -4.387882    0.000000   -4.374680    0.000000    1.485000
   134  Cl    c    -4.387882    4.374680    0.000000    0.000000    1.485000
   135  Cl    c    -4.387882   -4.374680    0.000000    0.000000    1.485000
   136  O     c     6.590713   -2.200482    6.603856    0.000000    0.183000
   137  O     c     6.590713   -2.200482   -6.603856    0.000000    0.183000
   138  O     c     6.590713    2.200482    6.603856    0.000000    0.183000
   139  O     c     6.590713    2.200482   -6.603856    0.000000    0.183000
   140  O     c     6.590713    6.603856   -2.200482    0.000000    0.183000
   141  O     c     6.590713    6.603856    2.200482    0.000000    0.183000
   142  O     c     6.590713   -6.603856   -2.200482    0.000000    0.183000
   143  O     c     6.590713   -6.603856    2.200482    0.000000    0.183000
   144  O     c    -2.212119   -2.204468    6.611740    0.000000    0.183000
   145  O     c    -2.212119   -2.204468   -6.611740    0.000000    0.183000
   146  O     c    -2.212119    2.204468    6.611740    0.000000    0.183000
   147  O     c    -2.212119    2.204468   -6.611740    0.000000    0.183000
   148  O     c    -2.212119    6.611740   -2.204468    0.000000    0.183000
   149  O     c    -2.212119    6.611740    2.204468    0.000000    0.183000
   150  O     c    -2.212119   -6.611740   -2.204468    0.000000    0.183000
   151  O     c    -2.212119   -6.611740    2.204468    0.000000    0.183000
   152  Na    c    10.969225   -2.201877    0.000000    0.000000    1.000000
   153  Na    c    10.969225    2.201877    0.000000    0.000000    1.000000
   154  Na    c    10.969225    0.000000   -2.201877    0.000000    1.000000
   155  Na    c    10.969225    0.000000    2.201877    0.000000    1.000000
   156  Cl    c     8.775408    4.385552    4.385552    0.000000    1.485000
   157  Cl    c     8.775408    4.385552   -4.385552    0.000000    1.485000
   158  Cl    c     8.775408   -4.385552    4.385552    0.000000    1.485000
   159  Cl    c     8.775408   -4.385552   -4.385552    0.000000    1.485000
   160  Na    c     6.608816    6.622247    4.408216    0.000000    1.000000
   161  Na    c     6.608816    6.622247   -4.408216    0.000000    1.000000
   162  Na    c     6.608816   -6.622247    4.408216    0.000000    1.000000
   163  Na    c     6.608816   -6.622247   -4.408216    0.000000    1.000000
   164  Na    c     6.608816    4.408216    6.622247    0.000000    1.000000
   165  Na    c     6.608816    4.408216   -6.622247    0.000000    1.000000
   166  Na    c     6.608816   -4.408216    6.622247    0.000000    1.000000
   167  Na    c     6.608816   -4.408216   -6.622247    0.000000    1.000000
   168  Cl    c     4.395975    0.000000    8.801578    0.000000    1.485000
   169  Cl    c     4.395975    0.000000   -8.801578    0.000000    1.485000
   170  Cl    c     4.395975    8.801578    0.000000    0.000000    1.485000
   171  Cl    c     4.395975   -8.801578    0.000000    0.000000    1.485000
   172  Na    c     2.160477   -2.200673    8.826357    0.000000    1.000000
   173  Na    c     2.160477   -2.200673   -8.826357    0.000000    1.000000
   174  Na    c     2.160477    2.200673    8.826357    0.000000    1.000000
   175  Na    c     2.160477    2.200673   -8.826357    0.000000    1.000000
   176  Na    c     2.160477    8.826357   -2.200673    0.000000    1.000000
   177  Na    c     2.160477    8.826357    2.200673    0.000000    1.000000
   178  Na    c     2.160477   -8.826357   -2.200673    0.000000    1.000000
   179  Na    c     2.160477   -8.826357    2.200673    0.000000    1.000000
   180  Cl    c    -0.007544    0.000000    8.799328    0.000000    1.485000
   181  Cl    c    -0.007544    0.000000   -8.799328    0.000000    1.485000
   182  Cl    c    -0.007544    8.799328    0.000000    0.000000    1.485000
   183  Cl    c    -0.007544   -8.799328    0.000000    0.000000    1.485000
   184  Na    c    -2.202860    6.629505    4.414732    0.000000    1.000000
   185  Na    c    -2.202860    6.629505   -4.414732    0.000000    1.000000
   186  Na    c    -2.202860   -6.629505    4.414732    0.000000    1.000000
   187  Na    c    -2.202860   -6.629505   -4.414732    0.000000    1.000000
   188  Na    c    -2.202860    4.414732    6.629505    0.000000    1.000000
   189  Na    c    -2.202860    4.414732   -6.629505    0.000000    1.000000
   190  Na    c    -2.202860   -4.414732    6.629505    0.000000    1.000000
   191  Na    c    -2.202860   -4.414732   -6.629505    0.000000    1.000000
   192  Cl    c    -4.393390    4.379174    4.379174    0.000000    1.485000
   193  Cl    c    -4.393390    4.379174   -4.379174    0.000000    1.485000
   194  Cl    c    -4.393390   -4.379174    4.379174    0.000000    1.485000
   195  Cl    c    -4.393390   -4.379174   -4.379174    0.000000    1.485000
   196  Na    c    -6.660533   -2.209608    0.000000    0.000000    1.000000
   197  Na    c    -6.660533    2.209608    0.000000    0.000000    1.000000
   198  Na    c    -6.660533    0.000000   -2.209608    0.000000    1.000000
   199  Na    c    -6.660533    0.000000    2.209608    0.000000    1.000000
   200  O     c    10.992541   -2.204283   -2.204283    0.000000    0.183000
   201  O     c    10.992541   -2.204283    2.204283    0.000000    0.183000
   202  O     c    10.992541    2.204283   -2.204283    0.000000    0.183000
   203  O     c    10.992541    2.204283    2.204283    0.000000    0.183000
   204  O     c     2.199113    6.616231    6.616231    0.000000    0.183000
   205  O     c     2.199113    6.616231   -6.616231    0.000000    0.183000
   206  O     c     2.199113   -6.616231    6.616231    0.000000    0.183000
   207  O     c     2.199113   -6.616231   -6.616231    0.000000    0.183000
   208  O     c    -6.616374   -2.201437   -2.201437    0.000000    0.183000
   209  O     c    -6.616374   -2.201437    2.201437    0.000000    0.183000
   210  O     c    -6.616374    2.201437   -2.201437    0.000000    0.183000
   211  O     c    -6.616374    2.201437    2.201437    0.000000    0.183000
   212  Na    c     8.802015   -2.217871    6.571758    0.000000    1.000000
   213  Na    c     8.802015   -2.217871   -6.571758    0.000000    1.000000
   214  Na    c     8.802015    2.217871    6.571758    0.000000    1.000000
   215  Na    c     8.802015    2.217871   -6.571758    0.000000    1.000000
   216  Na    c     8.802015    6.571758   -2.217871    0.000000    1.000000
   217  Na    c     8.802015    6.571758    2.217871    0.000000    1.000000
   218  Na    c     8.802015   -6.571758   -2.217871    0.000000    1.000000
   219  Na    c     8.802015   -6.571758    2.217871    0.000000    1.000000
   220  Na    c     4.405207    6.615672    6.615672    0.000000    1.000000
   221  Na    c     4.405207    6.615672   -6.615672    0.000000    1.000000
   222  Na    c     4.405207   -6.615672    6.615672    0.000000    1.000000
   223  Na    c     4.405207   -6.615672   -6.615672    0.000000    1.000000
   224  Na    c    -0.005479    6.624097    6.624097    0.000000    1.000000
   225  Na    c    -0.005479    6.624097   -6.624097    0.000000    1.000000
   226  Na    c    -0.005479   -6.624097    6.624097    0.000000    1.000000
   227  Na    c    -0.005479   -6.624097   -6.624097    0.000000    1.000000
   228  Na    c    -4.411995   -2.215267    6.656011    0.000000    1.000000
   229  Na    c    -4.411995   -2.215267   -6.656011    0.000000    1.000000
   230  Na    c    -4.411995    2.215267    6.656011    0.000000    1.000000
   231  Na    c    -4.411995    2.215267   -6.656011    0.000000    1.000000
   232  Na    c    -4.411995    6.656011   -2.215267    0.000000    1.000000
   233  Na    c    -4.411995    6.656011    2.215267    0.000000    1.000000
   234  Na    c    -4.411995   -6.656011   -2.215267    0.000000    1.000000
   235  Na    c    -4.411995   -6.656011    2.215267    0.000000    1.000000
   236  Na    c    11.040984    4.404902   -2.198394    0.000000    1.000000
   237  Na    c    11.040984    4.404902    2.198394    0.000000    1.000000
   238  Na    c    11.040984   -4.404902   -2.198394    0.000000    1.000000
   239  Na    c    11.040984   -4.404902    2.198394    0.000000    1.000000
   240  Na    c    11.040984   -2.198394    4.404902    0.000000    1.000000
   241  Na    c    11.040984   -2.198394   -4.404902    0.000000    1.000000
   242  Na    c    11.040984    2.198394    4.404902    0.000000    1.000000
   243  Na    c    11.040984    2.198394   -4.404902    0.000000    1.000000
   244  Na    c     6.639884   -2.192739    8.814275    0.000000    1.000000
   245  Na    c     6.639884   -2.192739   -8.814275    0.000000    1.000000
   246  Na    c     6.639884    2.192739    8.814275    0.000000    1.000000
   247  Na    c     6.639884    2.192739   -8.814275    0.000000    1.000000
   248  Na    c     6.639884    8.814275   -2.192739    0.000000    1.000000
   249  Na    c     6.639884    8.814275    2.192739    0.000000    1.000000
   250  Na    c     6.639884   -8.814275   -2.192739    0.000000    1.000000
   251  Na    c     6.639884   -8.814275    2.192739    0.000000    1.000000
   252  Cl    c     4.398448    4.402446    8.803550    0.000000    1.485000
   253  Cl    c     4.398448    4.402446   -8.803550    0.000000    1.485000
   254  Cl    c     4.398448    8.803550    4.402446    0.000000    1.485000
   255  Cl    c     4.398448    8.803550   -4.402446    0.000000    1.485000
   256  Cl    c     4.398448   -4.402446    8.803550    0.000000    1.485000
   257  Cl    c     4.398448   -4.402446   -8.803550    0.000000    1.485000
   258  Cl    c     4.398448   -8.803550    4.402446    0.000000    1.485000
   259  Cl    c     4.398448   -8.803550   -4.402446    0.000000    1.485000
   260  Cl    c    -0.004237    4.403287    8.804274    0.000000    1.485000
   261  Cl    c    -0.004237    4.403287   -8.804274    0.000000    1.485000
   262  Cl    c    -0.004237    8.804274    4.403287    0.000000    1.485000
   263  Cl    c    -0.004237    8.804274   -4.403287    0.000000    1.485000
   264  Cl    c    -0.004237   -4.403287    8.804274    0.000000    1.485000
   265  Cl    c    -0.004237   -4.403287   -8.804274    0.000000    1.485000
   266  Cl    c    -0.004237   -8.804274    4.403287    0.000000    1.485000
   267  Cl    c    -0.004237   -8.804274   -4.403287    0.000000    1.485000
   268  Na    c    -2.186353   -2.203462    8.817796    0.000000    1.000000
   269  Na    c    -2.186353   -2.203462   -8.817796    0.000000    1.000000
   270  Na    c    -2.186353    2.203462    8.817796    0.000000    1.000000
   271  Na    c    -2.186353    2.203462   -8.817796    0.000000    1.000000
   272  Na    c    -2.186353    8.817796   -2.203462    0.000000    1.000000
   273  Na    c    -2.186353    8.817796    2.203462    0.000000    1.000000
   274  Na    c    -2.186353   -8.817796   -2.203462    0.000000    1.000000
   275  Na    c    -2.186353   -8.817796    2.203462    0.000000    1.000000
   276  Na    c    -6.606508   -2.209909    4.408817    0.000000    1.000000
   277  Na    c    -6.606508   -2.209909   -4.408817    0.000000    1.000000
   278  Na    c    -6.606508    2.209909    4.408817    0.000000    1.000000
   279  Na    c    -6.606508    2.209909   -4.408817    0.000000    1.000000
   280  Na    c    -6.606508    4.408817   -2.209909    0.000000    1.000000
   281  Na    c    -6.606508    4.408817    2.209909    0.000000    1.000000
   282  Na    c    -6.606508   -4.408817   -2.209909    0.000000    1.000000
   283  Na    c    -6.606508   -4.408817    2.209909    0.000000    1.000000
   284  O     c     6.606852    6.610208    6.610208    0.000000    0.183000
   285  O     c     6.606852    6.610208   -6.610208    0.000000    0.183000
   286  O     c     6.606852   -6.610208    6.610208    0.000000    0.183000
   287  O     c     6.606852   -6.610208   -6.610208    0.000000    0.183000
   288  O     c    -2.208587    6.616162    6.616162    0.000000    0.183000
   289  O     c    -2.208587    6.616162   -6.616162    0.000000    0.183000
   290  O     c    -2.208587   -6.616162    6.616162    0.000000    0.183000
   291  O     c    -2.208587   -6.616162   -6.616162    0.000000    0.183000
   292  Cl    c    13.195286    0.000000    0.000000    0.000000    1.485000
   293  Na    c    11.010509    6.625596    0.000000    0.000000    1.000000
   294  Na    c    11.010509   -6.625596    0.000000    0.000000    1.000000
   295  Na    c    11.010509    0.000000    6.625596    0.000000    1.000000
   296  Na    c    11.010509    0.000000   -6.625596    0.000000    1.000000
   297  Cl    c     8.799585    0.000000    8.796638    0.000000    1.485000
   298  Cl    c     8.799585    0.000000   -8.796638    0.000000    1.485000
   299  Cl    c     8.799585    8.796638    0.000000    0.000000    1.485000
   300  Cl    c     8.799585   -8.796638    0.000000    0.000000    1.485000
   301  Na    c     2.204643    6.623754    8.820116    0.000000    1.000000
   302  Na    c     2.204643    6.623754   -8.820116    0.000000    1.000000
   303  Na    c     2.204643   -6.623754    8.820116    0.000000    1.000000
   304  Na    c     2.204643   -6.623754   -8.820116    0.000000    1.000000
   305  Na    c     2.204643    8.820116    6.623754    0.000000    1.000000
   306  Na    c     2.204643    8.820116   -6.623754    0.000000    1.000000
   307  Na    c     2.204643   -8.820116    6.623754    0.000000    1.000000
   308  Na    c     2.204643   -8.820116   -6.623754    0.000000    1.000000
   309  Na    c     2.214252   11.030895    0.000000    0.000000    1.000000
   310  Na    c     2.214252  -11.030895    0.000000    0.000000    1.000000
   311  Na    c     2.214252    0.000000   11.030895    0.000000    1.000000
   312  Na    c     2.214252    0.000000  -11.030895    0.000000    1.000000
   313  Cl    c    -4.406416    0.000000    8.798409    0.000000    1.485000
   314  Cl    c    -4.406416    0.000000   -8.798409    0.000000    1.485000
   315  Cl    c    -4.406416    8.798409    0.000000    0.000000    1.485000
   316  Cl    c    -4.406416   -8.798409    0.000000    0.000000    1.485000
   317  Na    c    -6.621978    6.616058    0.000000    0.000000    1.000000
   318  Na    c    -6.621978   -6.616058    0.000000    0.000000    1.000000
   319  Na    c    -6.621978    0.000000    6.616058    0.000000    1.000000
   320  Na    c    -6.621978    0.000000   -6.616058    0.000000    1.000000
   321  Cl    c    -8.793958    0.000000    0.000000    0.000000    1.485000
   322  O     c    11.008788   -2.201794    6.602103    0.000000    0.183000
   323  O     c    11.008788   -2.201794   -6.602103    0.000000    0.183000
   324  O     c    11.008788    2.201794    6.602103    0.000000    0.183000
   325  O     c    11.008788    2.201794   -6.602103    0.000000    0.183000
   326  O     c    11.008788    6.602103   -2.201794    0.000000    0.183000
   327  O     c    11.008788    6.602103    2.201794    0.000000    0.183000
   328  O     c    11.008788   -6.602103   -2.201794    0.000000    0.183000
   329  O     c    11.008788   -6.602103    2.201794    0.000000    0.183000
   330  O     c     2.198125   -2.202453   11.017994    0.000000    0.183000
   331  O     c     2.198125   -2.202453  -11.017994    0.000000    0.183000
   332  O     c     2.198125    2.202453   11.017994    0.000000    0.183000
   333  O     c     2.198125    2.202453  -11.017994    0.000000    0.183000
   334  O     c     2.198125   11.017994   -2.202453    0.000000    0.183000
   335  O     c     2.198125   11.017994    2.202453    0.000000    0.183000
   336  O     c     2.198125  -11.017994   -2.202453    0.000000    0.183000
   337  O     c     2.198125  -11.017994    2.202453    0.000000    0.183000
   338  O     c    -6.607071    6.607444   -2.202506    0.000000    0.183000
   339  O     c    -6.607071    6.607444    2.202506    0.000000    0.183000
   340  O     c    -6.607071   -6.607444   -2.202506    0.000000    0.183000
   341  O     c    -6.607071   -6.607444    2.202506    0.000000    0.183000
   342  O     c    -6.607071   -2.202506    6.607444    0.000000    0.183000
   343  O     c    -6.607071   -2.202506   -6.607444    0.000000    0.183000
   344  O     c    -6.607071    2.202506    6.607444    0.000000    0.183000
   345  O     c    -6.607071    2.202506   -6.607444    0.000000    0.183000
   346  Na    c    13.211298   -2.186414   -2.186414    0.000000    1.000000
   347  Na    c    13.211298   -2.186414    2.186414    0.000000    1.000000
   348  Na    c    13.211298    2.186414   -2.186414    0.000000    1.000000
   349  Na    c    13.211298    2.186414    2.186414    0.000000    1.000000
   350  Na    c     8.812277    6.614656    6.614656    0.000000    1.000000
   351  Na    c     8.812277    6.614656   -6.614656    0.000000    1.000000
   352  Na    c     8.812277   -6.614656    6.614656    0.000000    1.000000
   353  Na    c     8.812277   -6.614656   -6.614656    0.000000    1.000000
   354  Na    c     4.405672   -2.211951   11.013985    0.000000    1.000000
   355  Na    c     4.405672   -2.211951  -11.013985    0.000000    1.000000
   356  Na    c     4.405672    2.211951   11.013985    0.000000    1.000000
   357  Na    c     4.405672    2.211951  -11.013985    0.000000    1.000000
   358  Na    c     4.405672   11.013985   -2.211951    0.000000    1.000000
   359  Na    c     4.405672   11.013985    2.211951    0.000000    1.000000
   360  Na    c     4.405672  -11.013985   -2.211951    0.000000    1.000000
   361  Na    c     4.405672  -11.013985    2.211951    0.000000    1.000000
   362  Na    c    -0.003197   -2.202937   11.044101    0.000000    1.000000
   363  Na    c    -0.003197   -2.202937  -11.044101    0.000000    1.000000
   364  Na    c    -0.003197    2.202937   11.044101    0.000000    1.000000
   365  Na    c    -0.003197    2.202937  -11.044101    0.000000    1.000000
   366  Na    c    -0.003197   11.044101   -2.202937    0.000000    1.000000
   367  Na    c    -0.003197   11.044101    2.202937    0.000000    1.000000
   368  Na    c    -0.003197  -11.044101   -2.202937    0.000000    1.000000
   369  Na    c    -0.003197  -11.044101    2.202937    0.000000    1.000000
   370  Na    c    -4.409650    6.618282    6.618282    0.000000    1.000000
   371  Na    c    -4.409650    6.618282   -6.618282    0.000000    1.000000
   372  Na    c    -4.409650   -6.618282    6.618282    0.000000    1.000000
   373  Na    c    -4.409650   -6.618282   -6.618282    0.000000    1.000000
   374  Na    c    -8.820133   -2.218447   -2.218447    0.000000    1.000000
   375  Na    c    -8.820133   -2.218447    2.218447    0.000000    1.000000
   376  Na    c    -8.820133    2.218447   -2.218447    0.000000    1.000000
   377  Na    c    -8.820133    2.218447    2.218447    0.000000    1.000000
   378  Cl    c    13.192179    0.000000    4.395180    0.000000    1.485000
   379  Cl    c    13.192179    0.000000   -4.395180    0.000000    1.485000
   380  Cl    c    13.192179    4.395180    0.000000    0.000000    1.485000
   381  Cl    c    13.192179   -4.395180    0.000000    0.000000    1.485000
   382  Na    c    11.024865    6.619731    4.406605    0.000000    1.000000
   383  Na    c    11.024865    6.619731   -4.406605    0.000000    1.000000
   384  Na    c    11.024865   -6.619731    4.406605    0.000000    1.000000
   385  Na    c    11.024865   -6.619731   -4.406605    0.000000    1.000000
   386  Na    c    11.024865    4.406605    6.619731    0.000000    1.000000
   387  Na    c    11.024865    4.406605   -6.619731    0.000000    1.000000
   388  Na    c    11.024865   -4.406605    6.619731    0.000000    1.000000
   389  Na    c    11.024865   -4.406605   -6.619731    0.000000    1.000000
   390  Cl    c     8.800748    4.397767    8.793087    0.000000    1.485000
   391  Cl    c     8.800748    4.397767   -8.793087    0.000000    1.485000
   392  Cl    c     8.800748    8.793087    4.397767    0.000000    1.485000
   393  Cl    c     8.800748    8.793087   -4.397767    0.000000    1.485000
   394  Cl    c     8.800748   -4.397767    8.793087    0.000000    1.485000
   395  Cl    c     8.800748   -4.397767   -8.793087    0.000000    1.485000
   396  Cl    c     8.800748   -8.793087    4.397767    0.000000    1.485000
   397  Cl    c     8.800748   -8.793087   -4.397767    0.000000    1.485000
   398  Na    c     6.606258   11.039230    0.000000    0.000000    1.000000
   399  Na    c     6.606258  -11.039230    0.000000    0.000000    1.000000
   400  Na    c     6.606258    0.000000   11.039230    0.000000    1.000000
   401  Na    c     6.606258    0.000000  -11.039230    0.000000    1.000000
   402  Na    c     6.613382    6.618944    8.815998    0.000000    1.000000
   403  Na    c     6.613382    6.618944   -8.815998    0.000000    1.000000
   404  Na    c     6.613382   -6.618944    8.815998    0.000000    1.000000
   405  Na    c     6.613382   -6.618944   -8.815998    0.000000    1.000000
   406  Na    c     6.613382    8.815998    6.618944    0.000000    1.000000
   407  Na    c     6.613382    8.815998   -6.618944    0.000000    1.000000
   408  Na    c     6.613382   -8.815998    6.618944    0.000000    1.000000
   409  Na    c     6.613382   -8.815998   -6.618944    0.000000    1.000000
   410  Na    c     2.203640   11.031213    4.408534    0.000000    1.000000
   411  Na    c     2.203640   11.031213   -4.408534    0.000000    1.000000
   412  Na    c     2.203640  -11.031213    4.408534    0.000000    1.000000
   413  Na    c     2.203640  -11.031213   -4.408534    0.000000    1.000000
   414  Na    c     2.203640    4.408534   11.031213    0.000000    1.000000
   415  Na    c     2.203640    4.408534  -11.031213    0.000000    1.000000
   416  Na    c     2.203640   -4.408534   11.031213    0.000000    1.000000
   417  Na    c     2.203640   -4.408534  -11.031213    0.000000    1.000000
   418  Na    c    -2.211929   11.027804    0.000000    0.000000    1.000000
   419  Na    c    -2.211929  -11.027804    0.000000    0.000000    1.000000
   420  Na    c    -2.211929    0.000000   11.027804    0.000000    1.000000
   421  Na    c    -2.211929    0.000000  -11.027804    0.000000    1.000000
   422  Na    c    -2.209467    8.819055    6.622953    0.000000    1.000000
   423  Na    c    -2.209467    8.819055   -6.622953    0.000000    1.000000
   424  Na    c    -2.209467   -8.819055    6.622953    0.000000    1.000000
   425  Na    c    -2.209467   -8.819055   -6.622953    0.000000    1.000000
   426  Na    c    -2.209467    6.622953    8.819055    0.000000    1.000000
   427  Na    c    -2.209467    6.622953   -8.819055    0.000000    1.000000
   428  Na    c    -2.209467   -6.622953    8.819055    0.000000    1.000000
   429  Na    c    -2.209467   -6.622953   -8.819055    0.000000    1.000000
   430  Cl    c    -4.404198    4.398183    8.795298    0.000000    1.485000
   431  Cl    c    -4.404198    4.398183   -8.795298    0.000000    1.485000
   432  Cl    c    -4.404198    8.795298    4.398183    0.000000    1.485000
   433  Cl    c    -4.404198    8.795298   -4.398183    0.000000    1.485000
   434  Cl    c    -4.404198   -4.398183    8.795298    0.000000    1.485000
   435  Cl    c    -4.404198   -4.398183   -8.795298    0.000000    1.485000
   436  Cl    c    -4.404198   -8.795298    4.398183    0.000000    1.485000
   437  Cl    c    -4.404198   -8.795298   -4.398183    0.000000    1.485000
   438  Na    c    -6.624648    6.620705    4.408500    0.000000    1.000000
   439  Na    c    -6.624648    6.620705   -4.408500    0.000000    1.000000
   440  Na    c    -6.624648   -6.620705    4.408500    0.000000    1.000000
   441  Na    c    -6.624648   -6.620705   -4.408500    0.000000    1.000000
   442  Na    c    -6.624648    4.408500    6.620705    0.000000    1.000000
   443  Na    c    -6.624648    4.408500   -6.620705    0.000000    1.000000
   444  Na    c    -6.624648   -4.408500    6.620705    0.000000    1.000000
   445  Na    c    -6.624648   -4.408500   -6.620705    0.000000    1.000000
   446  Cl    c    -8.793175    0.000000    4.399703    0.000000    1.485000
   447  Cl    c    -8.793175    0.000000   -4.399703    0.000000    1.485000
   448  Cl    c    -8.793175    4.399703    0.000000    0.000000    1.485000
   449  Cl    c    -8.793175   -4.399703    0.000000    0.000000    1.485000
   450  Cl    s     3.242880    0.000000    0.000000    0.000000   -2.485000
   451  O     s     2.111720   -2.255007   -2.255007    0.000000   -2.183000
   452  O     s     2.111720   -2.255007    2.255007    0.000000   -2.183000
   453  O     s     2.111720    2.255007   -2.255007    0.000000   -2.183000
   454  O     s     2.111720    2.255007    2.255007    0.000000   -2.183000
   455  Cl    s     4.344795    0.000000    4.357996    0.000000   -2.485000
   456  Cl    s     4.344795    0.000000   -4.357996    0.000000   -2.485000
   457  Cl    s     4.344795    4.357996    0.000000    0.000000   -2.485000
   458  Cl    s     4.344795   -4.357996    0.000000    0.000000   -2.485000
   459  Cl    s    -0.046614    0.000000    4.372993    0.000000   -2.485000
   460  Cl    s    -0.046614    0.000000   -4.372993    0.000000   -2.485000
   461  Cl    s    -0.046614    4.372993    0.000000    0.000000   -2.485000
   462  Cl    s    -0.046614   -4.372993    0.000000    0.000000   -2.485000
   463  O     s     6.544615   -2.178968   -2.178968    0.000000   -2.183000
   464  O     s     6.544615   -2.178968    2.178968    0.000000   -2.183000
   465  O     s     6.544615    2.178968   -2.178968    0.000000   -2.183000
   466  O     s     6.544615    2.178968    2.178968    0.000000   -2.183000
   467  O     s    -2.201907   -2.190116   -2.190116    0.000000   -2.183000
[...]
     40 y         -2.202951     -2.209608    -0.006657    Cartesian    0.30
     40 z          0.000000      0.000000     0.000000    Cartesian    0.00
     41 x         11.014756     10.992541    -0.022215    Cartesian   -0.20
     41 y         -2.202951     -2.204283    -0.001332    Cartesian    0.06
     41 z         -2.202951     -2.204283    -0.001332    Cartesian    0.06
     42 x          2.202951      2.199113    -0.003838    Cartesian   -0.17
     42 y          6.608853      6.616231     0.007378    Cartesian    0.11
     42 z          6.608853      6.616231     0.007378    Cartesian    0.11
     43 x         -6.608853     -6.616374    -0.007520    Cartesian    0.11
     43 y         -2.202951     -2.201437     0.001514    Cartesian   -0.07
     43 z         -2.202951     -2.201437     0.001514    Cartesian   -0.07
     44 x          8.811805      8.802015    -0.009790    Cartesian   -0.11
     44 y         -2.202951     -2.217871    -0.014920    Cartesian    0.68
     44 z          6.608853      6.571758    -0.037096    Cartesian   -0.56
     45 x          4.405902      4.405207    -0.000696    Cartesian   -0.02
     45 y          6.608853      6.615672     0.006819    Cartesian    0.10
     45 z          6.608853      6.615672     0.006819    Cartesian    0.10
     46 x          0.000000     -0.005479    -0.005479    Cartesian    0.00
     46 y          6.608853      6.624097     0.015243    Cartesian    0.23
     46 z          6.608853      6.624097     0.015243    Cartesian    0.23
     47 x         -4.405902     -4.411995    -0.006093    Cartesian    0.14
     47 y         -2.202951     -2.215267    -0.012315    Cartesian    0.56
     47 z          6.608853      6.656011     0.047158    Cartesian    0.71
     48 x         11.014756     11.040984     0.026228    Cartesian    0.24
     48 y          4.405902      4.404902    -0.001000    Cartesian   -0.02
     48 z         -2.202951     -2.198394     0.004557    Cartesian   -0.21
     49 x          6.608853      6.639884     0.031031    Cartesian    0.47
     49 y         -2.202951     -2.192739     0.010212    Cartesian   -0.46
     49 z          8.811805      8.814275     0.002471    Cartesian    0.03
     50 x          4.405902      4.398448    -0.007455    Cartesian   -0.17
     50 y          4.405902      4.402446    -0.003456    Cartesian   -0.08
     50 z          8.811805      8.803550    -0.008255    Cartesian   -0.09
     51 x          0.000000     -0.004237    -0.004237    Cartesian    0.00
     51 y          4.405902      4.403287    -0.002615    Cartesian   -0.06
     51 z          8.811805      8.804274    -0.007531    Cartesian   -0.09
     52 x         -2.202951     -2.186353     0.016598    Cartesian   -0.75
     52 y         -2.202951     -2.203462    -0.000511    Cartesian    0.02
     52 z          8.811805      8.817796     0.005992    Cartesian    0.07
     53 x         -6.608853     -6.606508     0.002345    Cartesian   -0.04
     53 y         -2.202951     -2.209909    -0.006957    Cartesian    0.32
     53 z          4.405902      4.408817     0.002914    Cartesian    0.07
     54 x          6.608853      6.606852    -0.002001    Cartesian   -0.03
     54 y          6.608853      6.610208     0.001355    Cartesian    0.02
     54 z          6.608853      6.610208     0.001355    Cartesian    0.02
     55 x         -2.202951     -2.208587    -0.005636    Cartesian    0.26
     55 y          6.608853      6.616162     0.007309    Cartesian    0.11
     55 z          6.608853      6.616162     0.007309    Cartesian    0.11
     56 x         13.217707     13.195286    -0.022420    Cartesian   -0.17
     56 y          0.000000      0.000000     0.000000    Cartesian    0.00
     56 z          0.000000      0.000000     0.000000    Cartesian    0.00
     57 x         11.014756     11.010509    -0.004246    Cartesian   -0.04
     57 y          6.608853      6.625596     0.016743    Cartesian    0.25
     57 z          0.000000      0.000000     0.000000    Cartesian    0.00
     58 x          8.811805      8.799585    -0.012220    Cartesian   -0.14
     58 y          0.000000      0.000000     0.000000    Cartesian    0.00
     58 z          8.811805      8.796638    -0.015166    Cartesian   -0.17
     59 x          2.202951      2.204643     0.001692    Cartesian    0.08
     59 y          6.608853      6.623754     0.014901    Cartesian    0.23
     59 z          8.811805      8.820116     0.008312    Cartesian    0.09
     60 x          2.202951      2.214252     0.011301    Cartesian    0.51
     60 y         11.014756     11.030895     0.016139    Cartesian    0.15
     60 z          0.000000      0.000000     0.000000    Cartesian    0.00
     61 x         -4.405902     -4.406416    -0.000514    Cartesian    0.01
     61 y          0.000000      0.000000     0.000000    Cartesian    0.00
     61 z          8.811805      8.798409    -0.013395    Cartesian   -0.15
     62 x         -6.608853     -6.621978    -0.013124    Cartesian    0.20
     62 y          6.608853      6.616058     0.007205    Cartesian    0.11
     62 z          0.000000      0.000000     0.000000    Cartesian    0.00
     63 x         -8.811805     -8.793958     0.017847    Cartesian   -0.20
     63 y          0.000000      0.000000     0.000000    Cartesian    0.00
     63 z          0.000000      0.000000     0.000000    Cartesian    0.00
     64 x         11.014756     11.008788    -0.005968    Cartesian   -0.05
     64 y         -2.202951     -2.201794     0.001157    Cartesian   -0.05
     64 z          6.608853      6.602103    -0.006751    Cartesian   -0.10
     65 x          2.202951      2.198125    -0.004826    Cartesian   -0.22
     65 y         -2.202951     -2.202453     0.000498    Cartesian   -0.02
     65 z         11.014756     11.017994     0.003239    Cartesian    0.03
     66 x         -6.608853     -6.607071     0.001783    Cartesian   -0.03
     66 y          6.608853      6.607444    -0.001410    Cartesian   -0.02
     66 z         -2.202951     -2.202506     0.000445    Cartesian   -0.02
     67 x         13.217707     13.211298    -0.006409    Cartesian   -0.05
     67 y         -2.202951     -2.186414     0.016538    Cartesian   -0.75
     67 z         -2.202951     -2.186414     0.016538    Cartesian   -0.75
     68 x          8.811805      8.812277     0.000473    Cartesian    0.01
     68 y          6.608853      6.614656     0.005802    Cartesian    0.09
     68 z          6.608853      6.614656     0.005802    Cartesian    0.09
     69 x          4.405902      4.405672    -0.000230    Cartesian   -0.01
     69 y         -2.202951     -2.211951    -0.009000    Cartesian    0.41
     69 z         11.014756     11.013985    -0.000771    Cartesian   -0.01
     70 x          0.000000     -0.003197    -0.003197    Cartesian    0.00
     70 y         -2.202951     -2.202937     0.000014    Cartesian   -0.00
     70 z         11.014756     11.044101     0.029345    Cartesian    0.27
     71 x         -4.405902     -4.409650    -0.003747    Cartesian    0.09
     71 y          6.608853      6.618282     0.009428    Cartesian    0.14
     71 z          6.608853      6.618282     0.009428    Cartesian    0.14
     72 x         -8.811805     -8.820133    -0.008329    Cartesian    0.09
     72 y         -2.202951     -2.218447    -0.015496    Cartesian    0.70
     72 z         -2.202951     -2.218447    -0.015496    Cartesian    0.70
     73 x         13.217707     13.192179    -0.025528    Cartesian   -0.19
     73 y          0.000000      0.000000     0.000000    Cartesian    0.00
     73 z          4.405902      4.395180    -0.010722    Cartesian   -0.24
     74 x         11.014756     11.024865     0.010110    Cartesian    0.09
     74 y          6.608853      6.619731     0.010877    Cartesian    0.16
     74 z          4.405902      4.406605     0.000703    Cartesian    0.02
     75 x          8.811805      8.800748    -0.011056    Cartesian   -0.13
     75 y          4.405902      4.397767    -0.008135    Cartesian   -0.18
     75 z          8.811805      8.793087    -0.018718    Cartesian   -0.21
     76 x          6.608853      6.606258    -0.002595    Cartesian   -0.04
     76 y         11.014756     11.039230     0.024474    Cartesian    0.22
     76 z          0.000000      0.000000     0.000000    Cartesian    0.00
     77 x          6.608853      6.613382     0.004528    Cartesian    0.07
     77 y          6.608853      6.618944     0.010091    Cartesian    0.15
     77 z          8.811805      8.815998     0.004194    Cartesian    0.05
     78 x          2.202951      2.203640     0.000689    Cartesian    0.03
     78 y         11.014756     11.031213     0.016457    Cartesian    0.15
     78 z          4.405902      4.408534     0.002632    Cartesian    0.06
     79 x         -2.202951     -2.211929    -0.008978    Cartesian    0.41
     79 y         11.014756     11.027804     0.013048    Cartesian    0.12
     79 z          0.000000      0.000000     0.000000    Cartesian    0.00
     80 x         -2.202951     -2.209467    -0.006516    Cartesian    0.30
     80 y          8.811805      8.819055     0.007250    Cartesian    0.08
     80 z          6.608853      6.622953     0.014099    Cartesian    0.21
     81 x         -4.405902     -4.404198     0.001705    Cartesian   -0.04
     81 y          4.405902      4.398183    -0.007720    Cartesian   -0.18
     81 z          8.811805      8.795298    -0.016507    Cartesian   -0.19
     82 x         -6.608853     -6.624648    -0.015795    Cartesian    0.24
     82 y          6.608853      6.620705     0.011852    Cartesian    0.18
     82 z          4.405902      4.408500     0.002598    Cartesian    0.06
     83 x         -8.811805     -8.793175     0.018630    Cartesian   -0.21
     83 y          0.000000      0.000000     0.000000    Cartesian    0.00
     83 z          4.405902      4.399703    -0.006199    Cartesian   -0.14
     84 x          3.242880      3.242880     0.000000    Cartesian    0.00
     84 y          0.000000      0.000000     0.000000    Cartesian    0.00
     84 z          0.000000      0.000000     0.000000    Cartesian    0.00
     85 x          2.202951      2.111720    -0.091231    Cartesian   -4.14
     85 y         -2.202951     -2.255007    -0.052056    Cartesian    2.36
     85 z         -2.202951     -2.255007    -0.052056    Cartesian    2.36
     86 x          4.405902      4.344795    -0.061107    Cartesian   -1.39
     86 y          0.000000      0.000000     0.000000    Cartesian    0.00
     86 z          4.405902      4.357996    -0.047906    Cartesian   -1.09
     87 x          0.000000     -0.046614    -0.046614    Cartesian    0.00
     87 y          0.000000      0.000000     0.000000    Cartesian    0.00
     87 z          4.405902      4.372993    -0.032910    Cartesian   -0.75
     88 x          6.608853      6.544615    -0.064239    Cartesian   -0.97
     88 y         -2.202951     -2.178968     0.023984    Cartesian   -1.09
     88 z         -2.202951     -2.178968     0.023984    Cartesian   -1.09
     89 x         -2.202951     -2.201907     0.001044    Cartesian   -0.05
     89 y         -2.202951     -2.190116     0.012835    Cartesian   -0.58
     89 z         -2.202951     -2.190116     0.012835    Cartesian   -0.58
     90 x          8.811805      8.737912    -0.073893    Cartesian   -0.84
     90 y          0.000000      0.000000     0.000000    Cartesian    0.00
     90 z          0.000000      0.000000     0.000000    Cartesian    0.00
     91 x          4.405902      4.385681    -0.020222    Cartesian   -0.46
     91 y          4.405902      4.398253    -0.007649    Cartesian   -0.17
     91 z          4.405902      4.398253    -0.007649    Cartesian   -0.17
     92 x          0.000000     -0.042598    -0.042598    Cartesian    0.00
     92 y          4.405902      4.420304     0.014402    Cartesian    0.33
     92 z          4.405902      4.420304     0.014402    Cartesian    0.33
     93 x         -4.405902     -4.345154     0.060748    Cartesian   -1.38
     93 y          0.000000      0.000000     0.000000    Cartesian    0.00
     93 z          0.000000      0.000000     0.000000    Cartesian    0.00
     94 x          2.202951      2.193199    -0.009752    Cartesian   -0.44
     94 y         -2.202951     -2.207472    -0.004521    Cartesian    0.21
     94 z          6.608853      6.624033     0.015180    Cartesian    0.23
     95 x          8.811805      8.763685    -0.048119    Cartesian   -0.55
     95 y          0.000000      0.000000     0.000000    Cartesian    0.00
     95 z          4.405902      4.371215    -0.034688    Cartesian   -0.79
     96 x         -4.405902     -4.377990     0.027912    Cartesian   -0.63
     96 y          0.000000      0.000000     0.000000    Cartesian    0.00
     96 z          4.405902      4.364845    -0.041057    Cartesian   -0.93
     97 x          6.608853      6.590697    -0.018157    Cartesian   -0.27
     97 y         -2.202951     -2.200480     0.002471    Cartesian   -0.11
     97 z          6.608853      6.603863    -0.004991    Cartesian   -0.08
     98 x         -2.202951     -2.212127    -0.009176    Cartesian    0.42
     98 y         -2.202951     -2.204467    -0.001516    Cartesian    0.07
     98 z          6.608853      6.611729     0.002876    Cartesian    0.04
     99 x          8.811805      8.773063    -0.038742    Cartesian   -0.44
     99 y          4.405902      4.382022    -0.023880    Cartesian   -0.54
     99 z          4.405902      4.382022    -0.023880    Cartesian   -0.54
    100 x          4.405902      4.394915    -0.010987    Cartesian   -0.25
    100 y          0.000000      0.000000     0.000000    Cartesian    0.00
    100 z          8.811805      8.797388    -0.014417    Cartesian   -0.16
    101 x          0.000000     -0.007442    -0.007442    Cartesian    0.00
    101 y          0.000000      0.000000     0.000000    Cartesian    0.00
    101 z          8.811805      8.796472    -0.015333    Cartesian   -0.17
    102 x         -4.405902     -4.388664     0.017238    Cartesian   -0.39
    102 y          4.405902      4.374046    -0.031857    Cartesian   -0.72
    102 z          4.405902      4.374046    -0.031857    Cartesian   -0.72
    103 x         11.014756     10.992538    -0.022218    Cartesian   -0.20
    103 y         -2.202951     -2.204294    -0.001343    Cartesian    0.06
    103 z         -2.202951     -2.204294    -0.001343    Cartesian    0.06
    104 x          2.202951      2.199112    -0.003839    Cartesian   -0.17
    104 y          6.608853      6.616234     0.007381    Cartesian    0.11
    104 z          6.608853      6.616234     0.007381    Cartesian    0.11
    105 x         -6.608853     -6.616367    -0.007513    Cartesian    0.11
    105 y         -2.202951     -2.201433     0.001518    Cartesian   -0.07
    105 z         -2.202951     -2.201433     0.001518    Cartesian   -0.07
    106 x          4.405902      4.397489    -0.008413    Cartesian   -0.19
    106 y          4.405902      4.401135    -0.004768    Cartesian   -0.11
    106 z          8.811805      8.800442    -0.011363    Cartesian   -0.13
    107 x          0.000000     -0.004110    -0.004110    Cartesian    0.00
    107 y          4.405902      4.402110    -0.003793    Cartesian   -0.09
    107 z          8.811805      8.801885    -0.009919    Cartesian   -0.11
    108 x          6.608853      6.606851    -0.002002    Cartesian   -0.03
    108 y          6.608853      6.610209     0.001356    Cartesian    0.02
    108 z          6.608853      6.610209     0.001356    Cartesian    0.02
    109 x         -2.202951     -2.208588    -0.005637    Cartesian    0.26
    109 y          6.608853      6.616166     0.007312    Cartesian    0.11
    109 z          6.608853      6.616166     0.007312    Cartesian    0.11
    110 x         13.217707     13.195495    -0.022212    Cartesian   -0.17
    110 y          0.000000      0.000000     0.000000    Cartesian    0.00
    110 z          0.000000      0.000000     0.000000    Cartesian    0.00
    111 x          8.811805      8.797505    -0.014300    Cartesian   -0.16
    111 y          0.000000      0.000000     0.000000    Cartesian    0.00
    111 z          8.811805      8.795702    -0.016103    Cartesian   -0.18
    112 x         -4.405902     -4.406655    -0.000753    Cartesian    0.02
    112 y          0.000000      0.000000     0.000000    Cartesian    0.00
    112 z          8.811805      8.795785    -0.016019    Cartesian   -0.18
    113 x         -8.811805     -8.789370     0.022435    Cartesian   -0.25
    113 y          0.000000      0.000000     0.000000    Cartesian    0.00
    113 z          0.000000      0.000000     0.000000    Cartesian    0.00
    114 x         11.014756     11.008796    -0.005960    Cartesian   -0.05
    114 y         -2.202951     -2.201794     0.001158    Cartesian   -0.05
    114 z          6.608853      6.602092    -0.006762    Cartesian   -0.10
    115 x          2.202951      2.198116    -0.004835    Cartesian   -0.22
    115 y         -2.202951     -2.202451     0.000501    Cartesian   -0.02
    115 z         11.014756     11.017994     0.003238    Cartesian    0.03
    116 x         -6.608853     -6.607066     0.001787    Cartesian   -0.03
    116 y          6.608853      6.607450    -0.001403    Cartesian   -0.02
    116 z         -2.202951     -2.202506     0.000445    Cartesian   -0.02
    117 x         13.217707     13.189475    -0.028232    Cartesian   -0.21
    117 y          0.000000      0.000000     0.000000    Cartesian    0.00
    117 z          4.405902      4.394437    -0.011465    Cartesian   -0.26
    118 x          8.811805      8.799134    -0.012670    Cartesian   -0.14
    118 y          4.405902      4.396875    -0.009027    Cartesian   -0.20
    118 z          8.811805      8.791229    -0.020575    Cartesian   -0.23
    119 x         -4.405902     -4.404024     0.001879    Cartesian   -0.04
    119 y          4.405902      4.396435    -0.009468    Cartesian   -0.21
    119 z          8.811805      8.792357    -0.019447    Cartesian   -0.22
    120 x         -8.811805     -8.790507     0.021297    Cartesian   -0.24
    120 y          0.000000      0.000000     0.000000    Cartesian    0.00
    120 z          4.405902      4.398115    -0.007787    Cartesian   -0.18
--------------------------------------------------------------------------------


  Time to end of optimisation  =        8.9568 seconds


  Peak dynamic memory used =      76.10 MB 


  Timing analysis for GULP :

--------------------------------------------------------------------------------
  Task / Subroutine                                          Time (Seconds)
--------------------------------------------------------------------------------
  Calculation of reciprocal space energy and derivatives          0.0007
  Calculation of reciprocal space energy using symmetry           0.0012
  Calculation of real space energy and derivatives                0.0040
  Calculation of real space energy using symmetry                 0.0126
  Calculation for region 1 energy and derivatives (2-b)           5.3797
  Calculation for region 2a energy                                3.0204
  Calculation for region 2b energy                                0.0031
  Calculation and manipulation of Hessian matrix                  0.4138
  Calculation of matrix inversion                                 0.0241
  Symmetry generation of equivalent positions                     0.0048
--------------------------------------------------------------------------------
  Total CPU time                                                  8.9569
--------------------------------------------------------------------------------


  Dump file written as Na3OCl.grs


  Job Finished at 16:17.15  8th January    2021                               

