********************************************************************************
*                       GENERAL UTILITY LATTICE PROGRAM                        *
*                                 Julian Gale                                  *
*                       Curtin Institute for Computation                       *
*                    School of Molecular and Life Sciences                     *
*                    Curtin University, Western Australia                      *
********************************************************************************
* Version = 5.2.0 * Last modified =  10th September 2020                       *
********************************************************************************
*  optimise     - perform optimisation run                                     *
*  conp         - constant pressure calculation                                *
*  property     - calculate properties for final geometry                      *
*  defect       - perform defect calculation after bulk run                    *
*  compare      - compare initial and final structures                         *
********************************************************************************

  Job Started  at 16:17.14  8th January    2021                               

  Number of CPUs =     1


  Total number of configurations input =      1

********************************************************************************
*  Input for Configuration =   1                                               *
********************************************************************************

  Formula = ClONa3                                                      

  Number of irreducible atoms/shells =       5


  Total number atoms/shells =       7

  Dimensionality = 3               :  Bulk   


  Symmetry :

  Crystal family                   :  Cubic       
  Crystal class  (Groth - 1921)    :  Cubic Hexakisoctahedral              

  Space group (centrosymmetric)    :  P M 3 M         

  Patterson group                  :  P m -3 m 

  Cartesian lattice vectors (Angstroms) :

        4.504000    0.000000    0.000000
        0.000000    4.504000    0.000000
        0.000000    0.000000    4.504000

  Cell parameters (Angstroms/Degrees):

  a =       4.5040    alpha =  90.0000
  b =       4.5040    beta  =  90.0000
  c =       4.5040    gamma =  90.0000

  Initial cell volume =          91.368216 Angs**3

  Temperature of configuration =   0.00     K 

  Pressure of configuration =         0.000 GPa 

  Fractional coordinates of asymmetric unit :

--------------------------------------------------------------------------------
   No.  Atomic       x           y          z         Charge      Occupancy
        Label      (Frac)      (Frac)     (Frac)        (e)         (Frac)  
--------------------------------------------------------------------------------
      1 Cl    c    0.000000    0.000000    0.000000     1.48500    1.000000    
      2 O     c    0.500000    0.500000    0.500000     0.18300    1.000000    
      3 Na    c    0.500000    0.500000    0.000000     1.00000    1.000000    
      4 Cl    s    0.000000    0.000000    0.000000    -2.48500    1.000000    
      5 O     s    0.500000    0.500000    0.500000    -2.18300    1.000000    
--------------------------------------------------------------------------------


  Constraints : 

--------------------------------------------------------------------------------
  Constraint no.      Unconstrained     Constrained    Coefficient    Offset
                         Variable         Variable
--------------------------------------------------------------------------------
           1              Strain 1        Strain 2       1.00000      0.0000
           2              Strain 1        Strain 3       1.00000      0.0000
--------------------------------------------------------------------------------


********************************************************************************
*  General input information                                                   *
********************************************************************************

  Species output for all configurations : 

--------------------------------------------------------------------------------
  Species    Type    Atomic    Atomic    Charge       Radii (Angs)     Library
                     Number     Mass       (e)     Cova   Ionic  VDW   Symbol
--------------------------------------------------------------------------------
    Na       Core       11      22.99   1.000000   0.970  0.000  2.300          
    O        Core        8      16.00   0.183000   0.730  0.000  1.360          
    O        Shell       8       0.00  -2.183000   0.730  0.000  1.360          
    Cl       Core       17      35.45   1.485000   0.990  0.000  1.650          
    Cl       Shell      17       0.00  -2.485000   0.990  0.000  1.650          
    Mg       Core       12      24.31   0.415000   1.100  0.000  0.000          
    Mg       Shell      12       0.00   1.585000   1.100  0.000  0.000          
    Ca       Core       20      40.08  -1.135000   0.990  0.000  0.000          
    Ca       Shell      20       0.00   3.135000   0.990  0.000  0.000          
    Sr       Core       38      87.62  -1.251000   1.120  0.000  0.000          
    Sr       Shell      38       0.00   3.251000   1.120  0.000  0.000          
    Ba       Core       56     137.33  -7.203000   1.340  0.000  0.000          
    Ba       Shell      56       0.00   9.203000   1.340  0.000  0.000          
--------------------------------------------------------------------------------


  Lattice summation method               =    Ewald          (3-D)
                                         =    Parry          (2-D)
                                         =    Saunders et al (1-D)
  Accuracy factor for lattice sums       =   12.000


  Analytic derivatives to be used

  Time limit = Infinity

  Maximum range for interatomic potentials =    100000.000000 Angstroms

  General interatomic potentials :

--------------------------------------------------------------------------------
Atom  Types   Potential      Parameter       Value         Units   Cutoffs(Ang)
  1     2                                                            Min /  Max 
--------------------------------------------------------------------------------
O    c O    s Spring (c-s)  Spring k 2       593.71600    eV*Ang^-2 0.000  0.800
                            Spring k 4       0.0000000    eV*Ang^-4 
--------------------------------------------------------------------------------
Cl   c Cl   s Spring (c-s)  Spring k 2       29.380000    eV*Ang^-2 0.000  0.800
                            Spring k 4       0.0000000    eV*Ang^-4 
--------------------------------------------------------------------------------
Mg   c Mg   s Spring (c-s)  Spring k 2       361.60000    eV*Ang^-2 0.000  0.800
                            Spring k 4       0.0000000    eV*Ang^-4 
--------------------------------------------------------------------------------
Ca   c Ca   s Spring (c-s)  Spring k 2       110.20000    eV*Ang^-2 0.000  0.800
                            Spring k 4       0.0000000    eV*Ang^-4 
--------------------------------------------------------------------------------
Sr   c Sr   s Spring (c-s)  Spring k 2       71.700000    eV*Ang^-2 0.000  0.800
                            Spring k 4       0.0000000    eV*Ang^-4 
--------------------------------------------------------------------------------
Ba   c Ba   s Spring (c-s)  Spring k 2       495.20000    eV*Ang^-2 0.000  0.800
                            Spring k 4       0.0000000    eV*Ang^-4 
--------------------------------------------------------------------------------
Na   c Na   c Buckingham    Buckingham A     1788.1900    eV        0.000 12.000
                            Buckingham rho  0.15900000    Ang       
                            Buckingham C     0.0000000    eV*Ang^6  
--------------------------------------------------------------------------------
Na   c O    s Buckingham    Buckingham A     588.38000    eV        0.000 12.000
                            Buckingham rho  0.33800000    Ang       
                            Buckingham C     0.0000000    eV*Ang^6  
--------------------------------------------------------------------------------
Na   c Cl   s Buckingham    Buckingham A     1170.4100    eV        0.000 12.000
                            Buckingham rho  0.31500000    Ang       
                            Buckingham C     0.0000000    eV*Ang^6  
--------------------------------------------------------------------------------
O    s O    s Buckingham    Buckingham A     22764.300    eV        0.000 12.000
                            Buckingham rho  0.14900000    Ang       
                            Buckingham C     13.190000    eV*Ang^6  
--------------------------------------------------------------------------------
O    s Cl   s Buckingham    Buckingham A     8286.9100    eV        0.000 12.000
                            Buckingham rho  0.25900000    Ang       
                            Buckingham C     62.200000    eV*Ang^6  
--------------------------------------------------------------------------------
Cl   s Cl   s Buckingham    Buckingham A     1227.2000    eV        0.000 12.000
                            Buckingham rho  0.32100000    Ang       
                            Buckingham C     14.530000    eV*Ang^6  
--------------------------------------------------------------------------------
O    s Mg   s Buckingham    Buckingham A     1428.5000    eV        0.000 12.000
                            Buckingham rho  0.29450000    Ang       
                            Buckingham C     0.0000000    eV*Ang^6  
--------------------------------------------------------------------------------
Mg   s Cl   s Buckingham    Buckingham A     4914.5400    eV        0.000 12.000
                            Buckingham rho  0.25700000    Ang       
                            Buckingham C     0.0000000    eV*Ang^6  
--------------------------------------------------------------------------------
O    s Ca   s Buckingham    Buckingham A     1090.4000    eV        0.000 12.000
                            Buckingham rho  0.34370000    Ang       
                            Buckingham C     0.0000000    eV*Ang^6  
--------------------------------------------------------------------------------
Cl   s Ca   s Buckingham    Buckingham A     2302.0000    eV        0.000 12.000
                            Buckingham rho  0.34020000    Ang       
                            Buckingham C     0.0000000    eV*Ang^6  
--------------------------------------------------------------------------------
O    s Sr   s Buckingham    Buckingham A     959.10000    eV        0.000 12.000
                            Buckingham rho  0.37210000    Ang       
                            Buckingham C     0.0000000    eV*Ang^6  
--------------------------------------------------------------------------------
Cl   s Sr   s Buckingham    Buckingham A     2191.0900    eV        0.000 12.000
                            Buckingham rho  0.34570000    Ang       
                            Buckingham C     0.0000000    eV*Ang^6  
--------------------------------------------------------------------------------
O    s Ba   s Buckingham    Buckingham A     905.70000    eV        0.000 12.000
                            Buckingham rho  0.39760000    Ang       
                            Buckingham C     0.0000000    eV*Ang^6  
--------------------------------------------------------------------------------
Cl   s Ba   s Buckingham    Buckingham A     2704.5500    eV        0.000 12.000
                            Buckingham rho  0.35280000    Ang       
                            Buckingham C     0.0000000    eV*Ang^6  
--------------------------------------------------------------------------------

********************************************************************************
*  Output for configuration   1                                                *
********************************************************************************


  Components of energy : 

--------------------------------------------------------------------------------
  Interatomic potentials     =           4.94315381 eV    
  Monopole - monopole (real) =         -10.03624526 eV    
  Monopole - monopole (recip)=         -29.53581274 eV    
  Monopole - monopole (total)=         -39.57205800 eV    
--------------------------------------------------------------------------------
  Total lattice energy       =         -34.62890419 eV    
--------------------------------------------------------------------------------
  Total lattice energy       =           -3341.1599 kJ/(mole unit cells)
--------------------------------------------------------------------------------


  Number of variables =        1

  Maximum number of calculations  =          1000
  Maximum Hessian update interval =            10
  Maximum step size               =   1.000000000
  Maximum parameter tolerance     =   0.000010000
  Maximum function  tolerance     =   0.000010000
  Maximum gradient  tolerance     =   0.001000000
  Maximum gradient  component     =   0.010000000

  Symmetry constrained optimisation

  Symmetry used for second derivatives

  Cell parameters to be optimised using strains

  Newton-Raphson optimiser to be used

  BFGS hessian update to be used

  Lower half triangular hessian to be used

  Start of bulk optimisation :

  Cycle:      0 Energy:       -34.628904  Gnorm:      4.328237  CPU:    0.022
  ** Hessian calculated **
  Cycle:      1 Energy:       -34.677667  Gnorm:      0.044008  CPU:    0.026
  Cycle:      2 Energy:       -34.677671  Gnorm:      0.003653  CPU:    0.029


  **** Optimisation achieved ****


  Final energy =     -34.67767136 eV
  Final Gnorm  =       0.00000010

  Components of energy : 

--------------------------------------------------------------------------------
  Interatomic potentials     =           5.77546103 eV    
  Monopole - monopole (real) =         -10.25970290 eV    
  Monopole - monopole (recip)=         -30.19342950 eV    
  Monopole - monopole (total)=         -40.45313239 eV    
--------------------------------------------------------------------------------
  Total lattice energy       =         -34.67767136 eV    
--------------------------------------------------------------------------------
  Total lattice energy       =           -3345.8652 kJ/(mole unit cells)
--------------------------------------------------------------------------------

  Final asymmetric unit coordinates :

--------------------------------------------------------------------------------
   No.  Atomic        x           y           z         Radius
        Label       (Frac)      (Frac)      (Frac)       (Angs) 
--------------------------------------------------------------------------------
     1  Cl    c     0.000000    0.000000    0.000000    0.000000
     2  O     c     0.500000    0.500000    0.500000    0.000000
     3  Na    c     0.500000    0.500000    0.000000    0.000000
     4  Cl    s     0.000000    0.000000    0.000000    0.000000
     5  O     s     0.500000    0.500000    0.500000    0.000000
--------------------------------------------------------------------------------

  Final Cartesian lattice vectors (Angstroms) :

        4.405902    0.000000    0.000000
        0.000000    4.405902    0.000000
        0.000000    0.000000    4.405902


  Final cell parameters and derivatives :

--------------------------------------------------------------------------------
       a            4.405902 Angstrom     dE/de1(xx)     0.000000 eV/strain
       b            4.405902 Angstrom     dE/de2(yy)     0.000000 eV/strain
       c            4.405902 Angstrom     dE/de3(zz)     0.000000 eV/strain
       alpha       90.000000 Degrees      dE/de4(yz)     0.000000 eV/strain
       beta        90.000000 Degrees      dE/de5(xz)     0.000000 eV/strain
       gamma       90.000000 Degrees      dE/de6(xy)     0.000000 eV/strain
--------------------------------------------------------------------------------

  Primitive cell volume =            85.527266 Angs**3

  Density of cell =      2.338030 g/cm**3

  Non-primitive cell volume =            85.527266 Angs**3


  Final internal derivatives :

--------------------------------------------------------------------------------
   No.  Atomic          a             b             c           Radius
        Label          (eV)          (eV)          (eV)        (eV/Angs)
--------------------------------------------------------------------------------
      1 Cl    c       0.000000      0.000000      0.000000      0.000000
      2 O     c       0.000000      0.000000      0.000000      0.000000
      3 Na    c       0.000000      0.000000      0.000000      0.000000
      4 Cl    s       0.000000      0.000000      0.000000      0.000000
      5 O     s       0.000000      0.000000      0.000000      0.000000
--------------------------------------------------------------------------------
  Maximum abs         0.000000      0.000000      0.000000      0.000000
--------------------------------------------------------------------------------

  Comparison of initial and final structures : 

--------------------------------------------------------------------------------
  Parameter   Initial value   Final value   Difference    Units      Percent
--------------------------------------------------------------------------------
    Volume        91.368216     85.527266    -5.840950    Angs**3     -6.39
    a              4.504000      4.405902    -0.098098    Angstroms   -2.18
    b              4.504000      4.405902    -0.098098    Angstroms   -2.18
    c              4.504000      4.405902    -0.098098    Angstroms   -2.18
    alpha         90.000000     90.000000     0.000000    Degrees      0.00
    beta          90.000000     90.000000     0.000000    Degrees      0.00
    gamma         90.000000     90.000000     0.000000    Degrees      0.00
      1 x          0.000000      0.000000     0.000000    Fractional   0.00
      1 y          0.000000      0.000000     0.000000    Fractional   0.00
      1 z          0.000000      0.000000     0.000000    Fractional   0.00
      2 x          0.500000      0.500000     0.000000    Fractional   0.00
      2 y          0.500000      0.500000     0.000000    Fractional   0.00
      2 z          0.500000      0.500000     0.000000    Fractional   0.00
      3 x          0.500000      0.500000     0.000000    Fractional   0.00
      3 y          0.500000      0.500000     0.000000    Fractional   0.00
      3 z          0.000000      0.000000     0.000000    Fractional   0.00
      4 x          0.000000      0.000000     0.000000    Fractional   0.00
      4 y          0.000000      0.000000     0.000000    Fractional   0.00
      4 z          0.000000      0.000000     0.000000    Fractional   0.00
      5 x          0.500000      0.500000     0.000000    Fractional   0.00
      5 y          0.500000      0.500000     0.000000    Fractional   0.00
      5 z          0.500000      0.500000     0.000000    Fractional   0.00
--------------------------------------------------------------------------------


  Born effective charge tensors : 

-------------------------------------------------------------------------------
  Atom             x           y             z
-------------------------------------------------------------------------------
    1 Cl    x      -0.9918     -0.0000     -0.0000
            y      -0.0000     -0.9918     -0.0000
            z      -0.0000     -0.0000     -0.9918
-------------------------------------------------------------------------------
    2 O     x      -2.2939      0.0000      0.0000
            y       0.0000     -2.2939      0.0000
            z       0.0000      0.0000     -2.2939
-------------------------------------------------------------------------------
    3 Na    x       1.2243      0.0000      0.0000
            y       0.0000      1.2243     -0.0000
            z       0.0000      0.0000      0.8372
-------------------------------------------------------------------------------




  Elastic Constant Matrix: (Units=GPa)

-------------------------------------------------------------------------------
  Indices      1         2         3         4         5         6    
-------------------------------------------------------------------------------
       1     82.7680   24.3534   24.3534   -0.0000    0.0000   -0.0000
       2     24.3534   82.7680   24.3534    0.0000   -0.0000   -0.0000
       3     24.3534   24.3534   82.7680    0.0000   -0.0000    0.0000
       4     -0.0000    0.0000    0.0000   24.3534   -0.0000    0.0000
       5      0.0000   -0.0000   -0.0000   -0.0000   24.3534    0.0000
       6     -0.0000   -0.0000    0.0000    0.0000    0.0000   24.3534
-------------------------------------------------------------------------------


  Elastic Compliance Matrix: (Units=1/GPa)

-------------------------------------------------------------------------------
  Indices      1         2         3         4         5         6    
-------------------------------------------------------------------------------
       1    0.013948 -0.003171 -0.003171  0.000000 -0.000000  0.000000
       2   -0.003171  0.013948 -0.003171 -0.000000  0.000000 -0.000000
       3   -0.003171 -0.003171  0.013948 -0.000000  0.000000 -0.000000
       4    0.000000 -0.000000 -0.000000  0.041062  0.000000 -0.000000
       5   -0.000000  0.000000  0.000000  0.000000  0.041062 -0.000000
       6    0.000000 -0.000000 -0.000000 -0.000000 -0.000000  0.041062
-------------------------------------------------------------------------------

  Mechanical properties :

-------------------------------------------------------------------------------
  Convention :                    Reuss         Voigt         Hill
-------------------------------------------------------------------------------
  Bulk  Modulus (GPa)     =      43.82493      43.82493      43.82493
  Shear Modulus (GPa)     =      26.08758      26.29496      26.19127
-------------------------------------------------------------------------------
  Velocity S-wave (km/s)  =       3.34035       3.35360       3.34698
  Velocity P-wave (km/s)  =       5.79842       5.80861       5.80351
-------------------------------------------------------------------------------
  Compressibility (1/GPa) =    0.02281806
-------------------------------------------------------------------------------
  Stress axis :                     x             y             z
-------------------------------------------------------------------------------
  Youngs Moduli (GPa)     =      71.69479      71.69479      71.69479
-------------------------------------------------------------------------------
  Poissons Ratio (x)      =                     0.22734       0.22734
  Poissons Ratio (y)      =       0.22734                     0.22734
  Poissons Ratio (z)      =       0.22734       0.22734
-------------------------------------------------------------------------------


  Piezoelectric Strain Matrix: (Units=C/m**2)

-------------------------------------------------------------------------------
  Indices      1         2         3         4         5         6    
-------------------------------------------------------------------------------
       x    -0.00000  -0.00000  -0.00000  -0.00000   0.00000  -0.00000
       y     0.00000  -0.00000   0.00000   0.00000  -0.00000   0.00000
       z    -0.00000  -0.00000   0.00000  -0.00000   0.00000  -0.00000
-------------------------------------------------------------------------------


  Piezoelectric Stress Matrix: (Units=10**-11 C/N)

-------------------------------------------------------------------------------
  Indices      1         2         3         4         5         6    
-------------------------------------------------------------------------------
       x     0.00000  -0.00000  -0.00000  -0.00000   0.00000  -0.00000
       y     0.00000  -0.00000   0.00000   0.00000  -0.00000   0.00000
       z    -0.00000  -0.00000   0.00000  -0.00000   0.00000  -0.00000
-------------------------------------------------------------------------------


  Static dielectric constant tensor : 

-------------------------------------------------------------------------------
              x         y         z
-------------------------------------------------------------------------------
       x    11.08357   0.00000   0.00000
       y     0.00000  11.08357   0.00000
       z     0.00000   0.00000  11.08357
--------------------------------------------------------------------------------

  High frequency dielectric constant tensor : 

-------------------------------------------------------------------------------
              x         y         z
-------------------------------------------------------------------------------
       x     1.50771   0.00000   0.00000
       y     0.00000   1.50771   0.00000
       z     0.00000   0.00000   1.50771
-------------------------------------------------------------------------------

  Static refractive indices : 

-------------------------------------------------------------------------------
    1 =    3.32920      2 =    3.32920      3 =    3.32920
-------------------------------------------------------------------------------

  High frequency refractive indices : 

-------------------------------------------------------------------------------
    1 =    1.22789      2 =    1.22789      3 =    1.22789
-------------------------------------------------------------------------------


  Time to end of optimisation =       0.0383 seconds

********************************************************************************
*  Defect calculation for configuration   1 :                                  *
********************************************************************************

  Total number of defects =      3

  Total charge on defect  =   1.00

  Defect centre is at   2.2520   0.0000   0.0000  Angs

  Region 1 radius =  12.0000      Number of ions =    622

  Number of symmetry inequivalent region 1 ions  =    120

  Region 2 radius =  16.0000      Number of ions =    760

  Number of symmetry inequivalent region 2a ions =    123

  Region 2a mode = 4 : screened electrostatics due to region 1 
                       neglect correction to region 1 forces from 2a
                       region 2a displacements based on defects only

  Region 2a ions will only interact with defects in region 1

  Vacancies:

--------------------------------------------------------------------------------
    Specification type     Symbol/Number         x          y          z
--------------------------------------------------------------------------------
    Cartesian                                4.504000   0.000000   0.000000
    Cartesian                                0.000000   0.000000   0.000000
--------------------------------------------------------------------------------

  Interstitials:

--------------------------------------------------------------------------------
    Specification type     Symbol/Number         x          y          z
--------------------------------------------------------------------------------
    Atom/Cartesian          Cl               3.693280   0.000000   0.000000
--------------------------------------------------------------------------------


  Symmetry reduced region 1 (Relative to defect centre) :

--------------------------------------------------------------------------------
   No.   Atomic       x            y             z       Radius  Multiplicity   
         Label      (Angs)       (Angs)        (Angs)    (Angs)     
--------------------------------------------------------------------------------
     1  Cl    c      1.4413       0.0000       0.0000    0.0000     1    Defect
     2  Na    c     -0.0490 *    -2.2030 *     0.0000    0.0000     4          
     3  O     c     -0.0490 *    -2.2030 *    -2.2030    0.0000     4          
     4  Na    c      2.1539 *    -2.2030 *    -2.2030    0.0000     4          
     5  Na    c     -2.2520 *    -2.2030 *    -2.2030    0.0000     4          
     6  Na    c      4.3569 *    -2.2030 *     0.0000    0.0000     4          
     7  Cl    c      2.1539 *     0.0000       4.4059 *  0.0000     4          
     8  Na    c     -0.0490 *    -2.2030 *     4.4059 *  0.0000     8          
     9  Cl    c     -2.2520 *     0.0000       4.4059 *  0.0000     4          
    10  Na    c     -4.4550 *    -2.2030 *     0.0000    0.0000     4          
    11  O     c      4.3569 *    -2.2030 *    -2.2030    0.0000     4          
    12  O     c     -4.4550 *    -2.2030 *    -2.2030    0.0000     4          
    13  Cl    c      6.5598 *     0.0000       0.0000    0.0000     1          
    14  Na    c      4.3569 *     4.4059 *    -2.2030 *  0.0000     8          
    15  Cl    c      2.1539 *     4.4059 *     4.4059    0.0000     4          
    16  Na    c     -0.0490 *     6.6089 *     0.0000    0.0000     4          
    17  Cl    c     -2.2520 *     4.4059 *     4.4059    0.0000     4          
    18  Na    c     -4.4550 *    -2.2030 *     4.4059 *  0.0000     8          
    19  Cl    c     -6.6579 *     0.0000       0.0000    0.0000     1          
    20  O     c     -0.0490 *    -2.2030 *     6.6089 *  0.0000     8          
    21  Na    c      6.5598 *    -2.2030 *    -2.2030    0.0000     4          
    22  Na    c      2.1539 *    -2.2030 *     6.6089 *  0.0000     8          
    23  Na    c     -2.2520 *     6.6089 *    -2.2030 *  0.0000     8          
    24  Na    c     -6.6579 *    -2.2030 *    -2.2030    0.0000     4          
    25  Cl    c      6.5598 *     0.0000       4.4059 *  0.0000     4          
    26  Na    c      4.3569 *     6.6089 *     0.0000    0.0000     4          
    27  Na    c     -0.0490 *     6.6089 *     4.4059 *  0.0000     8          
    28  Na    c     -4.4550 *     6.6089 *     0.0000    0.0000     4          
    29  Cl    c     -6.6579 *     0.0000       4.4059 *  0.0000     4          
    30  O     c      4.3569 *    -2.2030 *     6.6089 *  0.0000     8          
    31  O     c     -4.4550 *    -2.2030 *     6.6089 *  0.0000     8          
    32  Na    c      8.7628 *    -2.2030 *     0.0000    0.0000     4          
    33  Cl    c      6.5598 *     4.4059 *     4.4059    0.0000     4          
    34  Na    c      4.3569 *     6.6089 *     4.4059 *  0.0000     8          
    35  Cl    c      2.1539 *     0.0000       8.8118 *  0.0000     4          
    36  Na    c     -0.0490 *    -2.2030 *     8.8118 *  0.0000     8          
    37  Cl    c     -2.2520 *     0.0000       8.8118 *  0.0000     4          
    38  Na    c     -4.4550 *     6.6089 *     4.4059 *  0.0000     8          
    39  Cl    c     -6.6579 *     4.4059 *     4.4059    0.0000     4          
    40  Na    c     -8.8609 *    -2.2030 *     0.0000    0.0000     4          
    41  O     c      8.7628 *    -2.2030 *    -2.2030    0.0000     4          
    42  O     c     -0.0490 *     6.6089 *     6.6089    0.0000     4          
    43  O     c     -8.8609 *    -2.2030 *    -2.2030    0.0000     4          
    44  Na    c      6.5598 *    -2.2030 *     6.6089 *  0.0000     8          
    45  Na    c      2.1539 *     6.6089 *     6.6089    0.0000     4          
    46  Na    c     -2.2520 *     6.6089 *     6.6089    0.0000     4          
    47  Na    c     -6.6579 *    -2.2030 *     6.6089 *  0.0000     8          
    48  Na    c      8.7628 *     4.4059 *    -2.2030 *  0.0000     8          
    49  Na    c      4.3569 *    -2.2030 *     8.8118 *  0.0000     8          
    50  Cl    c      2.1539 *     4.4059 *     8.8118 *  0.0000     8          
    51  Cl    c     -2.2520 *     4.4059 *     8.8118 *  0.0000     8          
    52  Na    c     -4.4550 *    -2.2030 *     8.8118 *  0.0000     8          
    53  Na    c     -8.8609 *    -2.2030 *     4.4059 *  0.0000     8          
    54  O     c      4.3569 *     6.6089 *     6.6089    0.0000     4          
    55  O     c     -4.4550 *     6.6089 *     6.6089    0.0000     4          
    56  Cl    c     10.9657 *     0.0000       0.0000    0.0000     1          
    57  Na    c      8.7628 *     6.6089 *     0.0000    0.0000     4          
    58  Cl    c      6.5598 *     0.0000       8.8118 *  0.0000     4          
    59  Na    c     -0.0490 *     6.6089 *     8.8118 *  0.0000     8          
    60  Na    c     -0.0490 *    11.0148 *     0.0000    0.0000     4          
    61  Cl    c     -6.6579 *     0.0000       8.8118 *  0.0000     4          
    62  Na    c     -8.8609 *     6.6089 *     0.0000    0.0000     4          
    63  Cl    c    -11.0638 *     0.0000       0.0000    0.0000     1          
    64  O     c      8.7628 *    -2.2030 *     6.6089 *  0.0000     8          
    65  O     c     -0.0490 *    -2.2030 *    11.0148 *  0.0000     8          
    66  O     c     -8.8609 *     6.6089 *    -2.2030 *  0.0000     8          
    67  Na    c     10.9657 *    -2.2030 *    -2.2030    0.0000     4          
    68  Na    c      6.5598 *     6.6089 *     6.6089    0.0000     4          
    69  Na    c      2.1539 *    -2.2030 *    11.0148 *  0.0000     8          
    70  Na    c     -2.2520 *    -2.2030 *    11.0148 *  0.0000     8          
    71  Na    c     -6.6579 *     6.6089 *     6.6089    0.0000     4          
    72  Na    c    -11.0638 *    -2.2030 *    -2.2030    0.0000     4          
    73  Cl    c     10.9657 *     0.0000       4.4059 *  0.0000     4          
    74  Na    c      8.7628 *     6.6089 *     4.4059 *  0.0000     8          
    75  Cl    c      6.5598 *     4.4059 *     8.8118 *  0.0000     8          
    76  Na    c      4.3569 *    11.0148 *     0.0000    0.0000     4          
    77  Na    c      4.3569 *     6.6089 *     8.8118 *  0.0000     8          
    78  Na    c     -0.0490 *    11.0148 *     4.4059 *  0.0000     8          
    79  Na    c     -4.4550 *    11.0148 *     0.0000    0.0000     4          
    80  Na    c     -4.4550 *     8.8118 *     6.6089 *  0.0000     8          
    81  Cl    c     -6.6579 *     4.4059 *     8.8118 *  0.0000     8          
    82  Na    c     -8.8609 *     6.6089 *     4.4059 *  0.0000     8          
    83  Cl    c    -11.0638 *     0.0000       4.4059 *  0.0000     4          
    84  Cl    s      1.4413       0.0000       0.0000    0.0000     1    Defect
    85  O     s     -0.0490 *    -2.2030 *    -2.2030    0.0000     4          
    86  Cl    s      2.1539 *     0.0000       4.4059 *  0.0000     4          
    87  Cl    s     -2.2520 *     0.0000       4.4059 *  0.0000     4          
    88  O     s      4.3569 *    -2.2030 *    -2.2030    0.0000     4          
    89  O     s     -4.4550 *    -2.2030 *    -2.2030    0.0000     4          
    90  Cl    s      6.5598 *     0.0000       0.0000    0.0000     1          
    91  Cl    s      2.1539 *     4.4059 *     4.4059    0.0000     4          
    92  Cl    s     -2.2520 *     4.4059 *     4.4059    0.0000     4          
    93  Cl    s     -6.6579 *     0.0000       0.0000    0.0000     1          
    94  O     s     -0.0490 *    -2.2030 *     6.6089 *  0.0000     8          
    95  Cl    s      6.5598 *     0.0000       4.4059 *  0.0000     4          
    96  Cl    s     -6.6579 *     0.0000       4.4059 *  0.0000     4          
    97  O     s      4.3569 *    -2.2030 *     6.6089 *  0.0000     8          
    98  O     s     -4.4550 *    -2.2030 *     6.6089 *  0.0000     8          
    99  Cl    s      6.5598 *     4.4059 *     4.4059    0.0000     4          
   100  Cl    s      2.1539 *     0.0000       8.8118 *  0.0000     4          
   101  Cl    s     -2.2520 *     0.0000       8.8118 *  0.0000     4          
   102  Cl    s     -6.6579 *     4.4059 *     4.4059    0.0000     4          
   103  O     s      8.7628 *    -2.2030 *    -2.2030    0.0000     4          
   104  O     s     -0.0490 *     6.6089 *     6.6089    0.0000     4          
   105  O     s     -8.8609 *    -2.2030 *    -2.2030    0.0000     4          
   106  Cl    s      2.1539 *     4.4059 *     8.8118 *  0.0000     8          
   107  Cl    s     -2.2520 *     4.4059 *     8.8118 *  0.0000     8          
   108  O     s      4.3569 *     6.6089 *     6.6089    0.0000     4          
   109  O     s     -4.4550 *     6.6089 *     6.6089    0.0000     4          
   110  Cl    s     10.9657 *     0.0000       0.0000    0.0000     1          
   111  Cl    s      6.5598 *     0.0000       8.8118 *  0.0000     4          
   112  Cl    s     -6.6579 *     0.0000       8.8118 *  0.0000     4          
   113  Cl    s    -11.0638 *     0.0000       0.0000    0.0000     1          
   114  O     s      8.7628 *    -2.2030 *     6.6089 *  0.0000     8          
   115  O     s     -0.0490 *    -2.2030 *    11.0148 *  0.0000     8          
   116  O     s     -8.8609 *     6.6089 *    -2.2030 *  0.0000     8          
   117  Cl    s     10.9657 *     0.0000       4.4059 *  0.0000     4          
   118  Cl    s      6.5598 *     4.4059 *     8.8118 *  0.0000     8          
   119  Cl    s     -6.6579 *     4.4059 *     8.8118 *  0.0000     8          
   120  Cl    s    -11.0638 *     0.0000       4.4059 *  0.0000     4          
--------------------------------------------------------------------------------


  Constraints on symmetry reduced coordinates :

--------------------------------------------------------------------------------
  Constraint no.      Unconstrained     Constrained    Coefficient    
                         Variable         Variable
--------------------------------------------------------------------------------
           1                 3 y             3 z         1.00000
           2                 4 y             4 z         1.00000
           3                 5 y             5 z         1.00000
           4                11 y            11 z         1.00000
           5                12 y            12 z         1.00000
           6                15 y            15 z         1.00000
           7                17 y            17 z         1.00000
           8                21 y            21 z         1.00000
           9                24 y            24 z         1.00000
          10                33 y            33 z         1.00000
          11                39 y            39 z         1.00000
          12                41 y            41 z         1.00000
          13                42 y            42 z         1.00000
          14                43 y            43 z         1.00000
          15                45 y            45 z         1.00000
          16                46 y            46 z         1.00000
          17                54 y            54 z         1.00000
          18                55 y            55 z         1.00000
          19                67 y            67 z         1.00000
          20                68 y            68 z         1.00000
          21                71 y            71 z         1.00000
          22                72 y            72 z         1.00000
          23                85 y            85 z         1.00000
          24                88 y            88 z         1.00000
          25                89 y            89 z         1.00000
          26                91 y            91 z         1.00000
          27                92 y            92 z         1.00000
          28                99 y            99 z         1.00000
          29               102 y           102 z         1.00000
          30               103 y           103 z         1.00000
          31               104 y           104 z         1.00000
          32               105 y           105 z         1.00000
          33               108 y           108 z         1.00000
          34               109 y           109 z         1.00000
--------------------------------------------------------------------------------


  Components of defect energy : 

--------------------------------------------------------------------------------
  Region 1 - region 1                   =     33.94635762 eV
  Region 1 - region 2a (unrelaxed)      =    -25.79989903 eV
  Region 1 - 2a (relaxed - correction)  =     -0.24363214 eV
  Region 1 (Total)                      =      7.90282645 eV
  Region 2a                             =      0.12185761 eV
  Region 2b                             =     -0.41452944 eV
--------------------------------------------------------------------------------
  Total defect energy                   =      7.61015462 eV
--------------------------------------------------------------------------------

  Largest displacement in region 2 =   0.0192 Angstroms


  Number of variables =      271

  Maximum number of calculations  =        1000
  Maximum Hessian update interval =          10
  Maximum step size               =   1.0000000
  Maximum parameter tolerance     =   0.0000100
  Maximum function  tolerance     =   0.0000100
  Maximum gradient  tolerance     =   0.0010000

  Symmetry adapted optimisation

  Symmetry to be used for second derivatives

  Newton-Raphson optimiser to be used

  BFGS hessian update to be used

  Lower half triangular hessian to be used

  Start of defect optimisation :

  Cycle:      0 Defect Energy:   7.610155  Gnorm:     0.093766  CPU:    1.510
  ** Hessian calculated **
  Cycle:      1 Defect Energy:   5.509049  Gnorm:     0.021146  CPU:    3.103
  Cycle:      2 Defect Energy:   5.395547  Gnorm:     0.001924  CPU:    4.268
  Cycle:      3 Defect Energy:   5.390974  Gnorm:     0.000843  CPU:    4.591
  Cycle:      4 Defect Energy:   5.390493  Gnorm:     0.000573  CPU:    5.016
  Cycle:      5 Defect Energy:   5.390287  Gnorm:     0.000390  CPU:    5.355
  Cycle:      6 Defect Energy:   5.390200  Gnorm:     0.000272  CPU:    5.611
  Cycle:      7 Defect Energy:   5.390166  Gnorm:     0.000188  CPU:    5.807
  Cycle:      8 Defect Energy:   5.390155  Gnorm:     0.000132  CPU:    6.006
  Cycle:      9 Defect Energy:   5.390154  Gnorm:     0.000092  CPU:    7.333
  Cycle:     10 Defect Energy:   5.390156  Gnorm:     0.000064  CPU:    8.830
  ** Hessian calculated **


  **** Optimisation achieved ****


  Final defect energy  =        5.39015871
  Final defect Gnorm   =        0.00004500

  Components of defect energy : 

--------------------------------------------------------------------------------
  Region 1 - region 1                   =     29.21483672 eV
  Region 1 - region 2a (unrelaxed)      =    -23.32107962 eV
  Region 1 - 2a (relaxed - correction)  =     -0.18348744 eV
  Region 1 (Total)                      =      5.71026966 eV
  Region 2a                             =      0.09170354 eV
  Region 2b                             =     -0.41181449 eV
--------------------------------------------------------------------------------
  Total defect energy                   =      5.39015871 eV
--------------------------------------------------------------------------------

  Largest displacement in region 2 =   0.0192 Angstroms

  Final coordinates of region 1 :

--------------------------------------------------------------------------------
   No.  Atomic        x           y           z          Radius      Charge
        Label       (Angs)      (Angs)      (Angs)       (Angs)       (e) 
--------------------------------------------------------------------------------
     1  Cl    c     3.693280    0.000000    0.000000    0.000000    1.485000
     2  Na    c     2.191072   -2.333474    0.000000    0.000000    1.000000
     3  Na    c     2.191072    2.333474    0.000000    0.000000    1.000000
     4  Na    c     2.191072    0.000000   -2.333474    0.000000    1.000000
     5  Na    c     2.191072    0.000000    2.333474    0.000000    1.000000
     6  O     c     2.134084   -2.218354   -2.218354    0.000000    0.183000
     7  O     c     2.134084   -2.218354    2.218354    0.000000    0.183000
     8  O     c     2.134084    2.218354   -2.218354    0.000000    0.183000
     9  O     c     2.134084    2.218354    2.218354    0.000000    0.183000
    10  Na    c     4.363190   -2.145700   -2.145700    0.000000    1.000000
    11  Na    c     4.363190   -2.145700    2.145700    0.000000    1.000000
    12  Na    c     4.363190    2.145700   -2.145700    0.000000    1.000000
    13  Na    c     4.363190    2.145700    2.145700    0.000000    1.000000
    14  Na    c    -0.025598   -2.374163   -2.374163    0.000000    1.000000
    15  Na    c    -0.025598   -2.374163    2.374163    0.000000    1.000000
    16  Na    c    -0.025598    2.374163   -2.374163    0.000000    1.000000
    17  Na    c    -0.025598    2.374163    2.374163    0.000000    1.000000
    18  Na    c     6.698512   -2.259708    0.000000    0.000000    1.000000
    19  Na    c     6.698512    2.259708    0.000000    0.000000    1.000000
    20  Na    c     6.698512    0.000000   -2.259708    0.000000    1.000000
    21  Na    c     6.698512    0.000000    2.259708    0.000000    1.000000
    22  Cl    c     4.360701    0.000000    4.368113    0.000000    1.485000
    23  Cl    c     4.360701    0.000000   -4.368113    0.000000    1.485000
    24  Cl    c     4.360701    4.368113    0.000000    0.000000    1.485000
    25  Cl    c     4.360701   -4.368113    0.000000    0.000000    1.485000
    26  Na    c     2.250207   -2.235615    4.427615    0.000000    1.000000
    27  Na    c     2.250207   -2.235615   -4.427615    0.000000    1.000000
    28  Na    c     2.250207    2.235615    4.427615    0.000000    1.000000
    29  Na    c     2.250207    2.235615   -4.427615    0.000000    1.000000
    30  Na    c     2.250207    4.427615   -2.235615    0.000000    1.000000
    31  Na    c     2.250207    4.427615    2.235615    0.000000    1.000000
    32  Na    c     2.250207   -4.427615   -2.235615    0.000000    1.000000
    33  Na    c     2.250207   -4.427615    2.235615    0.000000    1.000000
    34  Cl    c    -0.029640    0.000000    4.364042    0.000000    1.485000
    35  Cl    c    -0.029640    0.000000   -4.364042    0.000000    1.485000
    36  Cl    c    -0.029640    4.364042    0.000000    0.000000    1.485000
    37  Cl    c    -0.029640   -4.364042    0.000000    0.000000    1.485000
    38  Na    c    -2.303746   -2.331119    0.000000    0.000000    1.000000
    39  Na    c    -2.303746    2.331119    0.000000    0.000000    1.000000
    40  Na    c    -2.303746    0.000000   -2.331119    0.000000    1.000000
    41  Na    c    -2.303746    0.000000    2.331119    0.000000    1.000000
    42  O     c     6.570325   -2.186736   -2.186736    0.000000    0.183000
    43  O     c     6.570325   -2.186736    2.186736    0.000000    0.183000
    44  O     c     6.570325    2.186736   -2.186736    0.000000    0.183000
    45  O     c     6.570325    2.186736    2.186736    0.000000    0.183000
    46  O     c    -2.196235   -2.186980   -2.186980    0.000000    0.183000
    47  O     c    -2.196235   -2.186980    2.186980    0.000000    0.183000
    48  O     c    -2.196235    2.186980   -2.186980    0.000000    0.183000
    49  O     c    -2.196235    2.186980    2.186980    0.000000    0.183000
    50  Cl    c     8.756568    0.000000    0.000000    0.000000    1.485000
    51  Na    c     6.542401    4.404812   -2.220743    0.000000    1.000000
    52  Na    c     6.542401    4.404812    2.220743    0.000000    1.000000
    53  Na    c     6.542401   -4.404812   -2.220743    0.000000    1.000000
    54  Na    c     6.542401   -4.404812    2.220743    0.000000    1.000000
    55  Na    c     6.542401   -2.220743    4.404812    0.000000    1.000000
    56  Na    c     6.542401   -2.220743   -4.404812    0.000000    1.000000
    57  Na    c     6.542401    2.220743    4.404812    0.000000    1.000000
    58  Na    c     6.542401    2.220743   -4.404812    0.000000    1.000000
    59  Cl    c     4.381228    4.388807    4.388807    0.000000    1.485000
    60  Cl    c     4.381228    4.388807   -4.388807    0.000000    1.485000
    61  Cl    c     4.381228   -4.388807    4.388807    0.000000    1.485000
    62  Cl    c     4.381228   -4.388807   -4.388807    0.000000    1.485000
    63  Na    c     2.194010    6.625246    0.000000    0.000000    1.000000
    64  Na    c     2.194010   -6.625246    0.000000    0.000000    1.000000
    65  Na    c     2.194010    0.000000    6.625246    0.000000    1.000000
    66  Na    c     2.194010    0.000000   -6.625246    0.000000    1.000000
    67  Cl    c    -0.025309    4.407473    4.407473    0.000000    1.485000
    68  Cl    c    -0.025309    4.407473   -4.407473    0.000000    1.485000
    69  Cl    c    -0.025309   -4.407473    4.407473    0.000000    1.485000
    70  Cl    c    -0.025309   -4.407473   -4.407473    0.000000    1.485000
    71  Na    c    -2.261544   -2.222558    4.421696    0.000000    1.000000
    72  Na    c    -2.261544   -2.222558   -4.421696    0.000000    1.000000
    73  Na    c    -2.261544    2.222558    4.421696    0.000000    1.000000
    74  Na    c    -2.261544    2.222558   -4.421696    0.000000    1.000000
    75  Na    c    -2.261544    4.421696   -2.222558    0.000000    1.000000
    76  Na    c    -2.261544    4.421696    2.222558    0.000000    1.000000
    77  Na    c    -2.261544   -4.421696   -2.222558    0.000000    1.000000
    78  Na    c    -2.261544   -4.421696    2.222558    0.000000    1.000000
    79  Cl    c    -4.350615    0.000000    0.000000    0.000000    1.485000
    80  O     c     2.196133   -2.204885    6.615137    0.000000    0.183000
    81  O     c     2.196133   -2.204885   -6.615137    0.000000    0.183000
    82  O     c     2.196133    2.204885    6.615137    0.000000    0.183000
    83  O     c     2.196133    2.204885   -6.615137    0.000000    0.183000
    84  O     c     2.196133    6.615137   -2.204885    0.000000    0.183000
    85  O     c     2.196133    6.615137    2.204885    0.000000    0.183000
    86  O     c     2.196133   -6.615137   -2.204885    0.000000    0.183000
    87  O     c     2.196133   -6.615137    2.204885    0.000000    0.183000
    88  Na    c     8.798954   -2.249707   -2.249707    0.000000    1.000000
    89  Na    c     8.798954   -2.249707    2.249707    0.000000    1.000000
    90  Na    c     8.798954    2.249707   -2.249707    0.000000    1.000000
    91  Na    c     8.798954    2.249707    2.249707    0.000000    1.000000
    92  Na    c     4.399891   -2.204310    6.672183    0.000000    1.000000
    93  Na    c     4.399891   -2.204310   -6.672183    0.000000    1.000000
    94  Na    c     4.399891    2.204310    6.672183    0.000000    1.000000
    95  Na    c     4.399891    2.204310   -6.672183    0.000000    1.000000
    96  Na    c     4.399891    6.672183   -2.204310    0.000000    1.000000
    97  Na    c     4.399891    6.672183    2.204310    0.000000    1.000000
    98  Na    c     4.399891   -6.672183   -2.204310    0.000000    1.000000
    99  Na    c     4.399891   -6.672183    2.204310    0.000000    1.000000
   100  Na    c    -0.005997    6.602446   -2.208511    0.000000    1.000000
   101  Na    c    -0.005997    6.602446    2.208511    0.000000    1.000000
   102  Na    c    -0.005997   -6.602446   -2.208511    0.000000    1.000000
   103  Na    c    -0.005997   -6.602446    2.208511    0.000000    1.000000
   104  Na    c    -0.005997   -2.208511    6.602446    0.000000    1.000000
   105  Na    c    -0.005997   -2.208511   -6.602446    0.000000    1.000000
   106  Na    c    -0.005997    2.208511    6.602446    0.000000    1.000000
   107  Na    c    -0.005997    2.208511   -6.602446    0.000000    1.000000
   108  Na    c    -4.424986   -2.194392   -2.194392    0.000000    1.000000
   109  Na    c    -4.424986   -2.194392    2.194392    0.000000    1.000000
   110  Na    c    -4.424986    2.194392   -2.194392    0.000000    1.000000
   111  Na    c    -4.424986    2.194392    2.194392    0.000000    1.000000
   112  Cl    c     8.777195    0.000000    4.385131    0.000000    1.485000
   113  Cl    c     8.777195    0.000000   -4.385131    0.000000    1.485000
   114  Cl    c     8.777195    4.385131    0.000000    0.000000    1.485000
   115  Cl    c     8.777195   -4.385131    0.000000    0.000000    1.485000
   116  Na    c     6.625567    6.609551    0.000000    0.000000    1.000000
   117  Na    c     6.625567   -6.609551    0.000000    0.000000    1.000000
   118  Na    c     6.625567    0.000000    6.609551    0.000000    1.000000
   119  Na    c     6.625567    0.000000   -6.609551    0.000000    1.000000
   120  Na    c     2.201484    6.638160    4.413331    0.000000    1.000000
   121  Na    c     2.201484    6.638160   -4.413331    0.000000    1.000000
   122  Na    c     2.201484   -6.638160    4.413331    0.000000    1.000000
   123  Na    c     2.201484   -6.638160   -4.413331    0.000000    1.000000
   124  Na    c     2.201484    4.413331    6.638160    0.000000    1.000000
   125  Na    c     2.201484    4.413331   -6.638160    0.000000    1.000000
   126  Na    c     2.201484   -4.413331    6.638160    0.000000    1.000000
   127  Na    c     2.201484   -4.413331   -6.638160    0.000000    1.000000
   128  Na    c    -2.204606    6.624591    0.000000    0.000000    1.000000
   129  Na    c    -2.204606   -6.624591    0.000000    0.000000    1.000000
   130  Na    c    -2.204606    0.000000    6.624591    0.000000    1.000000
   131  Na    c    -2.204606    0.000000   -6.624591    0.000000    1.000000
   132  Cl    c    -4.385017    0.000000    4.375343    0.000000    1.485000
   133  Cl    c    -4.385017    0.000000   -4.375343    0.000000    1.485000
   134  Cl    c    -4.385017    4.375343    0.000000    0.000000    1.485000
   135  Cl    c    -4.385017   -4.375343    0.000000    0.000000    1.485000
   136  O     c     6.596016   -2.201098    6.604915    0.000000    0.183000
   137  O     c     6.596016   -2.201098   -6.604915    0.000000    0.183000
   138  O     c     6.596016    2.201098    6.604915    0.000000    0.183000
   139  O     c     6.596016    2.201098   -6.604915    0.000000    0.183000
   140  O     c     6.596016    6.604915   -2.201098    0.000000    0.183000
   141  O     c     6.596016    6.604915    2.201098    0.000000    0.183000
   142  O     c     6.596016   -6.604915   -2.201098    0.000000    0.183000
   143  O     c     6.596016   -6.604915    2.201098    0.000000    0.183000
   144  O     c    -2.208037   -2.203695    6.609676    0.000000    0.183000
   145  O     c    -2.208037   -2.203695   -6.609676    0.000000    0.183000
   146  O     c    -2.208037    2.203695    6.609676    0.000000    0.183000
   147  O     c    -2.208037    2.203695   -6.609676    0.000000    0.183000
   148  O     c    -2.208037    6.609676   -2.203695    0.000000    0.183000
   149  O     c    -2.208037    6.609676    2.203695    0.000000    0.183000
   150  O     c    -2.208037   -6.609676   -2.203695    0.000000    0.183000
   151  O     c    -2.208037   -6.609676    2.203695    0.000000    0.183000
   152  Na    c    10.989355   -2.203034    0.000000    0.000000    1.000000
   153  Na    c    10.989355    2.203034    0.000000    0.000000    1.000000
   154  Na    c    10.989355    0.000000   -2.203034    0.000000    1.000000
   155  Na    c    10.989355    0.000000    2.203034    0.000000    1.000000
   156  Cl    c     8.781959    4.390125    4.390125    0.000000    1.485000
   157  Cl    c     8.781959    4.390125   -4.390125    0.000000    1.485000
   158  Cl    c     8.781959   -4.390125    4.390125    0.000000    1.485000
   159  Cl    c     8.781959   -4.390125   -4.390125    0.000000    1.485000
   160  Na    c     6.612132    6.623755    4.408016    0.000000    1.000000
   161  Na    c     6.612132    6.623755   -4.408016    0.000000    1.000000
   162  Na    c     6.612132   -6.623755    4.408016    0.000000    1.000000
   163  Na    c     6.612132   -6.623755   -4.408016    0.000000    1.000000
   164  Na    c     6.612132    4.408016    6.623755    0.000000    1.000000
   165  Na    c     6.612132    4.408016   -6.623755    0.000000    1.000000
   166  Na    c     6.612132   -4.408016    6.623755    0.000000    1.000000
   167  Na    c     6.612132   -4.408016   -6.623755    0.000000    1.000000
   168  Cl    c     4.395919    0.000000    8.799582    0.000000    1.485000
   169  Cl    c     4.395919    0.000000   -8.799582    0.000000    1.485000
   170  Cl    c     4.395919    8.799582    0.000000    0.000000    1.485000
   171  Cl    c     4.395919   -8.799582    0.000000    0.000000    1.485000
   172  Na    c     2.176043   -2.204562    8.821499    0.000000    1.000000
   173  Na    c     2.176043   -2.204562   -8.821499    0.000000    1.000000
   174  Na    c     2.176043    2.204562    8.821499    0.000000    1.000000
   175  Na    c     2.176043    2.204562   -8.821499    0.000000    1.000000
   176  Na    c     2.176043    8.821499   -2.204562    0.000000    1.000000
   177  Na    c     2.176043    8.821499    2.204562    0.000000    1.000000
   178  Na    c     2.176043   -8.821499   -2.204562    0.000000    1.000000
   179  Na    c     2.176043   -8.821499    2.204562    0.000000    1.000000
   180  Cl    c    -0.005740    0.000000    8.796420    0.000000    1.485000
   181  Cl    c    -0.005740    0.000000   -8.796420    0.000000    1.485000
   182  Cl    c    -0.005740    8.796420    0.000000    0.000000    1.485000
   183  Cl    c    -0.005740   -8.796420    0.000000    0.000000    1.485000
   184  Na    c    -2.203197    6.631072    4.412995    0.000000    1.000000
   185  Na    c    -2.203197    6.631072   -4.412995    0.000000    1.000000
   186  Na    c    -2.203197   -6.631072    4.412995    0.000000    1.000000
   187  Na    c    -2.203197   -6.631072   -4.412995    0.000000    1.000000
   188  Na    c    -2.203197    4.412995    6.631072    0.000000    1.000000
   189  Na    c    -2.203197    4.412995   -6.631072    0.000000    1.000000
   190  Na    c    -2.203197   -4.412995    6.631072    0.000000    1.000000
   191  Na    c    -2.203197   -4.412995   -6.631072    0.000000    1.000000
   192  Cl    c    -4.388494    4.378248    4.378248    0.000000    1.485000
   193  Cl    c    -4.388494    4.378248   -4.378248    0.000000    1.485000
   194  Cl    c    -4.388494   -4.378248    4.378248    0.000000    1.485000
   195  Cl    c    -4.388494   -4.378248   -4.378248    0.000000    1.485000
   196  Na    c    -6.650400   -2.208153    0.000000    0.000000    1.000000
   197  Na    c    -6.650400    2.208153    0.000000    0.000000    1.000000
   198  Na    c    -6.650400    0.000000   -2.208153    0.000000    1.000000
   199  Na    c    -6.650400    0.000000    2.208153    0.000000    1.000000
   200  O     c    11.001171   -2.204048   -2.204048    0.000000    0.183000
   201  O     c    11.001171   -2.204048    2.204048    0.000000    0.183000
   202  O     c    11.001171    2.204048   -2.204048    0.000000    0.183000
   203  O     c    11.001171    2.204048    2.204048    0.000000    0.183000
   204  O     c     2.200255    6.612795    6.612795    0.000000    0.183000
   205  O     c     2.200255    6.612795   -6.612795    0.000000    0.183000
   206  O     c     2.200255   -6.612795    6.612795    0.000000    0.183000
   207  O     c     2.200255   -6.612795   -6.612795    0.000000    0.183000
   208  O     c    -6.613927   -2.201993   -2.201993    0.000000    0.183000
   209  O     c    -6.613927   -2.201993    2.201993    0.000000    0.183000
   210  O     c    -6.613927    2.201993   -2.201993    0.000000    0.183000
   211  O     c    -6.613927    2.201993    2.201993    0.000000    0.183000
   212  Na    c     8.806249   -2.215682    6.585184    0.000000    1.000000
   213  Na    c     8.806249   -2.215682   -6.585184    0.000000    1.000000
   214  Na    c     8.806249    2.215682    6.585184    0.000000    1.000000
   215  Na    c     8.806249    2.215682   -6.585184    0.000000    1.000000
   216  Na    c     8.806249    6.585184   -2.215682    0.000000    1.000000
   217  Na    c     8.806249    6.585184    2.215682    0.000000    1.000000
   218  Na    c     8.806249   -6.585184   -2.215682    0.000000    1.000000
   219  Na    c     8.806249   -6.585184    2.215682    0.000000    1.000000
   220  Na    c     4.405868    6.617348    6.617348    0.000000    1.000000
   221  Na    c     4.405868    6.617348   -6.617348    0.000000    1.000000
   222  Na    c     4.405868   -6.617348    6.617348    0.000000    1.000000
   223  Na    c     4.405868   -6.617348   -6.617348    0.000000    1.000000
   224  Na    c    -0.002844    6.623821    6.623821    0.000000    1.000000
   225  Na    c    -0.002844    6.623821   -6.623821    0.000000    1.000000
   226  Na    c    -0.002844   -6.623821    6.623821    0.000000    1.000000
   227  Na    c    -0.002844   -6.623821   -6.623821    0.000000    1.000000
   228  Na    c    -4.409785   -2.214407    6.646693    0.000000    1.000000
   229  Na    c    -4.409785   -2.214407   -6.646693    0.000000    1.000000
   230  Na    c    -4.409785    2.214407    6.646693    0.000000    1.000000
   231  Na    c    -4.409785    2.214407   -6.646693    0.000000    1.000000
   232  Na    c    -4.409785    6.646693   -2.214407    0.000000    1.000000
   233  Na    c    -4.409785    6.646693    2.214407    0.000000    1.000000
   234  Na    c    -4.409785   -6.646693   -2.214407    0.000000    1.000000
   235  Na    c    -4.409785   -6.646693    2.214407    0.000000    1.000000
   236  Na    c    11.035833    4.405712   -2.199766    0.000000    1.000000
   237  Na    c    11.035833    4.405712    2.199766    0.000000    1.000000
   238  Na    c    11.035833   -4.405712   -2.199766    0.000000    1.000000
   239  Na    c    11.035833   -4.405712    2.199766    0.000000    1.000000
   240  Na    c    11.035833   -2.199766    4.405712    0.000000    1.000000
   241  Na    c    11.035833   -2.199766   -4.405712    0.000000    1.000000
   242  Na    c    11.035833    2.199766    4.405712    0.000000    1.000000
   243  Na    c    11.035833    2.199766   -4.405712    0.000000    1.000000
   244  Na    c     6.630719   -2.194410    8.814352    0.000000    1.000000
   245  Na    c     6.630719   -2.194410   -8.814352    0.000000    1.000000
   246  Na    c     6.630719    2.194410    8.814352    0.000000    1.000000
   247  Na    c     6.630719    2.194410   -8.814352    0.000000    1.000000
   248  Na    c     6.630719    8.814352   -2.194410    0.000000    1.000000
   249  Na    c     6.630719    8.814352    2.194410    0.000000    1.000000
   250  Na    c     6.630719   -8.814352   -2.194410    0.000000    1.000000
   251  Na    c     6.630719   -8.814352    2.194410    0.000000    1.000000
   252  Cl    c     4.397827    4.401849    8.800866    0.000000    1.485000
   253  Cl    c     4.397827    4.401849   -8.800866    0.000000    1.485000
   254  Cl    c     4.397827    8.800866    4.401849    0.000000    1.485000
   255  Cl    c     4.397827    8.800866   -4.401849    0.000000    1.485000
   256  Cl    c     4.397827   -4.401849    8.800866    0.000000    1.485000
   257  Cl    c     4.397827   -4.401849   -8.800866    0.000000    1.485000
   258  Cl    c     4.397827   -8.800866    4.401849    0.000000    1.485000
   259  Cl    c     4.397827   -8.800866   -4.401849    0.000000    1.485000
   260  Cl    c    -0.003617    4.402635    8.800820    0.000000    1.485000
   261  Cl    c    -0.003617    4.402635   -8.800820    0.000000    1.485000
   262  Cl    c    -0.003617    8.800820    4.402635    0.000000    1.485000
   263  Cl    c    -0.003617    8.800820   -4.402635    0.000000    1.485000
   264  Cl    c    -0.003617   -4.402635    8.800820    0.000000    1.485000
   265  Cl    c    -0.003617   -4.402635   -8.800820    0.000000    1.485000
   266  Cl    c    -0.003617   -8.800820    4.402635    0.000000    1.485000
   267  Cl    c    -0.003617   -8.800820   -4.402635    0.000000    1.485000
   268  Na    c    -2.188821   -2.200976    8.816989    0.000000    1.000000
   269  Na    c    -2.188821   -2.200976   -8.816989    0.000000    1.000000
   270  Na    c    -2.188821    2.200976    8.816989    0.000000    1.000000
   271  Na    c    -2.188821    2.200976   -8.816989    0.000000    1.000000
   272  Na    c    -2.188821    8.816989   -2.200976    0.000000    1.000000
   273  Na    c    -2.188821    8.816989    2.200976    0.000000    1.000000
   274  Na    c    -2.188821   -8.816989   -2.200976    0.000000    1.000000
   275  Na    c    -2.188821   -8.816989    2.200976    0.000000    1.000000
   276  Na    c    -6.610565   -2.208709    4.408731    0.000000    1.000000
   277  Na    c    -6.610565   -2.208709   -4.408731    0.000000    1.000000
   278  Na    c    -6.610565    2.208709    4.408731    0.000000    1.000000
   279  Na    c    -6.610565    2.208709   -4.408731    0.000000    1.000000
   280  Na    c    -6.610565    4.408731   -2.208709    0.000000    1.000000
   281  Na    c    -6.610565    4.408731    2.208709    0.000000    1.000000
   282  Na    c    -6.610565   -4.408731   -2.208709    0.000000    1.000000
   283  Na    c    -6.610565   -4.408731    2.208709    0.000000    1.000000
   284  O     c     6.606239    6.609564    6.609564    0.000000    0.183000
   285  O     c     6.606239    6.609564   -6.609564    0.000000    0.183000
   286  O     c     6.606239   -6.609564    6.609564    0.000000    0.183000
   287  O     c     6.606239   -6.609564   -6.609564    0.000000    0.183000
   288  O     c    -2.205732    6.613917    6.613917    0.000000    0.183000
   289  O     c    -2.205732    6.613917   -6.613917    0.000000    0.183000
   290  O     c    -2.205732   -6.613917    6.613917    0.000000    0.183000
   291  O     c    -2.205732   -6.613917   -6.613917    0.000000    0.183000
   292  Cl    c    13.197727    0.000000    0.000000    0.000000    1.485000
   293  Na    c    11.013824    6.621233    0.000000    0.000000    1.000000
   294  Na    c    11.013824   -6.621233    0.000000    0.000000    1.000000
   295  Na    c    11.013824    0.000000    6.621233    0.000000    1.000000
   296  Na    c    11.013824    0.000000   -6.621233    0.000000    1.000000
   297  Cl    c     8.799857    0.000000    8.798514    0.000000    1.485000
   298  Cl    c     8.799857    0.000000   -8.798514    0.000000    1.485000
   299  Cl    c     8.799857    8.798514    0.000000    0.000000    1.485000
   300  Cl    c     8.799857   -8.798514    0.000000    0.000000    1.485000
   301  Na    c     2.205241    6.619423    8.818471    0.000000    1.000000
   302  Na    c     2.205241    6.619423   -8.818471    0.000000    1.000000
   303  Na    c     2.205241   -6.619423    8.818471    0.000000    1.000000
   304  Na    c     2.205241   -6.619423   -8.818471    0.000000    1.000000
   305  Na    c     2.205241    8.818471    6.619423    0.000000    1.000000
   306  Na    c     2.205241    8.818471   -6.619423    0.000000    1.000000
   307  Na    c     2.205241   -8.818471    6.619423    0.000000    1.000000
   308  Na    c     2.205241   -8.818471   -6.619423    0.000000    1.000000
   309  Na    c     2.211166   11.026128    0.000000    0.000000    1.000000
   310  Na    c     2.211166  -11.026128    0.000000    0.000000    1.000000
   311  Na    c     2.211166    0.000000   11.026128    0.000000    1.000000
   312  Na    c     2.211166    0.000000  -11.026128    0.000000    1.000000
   313  Cl    c    -4.405007    0.000000    8.797032    0.000000    1.485000
   314  Cl    c    -4.405007    0.000000   -8.797032    0.000000    1.485000
   315  Cl    c    -4.405007    8.797032    0.000000    0.000000    1.485000
   316  Cl    c    -4.405007   -8.797032    0.000000    0.000000    1.485000
   317  Na    c    -6.620294    6.617833    0.000000    0.000000    1.000000
   318  Na    c    -6.620294   -6.617833    0.000000    0.000000    1.000000
   319  Na    c    -6.620294    0.000000    6.617833    0.000000    1.000000
   320  Na    c    -6.620294    0.000000   -6.617833    0.000000    1.000000
   321  Cl    c    -8.793188    0.000000    0.000000    0.000000    1.485000
   322  O     c    11.010060   -2.202327    6.603842    0.000000    0.183000
   323  O     c    11.010060   -2.202327   -6.603842    0.000000    0.183000
   324  O     c    11.010060    2.202327    6.603842    0.000000    0.183000
   325  O     c    11.010060    2.202327   -6.603842    0.000000    0.183000
   326  O     c    11.010060    6.603842   -2.202327    0.000000    0.183000
   327  O     c    11.010060    6.603842    2.202327    0.000000    0.183000
   328  O     c    11.010060   -6.603842   -2.202327    0.000000    0.183000
   329  O     c    11.010060   -6.603842    2.202327    0.000000    0.183000
   330  O     c     2.199487   -2.202829   11.015921    0.000000    0.183000
   331  O     c     2.199487   -2.202829  -11.015921    0.000000    0.183000
   332  O     c     2.199487    2.202829   11.015921    0.000000    0.183000
   333  O     c     2.199487    2.202829  -11.015921    0.000000    0.183000
   334  O     c     2.199487   11.015921   -2.202829    0.000000    0.183000
   335  O     c     2.199487   11.015921    2.202829    0.000000    0.183000
   336  O     c     2.199487  -11.015921   -2.202829    0.000000    0.183000
   337  O     c     2.199487  -11.015921    2.202829    0.000000    0.183000
   338  O     c    -6.606566    6.606874   -2.202445    0.000000    0.183000
   339  O     c    -6.606566    6.606874    2.202445    0.000000    0.183000
   340  O     c    -6.606566   -6.606874   -2.202445    0.000000    0.183000
   341  O     c    -6.606566   -6.606874    2.202445    0.000000    0.183000
   342  O     c    -6.606566   -2.202445    6.606874    0.000000    0.183000
   343  O     c    -6.606566   -2.202445   -6.606874    0.000000    0.183000
   344  O     c    -6.606566    2.202445    6.606874    0.000000    0.183000
   345  O     c    -6.606566    2.202445   -6.606874    0.000000    0.183000
   346  Na    c    13.215131   -2.192772   -2.192772    0.000000    1.000000
   347  Na    c    13.215131   -2.192772    2.192772    0.000000    1.000000
   348  Na    c    13.215131    2.192772   -2.192772    0.000000    1.000000
   349  Na    c    13.215131    2.192772    2.192772    0.000000    1.000000
   350  Na    c     8.813046    6.612759    6.612759    0.000000    1.000000
   351  Na    c     8.813046    6.612759   -6.612759    0.000000    1.000000
   352  Na    c     8.813046   -6.612759    6.612759    0.000000    1.000000
   353  Na    c     8.813046   -6.612759   -6.612759    0.000000    1.000000
   354  Na    c     4.406199   -2.208917   11.017624    0.000000    1.000000
   355  Na    c     4.406199   -2.208917  -11.017624    0.000000    1.000000
   356  Na    c     4.406199    2.208917   11.017624    0.000000    1.000000
   357  Na    c     4.406199    2.208917  -11.017624    0.000000    1.000000
   358  Na    c     4.406199   11.017624   -2.208917    0.000000    1.000000
   359  Na    c     4.406199   11.017624    2.208917    0.000000    1.000000
   360  Na    c     4.406199  -11.017624   -2.208917    0.000000    1.000000
   361  Na    c     4.406199  -11.017624    2.208917    0.000000    1.000000
   362  Na    c    -0.001913   -2.204330   11.038683    0.000000    1.000000
   363  Na    c    -0.001913   -2.204330  -11.038683    0.000000    1.000000
   364  Na    c    -0.001913    2.204330   11.038683    0.000000    1.000000
   365  Na    c    -0.001913    2.204330  -11.038683    0.000000    1.000000
   366  Na    c    -0.001913   11.038683   -2.204330    0.000000    1.000000
   367  Na    c    -0.001913   11.038683    2.204330    0.000000    1.000000
   368  Na    c    -0.001913  -11.038683   -2.204330    0.000000    1.000000
   369  Na    c    -0.001913  -11.038683    2.204330    0.000000    1.000000
   370  Na    c    -4.408612    6.617776    6.617776    0.000000    1.000000
   371  Na    c    -4.408612    6.617776   -6.617776    0.000000    1.000000
   372  Na    c    -4.408612   -6.617776    6.617776    0.000000    1.000000
   373  Na    c    -4.408612   -6.617776   -6.617776    0.000000    1.000000
   374  Na    c    -8.818920   -2.214993   -2.214993    0.000000    1.000000
   375  Na    c    -8.818920   -2.214993    2.214993    0.000000    1.000000
   376  Na    c    -8.818920    2.214993   -2.214993    0.000000    1.000000
   377  Na    c    -8.818920    2.214993    2.214993    0.000000    1.000000
   378  Cl    c    13.194423    0.000000    4.397352    0.000000    1.485000
   379  Cl    c    13.194423    0.000000   -4.397352    0.000000    1.485000
   380  Cl    c    13.194423    4.397352    0.000000    0.000000    1.485000
   381  Cl    c    13.194423   -4.397352    0.000000    0.000000    1.485000
   382  Na    c    11.026145    6.618506    4.406925    0.000000    1.000000
   383  Na    c    11.026145    6.618506   -4.406925    0.000000    1.000000
   384  Na    c    11.026145   -6.618506    4.406925    0.000000    1.000000
   385  Na    c    11.026145   -6.618506   -4.406925    0.000000    1.000000
   386  Na    c    11.026145    4.406925    6.618506    0.000000    1.000000
   387  Na    c    11.026145    4.406925   -6.618506    0.000000    1.000000
   388  Na    c    11.026145   -4.406925    6.618506    0.000000    1.000000
   389  Na    c    11.026145   -4.406925   -6.618506    0.000000    1.000000
   390  Cl    c     8.800189    4.398899    8.794250    0.000000    1.485000
   391  Cl    c     8.800189    4.398899   -8.794250    0.000000    1.485000
   392  Cl    c     8.800189    8.794250    4.398899    0.000000    1.485000
   393  Cl    c     8.800189    8.794250   -4.398899    0.000000    1.485000
   394  Cl    c     8.800189   -4.398899    8.794250    0.000000    1.485000
   395  Cl    c     8.800189   -4.398899   -8.794250    0.000000    1.485000
   396  Cl    c     8.800189   -8.794250    4.398899    0.000000    1.485000
   397  Cl    c     8.800189   -8.794250   -4.398899    0.000000    1.485000
   398  Na    c     6.610513   11.037147    0.000000    0.000000    1.000000
   399  Na    c     6.610513  -11.037147    0.000000    0.000000    1.000000
   400  Na    c     6.610513    0.000000   11.037147    0.000000    1.000000
   401  Na    c     6.610513    0.000000  -11.037147    0.000000    1.000000
   402  Na    c     6.615025    6.618988    8.815943    0.000000    1.000000
   403  Na    c     6.615025    6.618988   -8.815943    0.000000    1.000000
   404  Na    c     6.615025   -6.618988    8.815943    0.000000    1.000000
   405  Na    c     6.615025   -6.618988   -8.815943    0.000000    1.000000
   406  Na    c     6.615025    8.815943    6.618988    0.000000    1.000000
   407  Na    c     6.615025    8.815943   -6.618988    0.000000    1.000000
   408  Na    c     6.615025   -8.815943    6.618988    0.000000    1.000000
   409  Na    c     6.615025   -8.815943   -6.618988    0.000000    1.000000
   410  Na    c     2.204677   11.031331    4.408413    0.000000    1.000000
   411  Na    c     2.204677   11.031331   -4.408413    0.000000    1.000000
   412  Na    c     2.204677  -11.031331    4.408413    0.000000    1.000000
   413  Na    c     2.204677  -11.031331   -4.408413    0.000000    1.000000
   414  Na    c     2.204677    4.408413   11.031331    0.000000    1.000000
   415  Na    c     2.204677    4.408413  -11.031331    0.000000    1.000000
   416  Na    c     2.204677   -4.408413   11.031331    0.000000    1.000000
   417  Na    c     2.204677   -4.408413  -11.031331    0.000000    1.000000
   418  Na    c    -2.210192   11.030555    0.000000    0.000000    1.000000
   419  Na    c    -2.210192  -11.030555    0.000000    0.000000    1.000000
   420  Na    c    -2.210192    0.000000   11.030555    0.000000    1.000000
   421  Na    c    -2.210192    0.000000  -11.030555    0.000000    1.000000
   422  Na    c    -2.207933    8.818439    6.622134    0.000000    1.000000
   423  Na    c    -2.207933    8.818439   -6.622134    0.000000    1.000000
   424  Na    c    -2.207933   -8.818439    6.622134    0.000000    1.000000
   425  Na    c    -2.207933   -8.818439   -6.622134    0.000000    1.000000
   426  Na    c    -2.207933    6.622134    8.818439    0.000000    1.000000
   427  Na    c    -2.207933    6.622134   -8.818439    0.000000    1.000000
   428  Na    c    -2.207933   -6.622134    8.818439    0.000000    1.000000
   429  Na    c    -2.207933   -6.622134   -8.818439    0.000000    1.000000
   430  Cl    c    -4.402747    4.398578    8.793607    0.000000    1.485000
   431  Cl    c    -4.402747    4.398578   -8.793607    0.000000    1.485000
   432  Cl    c    -4.402747    8.793607    4.398578    0.000000    1.485000
   433  Cl    c    -4.402747    8.793607   -4.398578    0.000000    1.485000
   434  Cl    c    -4.402747   -4.398578    8.793607    0.000000    1.485000
   435  Cl    c    -4.402747   -4.398578   -8.793607    0.000000    1.485000
   436  Cl    c    -4.402747   -8.793607    4.398578    0.000000    1.485000
   437  Cl    c    -4.402747   -8.793607   -4.398578    0.000000    1.485000
   438  Na    c    -6.623889    6.621207    4.408314    0.000000    1.000000
   439  Na    c    -6.623889    6.621207   -4.408314    0.000000    1.000000
   440  Na    c    -6.623889   -6.621207    4.408314    0.000000    1.000000
   441  Na    c    -6.623889   -6.621207   -4.408314    0.000000    1.000000
   442  Na    c    -6.623889    4.408314    6.621207    0.000000    1.000000
   443  Na    c    -6.623889    4.408314   -6.621207    0.000000    1.000000
   444  Na    c    -6.623889   -4.408314    6.621207    0.000000    1.000000
   445  Na    c    -6.623889   -4.408314   -6.621207    0.000000    1.000000
   446  Cl    c    -8.792190    0.000000    4.399309    0.000000    1.485000
   447  Cl    c    -8.792190    0.000000   -4.399309    0.000000    1.485000
   448  Cl    c    -8.792190    4.399309    0.000000    0.000000    1.485000
   449  Cl    c    -8.792190   -4.399309    0.000000    0.000000    1.485000
   450  Cl    s     3.693280    0.000000    0.000000    0.000000   -2.485000
   451  O     s     2.134073   -2.218405   -2.218405    0.000000   -2.183000
   452  O     s     2.134073   -2.218405    2.218405    0.000000   -2.183000
   453  O     s     2.134073    2.218405   -2.218405    0.000000   -2.183000
   454  O     s     2.134073    2.218405    2.218405    0.000000   -2.183000
   455  Cl    s     4.353368    0.000000    4.359952    0.000000   -2.485000
   456  Cl    s     4.353368    0.000000   -4.359952    0.000000   -2.485000
   457  Cl    s     4.353368    4.359952    0.000000    0.000000   -2.485000
   458  Cl    s     4.353368   -4.359952    0.000000    0.000000   -2.485000
   459  Cl    s    -0.030513    0.000000    4.358986    0.000000   -2.485000
   460  Cl    s    -0.030513    0.000000   -4.358986    0.000000   -2.485000
   461  Cl    s    -0.030513    4.358986    0.000000    0.000000   -2.485000
   462  Cl    s    -0.030513   -4.358986    0.000000    0.000000   -2.485000
   463  O     s     6.570337   -2.186727   -2.186727    0.000000   -2.183000
   464  O     s     6.570337   -2.186727    2.186727    0.000000   -2.183000
   465  O     s     6.570337    2.186727   -2.186727    0.000000   -2.183000
   466  O     s     6.570337    2.186727    2.186727    0.000000   -2.183000
   467  O     s    -2.196248   -2.187002   -2.187002    0.000000   -2.183000
   468  O     s    -2.196248   -2.187002    2.187002    0.000000   -2.183000
   469  O     s    -2.196248    2.187002   -2.187002    0.000000   -2.183000
[...]
     40 y         -2.202951     -2.208153    -0.005202    Cartesian    0.24
     40 z          0.000000      0.000000     0.000000    Cartesian    0.00
     41 x         11.014756     11.001171    -0.013584    Cartesian   -0.12
     41 y         -2.202951     -2.204048    -0.001096    Cartesian    0.05
     41 z         -2.202951     -2.204048    -0.001096    Cartesian    0.05
     42 x          2.202951      2.200255    -0.002697    Cartesian   -0.12
     42 y          6.608853      6.612795     0.003941    Cartesian    0.06
     42 z          6.608853      6.612795     0.003941    Cartesian    0.06
     43 x         -6.608853     -6.613927    -0.005073    Cartesian    0.08
     43 y         -2.202951     -2.201993     0.000959    Cartesian   -0.04
     43 z         -2.202951     -2.201993     0.000959    Cartesian   -0.04
     44 x          8.811805      8.806249    -0.005556    Cartesian   -0.06
     44 y         -2.202951     -2.215682    -0.012731    Cartesian    0.58
     44 z          6.608853      6.585184    -0.023670    Cartesian   -0.36
     45 x          4.405902      4.405868    -0.000034    Cartesian   -0.00
     45 y          6.608853      6.617348     0.008494    Cartesian    0.13
     45 z          6.608853      6.617348     0.008494    Cartesian    0.13
     46 x          0.000000     -0.002844    -0.002844    Cartesian    0.00
     46 y          6.608853      6.623821     0.014967    Cartesian    0.23
     46 z          6.608853      6.623821     0.014967    Cartesian    0.23
     47 x         -4.405902     -4.409785    -0.003883    Cartesian    0.09
     47 y         -2.202951     -2.214407    -0.011456    Cartesian    0.52
     47 z          6.608853      6.646693     0.037840    Cartesian    0.57
     48 x         11.014756     11.035833     0.021077    Cartesian    0.19
     48 y          4.405902      4.405712    -0.000190    Cartesian   -0.00
     48 z         -2.202951     -2.199766     0.003185    Cartesian   -0.14
     49 x          6.608853      6.630719     0.021865    Cartesian    0.33
     49 y         -2.202951     -2.194410     0.008542    Cartesian   -0.39
     49 z          8.811805      8.814352     0.002547    Cartesian    0.03
     50 x          4.405902      4.397827    -0.008076    Cartesian   -0.18
     50 y          4.405902      4.401849    -0.004053    Cartesian   -0.09
     50 z          8.811805      8.800866    -0.010939    Cartesian   -0.12
     51 x          0.000000     -0.003617    -0.003617    Cartesian    0.00
     51 y          4.405902      4.402635    -0.003267    Cartesian   -0.07
     51 z          8.811805      8.800820    -0.010984    Cartesian   -0.12
     52 x         -2.202951     -2.188821     0.014130    Cartesian   -0.64
     52 y         -2.202951     -2.200976     0.001975    Cartesian   -0.09
     52 z          8.811805      8.816989     0.005184    Cartesian    0.06
     53 x         -6.608853     -6.610565    -0.001712    Cartesian    0.03
     53 y         -2.202951     -2.208709    -0.005758    Cartesian    0.26
     53 z          4.405902      4.408731     0.002828    Cartesian    0.06
     54 x          6.608853      6.606239    -0.002615    Cartesian   -0.04
     54 y          6.608853      6.609564     0.000711    Cartesian    0.01
     54 z          6.608853      6.609564     0.000711    Cartesian    0.01
     55 x         -2.202951     -2.205732    -0.002781    Cartesian    0.13
     55 y          6.608853      6.613917     0.005064    Cartesian    0.08
     55 z          6.608853      6.613917     0.005064    Cartesian    0.08
     56 x         13.217707     13.197727    -0.019980    Cartesian   -0.15
     56 y          0.000000      0.000000     0.000000    Cartesian    0.00
     56 z          0.000000      0.000000     0.000000    Cartesian    0.00
     57 x         11.014756     11.013824    -0.000932    Cartesian   -0.01
     57 y          6.608853      6.621233     0.012379    Cartesian    0.19
     57 z          0.000000      0.000000     0.000000    Cartesian    0.00
     58 x          8.811805      8.799857    -0.011948    Cartesian   -0.14
     58 y          0.000000      0.000000     0.000000    Cartesian    0.00
     58 z          8.811805      8.798514    -0.013291    Cartesian   -0.15
     59 x          2.202951      2.205241     0.002290    Cartesian    0.10
     59 y          6.608853      6.619423     0.010569    Cartesian    0.16
     59 z          8.811805      8.818471     0.006666    Cartesian    0.08
     60 x          2.202951      2.211166     0.008215    Cartesian    0.37
     60 y         11.014756     11.026128     0.011373    Cartesian    0.10
     60 z          0.000000      0.000000     0.000000    Cartesian    0.00
     61 x         -4.405902     -4.405007     0.000895    Cartesian   -0.02
     61 y          0.000000      0.000000     0.000000    Cartesian    0.00
     61 z          8.811805      8.797032    -0.014773    Cartesian   -0.17
     62 x         -6.608853     -6.620294    -0.011440    Cartesian    0.17
     62 y          6.608853      6.617833     0.008980    Cartesian    0.14
     62 z          0.000000      0.000000     0.000000    Cartesian    0.00
     63 x         -8.811805     -8.793188     0.018617    Cartesian   -0.21
     63 y          0.000000      0.000000     0.000000    Cartesian    0.00
     63 z          0.000000      0.000000     0.000000    Cartesian    0.00
     64 x         11.014756     11.010060    -0.004696    Cartesian   -0.04
     64 y         -2.202951     -2.202327     0.000624    Cartesian   -0.03
     64 z          6.608853      6.603842    -0.005012    Cartesian   -0.08
     65 x          2.202951      2.199487    -0.003464    Cartesian   -0.16
     65 y         -2.202951     -2.202829     0.000122    Cartesian   -0.01
     65 z         11.014756     11.015921     0.001165    Cartesian    0.01
     66 x         -6.608853     -6.606566     0.002287    Cartesian   -0.03
     66 y          6.608853      6.606874    -0.001980    Cartesian   -0.03
     66 z         -2.202951     -2.202445     0.000506    Cartesian   -0.02
     67 x         13.217707     13.215131    -0.002576    Cartesian   -0.02
     67 y         -2.202951     -2.192772     0.010179    Cartesian   -0.46
     67 z         -2.202951     -2.192772     0.010179    Cartesian   -0.46
     68 x          8.811805      8.813046     0.001241    Cartesian    0.01
     68 y          6.608853      6.612759     0.003905    Cartesian    0.06
     68 z          6.608853      6.612759     0.003905    Cartesian    0.06
     69 x          4.405902      4.406199     0.000296    Cartesian    0.01
     69 y         -2.202951     -2.208917    -0.005966    Cartesian    0.27
     69 z         11.014756     11.017624     0.002869    Cartesian    0.03
     70 x          0.000000     -0.001913    -0.001913    Cartesian    0.00
     70 y         -2.202951     -2.204330    -0.001379    Cartesian    0.06
     70 z         11.014756     11.038683     0.023927    Cartesian    0.22
     71 x         -4.405902     -4.408612    -0.002710    Cartesian    0.06
     71 y          6.608853      6.617776     0.008922    Cartesian    0.14
     71 z          6.608853      6.617776     0.008922    Cartesian    0.14
     72 x         -8.811805     -8.818920    -0.007116    Cartesian    0.08
     72 y         -2.202951     -2.214993    -0.012042    Cartesian    0.55
     72 z         -2.202951     -2.214993    -0.012042    Cartesian    0.55
     73 x         13.217707     13.194423    -0.023284    Cartesian   -0.18
     73 y          0.000000      0.000000     0.000000    Cartesian    0.00
     73 z          4.405902      4.397352    -0.008550    Cartesian   -0.19
     74 x         11.014756     11.026145     0.011389    Cartesian    0.10
     74 y          6.608853      6.618506     0.009653    Cartesian    0.15
     74 z          4.405902      4.406925     0.001023    Cartesian    0.02
     75 x          8.811805      8.800189    -0.011616    Cartesian   -0.13
     75 y          4.405902      4.398899    -0.007004    Cartesian   -0.16
     75 z          8.811805      8.794250    -0.017554    Cartesian   -0.20
     76 x          6.608853      6.610513     0.001660    Cartesian    0.03
     76 y         11.014756     11.037147     0.022391    Cartesian    0.20
     76 z          0.000000      0.000000     0.000000    Cartesian    0.00
     77 x          6.608853      6.615025     0.006172    Cartesian    0.09
     77 y          6.608853      6.618988     0.010134    Cartesian    0.15
     77 z          8.811805      8.815943     0.004138    Cartesian    0.05
     78 x          2.202951      2.204677     0.001726    Cartesian    0.08
     78 y         11.014756     11.031331     0.016576    Cartesian    0.15
     78 z          4.405902      4.408413     0.002510    Cartesian    0.06
     79 x         -2.202951     -2.210192    -0.007241    Cartesian    0.33
     79 y         11.014756     11.030555     0.015799    Cartesian    0.14
     79 z          0.000000      0.000000     0.000000    Cartesian    0.00
     80 x         -2.202951     -2.207933    -0.004982    Cartesian    0.23
     80 y          8.811805      8.818439     0.006634    Cartesian    0.08
     80 z          6.608853      6.622134     0.013280    Cartesian    0.20
     81 x         -4.405902     -4.402747     0.003155    Cartesian   -0.07
     81 y          4.405902      4.398578    -0.007324    Cartesian   -0.17
     81 z          8.811805      8.793607    -0.018198    Cartesian   -0.21
     82 x         -6.608853     -6.623889    -0.015036    Cartesian    0.23
     82 y          6.608853      6.621207     0.012353    Cartesian    0.19
     82 z          4.405902      4.408314     0.002412    Cartesian    0.05
     83 x         -8.811805     -8.792190     0.019614    Cartesian   -0.22
     83 y          0.000000      0.000000     0.000000    Cartesian    0.00
     83 z          4.405902      4.399309    -0.006593    Cartesian   -0.15
     84 x          3.693280      3.693280     0.000000    Cartesian    0.00
     84 y          0.000000      0.000000     0.000000    Cartesian    0.00
     84 z          0.000000      0.000000     0.000000    Cartesian    0.00
     85 x          2.202951      2.134073    -0.068878    Cartesian   -3.13
     85 y         -2.202951     -2.218405    -0.015454    Cartesian    0.70
     85 z         -2.202951     -2.218405    -0.015454    Cartesian    0.70
     86 x          4.405902      4.353368    -0.052535    Cartesian   -1.19
     86 y          0.000000      0.000000     0.000000    Cartesian    0.00
     86 z          4.405902      4.359952    -0.045951    Cartesian   -1.04
     87 x          0.000000     -0.030513    -0.030513    Cartesian    0.00
     87 y          0.000000      0.000000     0.000000    Cartesian    0.00
     87 z          4.405902      4.358986    -0.046916    Cartesian   -1.06
     88 x          6.608853      6.570337    -0.038516    Cartesian   -0.58
     88 y         -2.202951     -2.186727     0.016224    Cartesian   -0.74
     88 z         -2.202951     -2.186727     0.016224    Cartesian   -0.74
     89 x         -2.202951     -2.196248     0.006703    Cartesian   -0.30
     89 y         -2.202951     -2.187002     0.015949    Cartesian   -0.72
     89 z         -2.202951     -2.187002     0.015949    Cartesian   -0.72
     90 x          8.811805      8.750978    -0.060827    Cartesian   -0.69
     90 y          0.000000      0.000000     0.000000    Cartesian    0.00
     90 z          0.000000      0.000000     0.000000    Cartesian    0.00
     91 x          4.405902      4.378706    -0.027196    Cartesian   -0.62
     91 y          4.405902      4.384848    -0.021054    Cartesian   -0.48
     91 z          4.405902      4.384848    -0.021054    Cartesian   -0.48
     92 x          0.000000     -0.027432    -0.027432    Cartesian    0.00
     92 y          4.405902      4.399174    -0.006728    Cartesian   -0.15
     92 z          4.405902      4.399174    -0.006728    Cartesian   -0.15
     93 x         -4.405902     -4.346891     0.059012    Cartesian   -1.34
     93 y          0.000000      0.000000     0.000000    Cartesian    0.00
     93 z          0.000000      0.000000     0.000000    Cartesian    0.00
     94 x          2.202951      2.196138    -0.006814    Cartesian   -0.31
     94 y         -2.202951     -2.204887    -0.001936    Cartesian    0.09
     94 z          6.608853      6.615129     0.006276    Cartesian    0.09
     95 x          8.811805      8.772290    -0.039515    Cartesian   -0.45
     95 y          0.000000      0.000000     0.000000    Cartesian    0.00
     95 z          4.405902      4.379797    -0.026105    Cartesian   -0.59
     96 x         -4.405902     -4.375290     0.030613    Cartesian   -0.69
     96 y          0.000000      0.000000     0.000000    Cartesian    0.00
     96 z          4.405902      4.365403    -0.040500    Cartesian   -0.92
     97 x          6.608853      6.596005    -0.012849    Cartesian   -0.19
     97 y         -2.202951     -2.201097     0.001854    Cartesian   -0.08
     97 z          6.608853      6.604918    -0.003935    Cartesian   -0.06
     98 x         -2.202951     -2.208042    -0.005091    Cartesian    0.23
     98 y         -2.202951     -2.203694    -0.000743    Cartesian    0.03
     98 z          6.608853      6.609666     0.000812    Cartesian    0.01
     99 x          8.811805      8.779254    -0.032551    Cartesian   -0.37
     99 y          4.405902      4.387328    -0.018575    Cartesian   -0.42
     99 z          4.405902      4.387328    -0.018575    Cartesian   -0.42
    100 x          4.405902      4.394608    -0.011295    Cartesian   -0.26
    100 y          0.000000      0.000000     0.000000    Cartesian    0.00
    100 z          8.811805      8.795917    -0.015888    Cartesian   -0.18
    101 x          0.000000     -0.005916    -0.005916    Cartesian    0.00
    101 y          0.000000      0.000000     0.000000    Cartesian    0.00
    101 z          8.811805      8.793261    -0.018544    Cartesian   -0.21
    102 x         -4.405902     -4.383866     0.022036    Cartesian   -0.50
    102 y          4.405902      4.373168    -0.032735    Cartesian   -0.74
    102 z          4.405902      4.373168    -0.032735    Cartesian   -0.74
    103 x         11.014756     11.001167    -0.013588    Cartesian   -0.12
    103 y         -2.202951     -2.204055    -0.001104    Cartesian    0.05
    103 z         -2.202951     -2.204055    -0.001104    Cartesian    0.05
    104 x          2.202951      2.200254    -0.002697    Cartesian   -0.12
    104 y          6.608853      6.612796     0.003943    Cartesian    0.06
    104 z          6.608853      6.612796     0.003943    Cartesian    0.06
    105 x         -6.608853     -6.613920    -0.005066    Cartesian    0.08
    105 y         -2.202951     -2.201991     0.000961    Cartesian   -0.04
    105 z         -2.202951     -2.201991     0.000961    Cartesian   -0.04
    106 x          4.405902      4.396696    -0.009206    Cartesian   -0.21
    106 y          4.405902      4.400733    -0.005170    Cartesian   -0.12
    106 z          8.811805      8.797980    -0.013825    Cartesian   -0.16
    107 x          0.000000     -0.003839    -0.003839    Cartesian    0.00
    107 y          4.405902      4.401572    -0.004330    Cartesian   -0.10
    107 z          8.811805      8.798357    -0.013447    Cartesian   -0.15
    108 x          6.608853      6.606237    -0.002617    Cartesian   -0.04
    108 y          6.608853      6.609565     0.000711    Cartesian    0.01
    108 z          6.608853      6.609565     0.000711    Cartesian    0.01
    109 x         -2.202951     -2.205732    -0.002780    Cartesian    0.13
    109 y          6.608853      6.613920     0.005067    Cartesian    0.08
    109 z          6.608853      6.613920     0.005067    Cartesian    0.08
    110 x         13.217707     13.197129    -0.020578    Cartesian   -0.16
    110 y          0.000000      0.000000     0.000000    Cartesian    0.00
    110 z          0.000000      0.000000     0.000000    Cartesian    0.00
    111 x          8.811805      8.797848    -0.013957    Cartesian   -0.16
    111 y          0.000000      0.000000     0.000000    Cartesian    0.00
    111 z          8.811805      8.797428    -0.014376    Cartesian   -0.16
    112 x         -4.405902     -4.405121     0.000781    Cartesian   -0.02
    112 y          0.000000      0.000000     0.000000    Cartesian    0.00
    112 z          8.811805      8.794450    -0.017355    Cartesian   -0.20
    113 x         -8.811805     -8.789049     0.022756    Cartesian   -0.26
    113 y          0.000000      0.000000     0.000000    Cartesian    0.00
    113 z          0.000000      0.000000     0.000000    Cartesian    0.00
    114 x         11.014756     11.010064    -0.004691    Cartesian   -0.04
    114 y         -2.202951     -2.202327     0.000624    Cartesian   -0.03
    114 z          6.608853      6.603834    -0.005020    Cartesian   -0.08
    115 x          2.202951      2.199480    -0.003471    Cartesian   -0.16
    115 y         -2.202951     -2.202827     0.000124    Cartesian   -0.01
    115 z         11.014756     11.015921     0.001166    Cartesian    0.01
    116 x         -6.608853     -6.606564     0.002290    Cartesian   -0.03
    116 y          6.608853      6.606878    -0.001976    Cartesian   -0.03
    116 z         -2.202951     -2.202445     0.000506    Cartesian   -0.02
    117 x         13.217707     13.191753    -0.025954    Cartesian   -0.20
    117 y          0.000000      0.000000     0.000000    Cartesian    0.00
    117 z          4.405902      4.396631    -0.009271    Cartesian   -0.21
    118 x          8.811805      8.798493    -0.013312    Cartesian   -0.15
    118 y          4.405902      4.398089    -0.007813    Cartesian   -0.18
    118 z          8.811805      8.792288    -0.019516    Cartesian   -0.22
    119 x         -4.405902     -4.402402     0.003501    Cartesian   -0.08
    119 y          4.405902      4.397059    -0.008844    Cartesian   -0.20
    119 z          8.811805      8.790601    -0.021203    Cartesian   -0.24
    120 x         -8.811805     -8.789507     0.022298    Cartesian   -0.25
    120 y          0.000000      0.000000     0.000000    Cartesian    0.00
    120 z          4.405902      4.397837    -0.008065    Cartesian   -0.18
--------------------------------------------------------------------------------


  Time to end of optimisation  =       11.7561 seconds


  Peak dynamic memory used =      76.10 MB 


  Timing analysis for GULP :

--------------------------------------------------------------------------------
  Task / Subroutine                                          Time (Seconds)
--------------------------------------------------------------------------------
  Calculation of reciprocal space energy and derivatives          0.0007
  Calculation of reciprocal space energy using symmetry           0.0012
  Calculation of real space energy and derivatives                0.0039
  Calculation of real space energy using symmetry                 0.0119
  Calculation for region 1 energy and derivatives (2-b)           6.9028
  Calculation for region 2a energy                                3.9913
  Calculation for region 2b energy                                0.0039
  Calculation and manipulation of Hessian matrix                  0.7037
  Calculation of matrix inversion                                 0.0252
  Symmetry generation of equivalent positions                     0.0056
--------------------------------------------------------------------------------
  Total CPU time                                                 11.7562
--------------------------------------------------------------------------------


  Dump file written as Na3OCl.grs


  Job Finished at 16:17.26  8th January    2021                               

