********************************************************************************
*                       GENERAL UTILITY LATTICE PROGRAM                        *
*                                 Julian Gale                                  *
*                       Curtin Institute for Computation                       *
*                    School of Molecular and Life Sciences                     *
*                    Curtin University, Western Australia                      *
********************************************************************************
* Version = 5.2.0 * Last modified =  10th September 2020                       *
********************************************************************************
*  optimise     - perform optimisation run                                     *
*  conp         - constant pressure calculation                                *
*  property     - calculate properties for final geometry                      *
*  defect       - perform defect calculation after bulk run                    *
*  compare      - compare initial and final structures                         *
********************************************************************************

  Job Started  at 16:17.18  8th January    2021                               

  Number of CPUs =     1


  Total number of configurations input =      1

********************************************************************************
*  Input for Configuration =   1                                               *
********************************************************************************

  Formula = ClONa3                                                      

  Number of irreducible atoms/shells =       5


  Total number atoms/shells =       7

  Dimensionality = 3               :  Bulk   


  Symmetry :

  Crystal family                   :  Cubic       
  Crystal class  (Groth - 1921)    :  Cubic Hexakisoctahedral              

  Space group (centrosymmetric)    :  P M 3 M         

  Patterson group                  :  P m -3 m 

  Cartesian lattice vectors (Angstroms) :

        4.504000    0.000000    0.000000
        0.000000    4.504000    0.000000
        0.000000    0.000000    4.504000

  Cell parameters (Angstroms/Degrees):

  a =       4.5040    alpha =  90.0000
  b =       4.5040    beta  =  90.0000
  c =       4.5040    gamma =  90.0000

  Initial cell volume =          91.368216 Angs**3

  Temperature of configuration =   0.00     K 

  Pressure of configuration =         0.000 GPa 

  Fractional coordinates of asymmetric unit :

--------------------------------------------------------------------------------
   No.  Atomic       x           y          z         Charge      Occupancy
        Label      (Frac)      (Frac)     (Frac)        (e)         (Frac)  
--------------------------------------------------------------------------------
      1 Cl    c    0.000000    0.000000    0.000000     1.48500    1.000000    
      2 O     c    0.500000    0.500000    0.500000     0.18300    1.000000    
      3 Na    c    0.500000    0.500000    0.000000     1.00000    1.000000    
      4 Cl    s    0.000000    0.000000    0.000000    -2.48500    1.000000    
      5 O     s    0.500000    0.500000    0.500000    -2.18300    1.000000    
--------------------------------------------------------------------------------


  Constraints : 

--------------------------------------------------------------------------------
  Constraint no.      Unconstrained     Constrained    Coefficient    Offset
                         Variable         Variable
--------------------------------------------------------------------------------
           1              Strain 1        Strain 2       1.00000      0.0000
           2              Strain 1        Strain 3       1.00000      0.0000
--------------------------------------------------------------------------------


********************************************************************************
*  General input information                                                   *
********************************************************************************

  Species output for all configurations : 

--------------------------------------------------------------------------------
  Species    Type    Atomic    Atomic    Charge       Radii (Angs)     Library
                     Number     Mass       (e)     Cova   Ionic  VDW   Symbol
--------------------------------------------------------------------------------
    Na       Core       11      22.99   1.000000   0.970  0.000  2.300          
    O        Core        8      16.00   0.183000   0.730  0.000  1.360          
    O        Shell       8       0.00  -2.183000   0.730  0.000  1.360          
    Cl       Core       17      35.45   1.485000   0.990  0.000  1.650          
    Cl       Shell      17       0.00  -2.485000   0.990  0.000  1.650          
    Mg       Core       12      24.31   0.415000   1.100  0.000  0.000          
    Mg       Shell      12       0.00   1.585000   1.100  0.000  0.000          
    Ca       Core       20      40.08  -1.135000   0.990  0.000  0.000          
    Ca       Shell      20       0.00   3.135000   0.990  0.000  0.000          
    Sr       Core       38      87.62  -1.251000   1.120  0.000  0.000          
    Sr       Shell      38       0.00   3.251000   1.120  0.000  0.000          
    Ba       Core       56     137.33  -7.203000   1.340  0.000  0.000          
    Ba       Shell      56       0.00   9.203000   1.340  0.000  0.000          
--------------------------------------------------------------------------------


  Lattice summation method               =    Ewald          (3-D)
                                         =    Parry          (2-D)
                                         =    Saunders et al (1-D)
  Accuracy factor for lattice sums       =   12.000


  Analytic derivatives to be used

  Time limit = Infinity

  Maximum range for interatomic potentials =    100000.000000 Angstroms

  General interatomic potentials :

--------------------------------------------------------------------------------
Atom  Types   Potential      Parameter       Value         Units   Cutoffs(Ang)
  1     2                                                            Min /  Max 
--------------------------------------------------------------------------------
O    c O    s Spring (c-s)  Spring k 2       593.71600    eV*Ang^-2 0.000  0.800
                            Spring k 4       0.0000000    eV*Ang^-4 
--------------------------------------------------------------------------------
Cl   c Cl   s Spring (c-s)  Spring k 2       29.380000    eV*Ang^-2 0.000  0.800
                            Spring k 4       0.0000000    eV*Ang^-4 
--------------------------------------------------------------------------------
Mg   c Mg   s Spring (c-s)  Spring k 2       361.60000    eV*Ang^-2 0.000  0.800
                            Spring k 4       0.0000000    eV*Ang^-4 
--------------------------------------------------------------------------------
Ca   c Ca   s Spring (c-s)  Spring k 2       110.20000    eV*Ang^-2 0.000  0.800
                            Spring k 4       0.0000000    eV*Ang^-4 
--------------------------------------------------------------------------------
Sr   c Sr   s Spring (c-s)  Spring k 2       71.700000    eV*Ang^-2 0.000  0.800
                            Spring k 4       0.0000000    eV*Ang^-4 
--------------------------------------------------------------------------------
Ba   c Ba   s Spring (c-s)  Spring k 2       495.20000    eV*Ang^-2 0.000  0.800
                            Spring k 4       0.0000000    eV*Ang^-4 
--------------------------------------------------------------------------------
Na   c Na   c Buckingham    Buckingham A     1788.1900    eV        0.000 12.000
                            Buckingham rho  0.15900000    Ang       
                            Buckingham C     0.0000000    eV*Ang^6  
--------------------------------------------------------------------------------
Na   c O    s Buckingham    Buckingham A     588.38000    eV        0.000 12.000
                            Buckingham rho  0.33800000    Ang       
                            Buckingham C     0.0000000    eV*Ang^6  
--------------------------------------------------------------------------------
Na   c Cl   s Buckingham    Buckingham A     1170.4100    eV        0.000 12.000
                            Buckingham rho  0.31500000    Ang       
                            Buckingham C     0.0000000    eV*Ang^6  
--------------------------------------------------------------------------------
O    s O    s Buckingham    Buckingham A     22764.300    eV        0.000 12.000
                            Buckingham rho  0.14900000    Ang       
                            Buckingham C     13.190000    eV*Ang^6  
--------------------------------------------------------------------------------
O    s Cl   s Buckingham    Buckingham A     8286.9100    eV        0.000 12.000
                            Buckingham rho  0.25900000    Ang       
                            Buckingham C     62.200000    eV*Ang^6  
--------------------------------------------------------------------------------
Cl   s Cl   s Buckingham    Buckingham A     1227.2000    eV        0.000 12.000
                            Buckingham rho  0.32100000    Ang       
                            Buckingham C     14.530000    eV*Ang^6  
--------------------------------------------------------------------------------
O    s Mg   s Buckingham    Buckingham A     1428.5000    eV        0.000 12.000
                            Buckingham rho  0.29450000    Ang       
                            Buckingham C     0.0000000    eV*Ang^6  
--------------------------------------------------------------------------------
Mg   s Cl   s Buckingham    Buckingham A     4914.5400    eV        0.000 12.000
                            Buckingham rho  0.25700000    Ang       
                            Buckingham C     0.0000000    eV*Ang^6  
--------------------------------------------------------------------------------
O    s Ca   s Buckingham    Buckingham A     1090.4000    eV        0.000 12.000
                            Buckingham rho  0.34370000    Ang       
                            Buckingham C     0.0000000    eV*Ang^6  
--------------------------------------------------------------------------------
Cl   s Ca   s Buckingham    Buckingham A     2302.0000    eV        0.000 12.000
                            Buckingham rho  0.34020000    Ang       
                            Buckingham C     0.0000000    eV*Ang^6  
--------------------------------------------------------------------------------
O    s Sr   s Buckingham    Buckingham A     959.10000    eV        0.000 12.000
                            Buckingham rho  0.37210000    Ang       
                            Buckingham C     0.0000000    eV*Ang^6  
--------------------------------------------------------------------------------
Cl   s Sr   s Buckingham    Buckingham A     2191.0900    eV        0.000 12.000
                            Buckingham rho  0.34570000    Ang       
                            Buckingham C     0.0000000    eV*Ang^6  
--------------------------------------------------------------------------------
O    s Ba   s Buckingham    Buckingham A     905.70000    eV        0.000 12.000
                            Buckingham rho  0.39760000    Ang       
                            Buckingham C     0.0000000    eV*Ang^6  
--------------------------------------------------------------------------------
Cl   s Ba   s Buckingham    Buckingham A     2704.5500    eV        0.000 12.000
                            Buckingham rho  0.35280000    Ang       
                            Buckingham C     0.0000000    eV*Ang^6  
--------------------------------------------------------------------------------

********************************************************************************
*  Output for configuration   1                                                *
********************************************************************************


  Components of energy : 

--------------------------------------------------------------------------------
  Interatomic potentials     =           4.94315381 eV    
  Monopole - monopole (real) =         -10.03624526 eV    
  Monopole - monopole (recip)=         -29.53581274 eV    
  Monopole - monopole (total)=         -39.57205800 eV    
--------------------------------------------------------------------------------
  Total lattice energy       =         -34.62890419 eV    
--------------------------------------------------------------------------------
  Total lattice energy       =           -3341.1599 kJ/(mole unit cells)
--------------------------------------------------------------------------------


  Number of variables =        1

  Maximum number of calculations  =          1000
  Maximum Hessian update interval =            10
  Maximum step size               =   1.000000000
  Maximum parameter tolerance     =   0.000010000
  Maximum function  tolerance     =   0.000010000
  Maximum gradient  tolerance     =   0.001000000
  Maximum gradient  component     =   0.010000000

  Symmetry constrained optimisation

  Symmetry used for second derivatives

  Cell parameters to be optimised using strains

  Newton-Raphson optimiser to be used

  BFGS hessian update to be used

  Lower half triangular hessian to be used

  Start of bulk optimisation :

  Cycle:      0 Energy:       -34.628904  Gnorm:      4.328237  CPU:    0.015
  ** Hessian calculated **
  Cycle:      1 Energy:       -34.677667  Gnorm:      0.044008  CPU:    0.019
  Cycle:      2 Energy:       -34.677671  Gnorm:      0.003653  CPU:    0.022


  **** Optimisation achieved ****


  Final energy =     -34.67767136 eV
  Final Gnorm  =       0.00000010

  Components of energy : 

--------------------------------------------------------------------------------
  Interatomic potentials     =           5.77546103 eV    
  Monopole - monopole (real) =         -10.25970290 eV    
  Monopole - monopole (recip)=         -30.19342950 eV    
  Monopole - monopole (total)=         -40.45313239 eV    
--------------------------------------------------------------------------------
  Total lattice energy       =         -34.67767136 eV    
--------------------------------------------------------------------------------
  Total lattice energy       =           -3345.8652 kJ/(mole unit cells)
--------------------------------------------------------------------------------

  Final asymmetric unit coordinates :

--------------------------------------------------------------------------------
   No.  Atomic        x           y           z         Radius
        Label       (Frac)      (Frac)      (Frac)       (Angs) 
--------------------------------------------------------------------------------
     1  Cl    c     0.000000    0.000000    0.000000    0.000000
     2  O     c     0.500000    0.500000    0.500000    0.000000
     3  Na    c     0.500000    0.500000    0.000000    0.000000
     4  Cl    s     0.000000    0.000000    0.000000    0.000000
     5  O     s     0.500000    0.500000    0.500000    0.000000
--------------------------------------------------------------------------------

  Final Cartesian lattice vectors (Angstroms) :

        4.405902    0.000000    0.000000
        0.000000    4.405902    0.000000
        0.000000    0.000000    4.405902


  Final cell parameters and derivatives :

--------------------------------------------------------------------------------
       a            4.405902 Angstrom     dE/de1(xx)     0.000000 eV/strain
       b            4.405902 Angstrom     dE/de2(yy)     0.000000 eV/strain
       c            4.405902 Angstrom     dE/de3(zz)     0.000000 eV/strain
       alpha       90.000000 Degrees      dE/de4(yz)     0.000000 eV/strain
       beta        90.000000 Degrees      dE/de5(xz)     0.000000 eV/strain
       gamma       90.000000 Degrees      dE/de6(xy)     0.000000 eV/strain
--------------------------------------------------------------------------------

  Primitive cell volume =            85.527266 Angs**3

  Density of cell =      2.338030 g/cm**3

  Non-primitive cell volume =            85.527266 Angs**3


  Final internal derivatives :

--------------------------------------------------------------------------------
   No.  Atomic          a             b             c           Radius
        Label          (eV)          (eV)          (eV)        (eV/Angs)
--------------------------------------------------------------------------------
      1 Cl    c       0.000000      0.000000      0.000000      0.000000
      2 O     c       0.000000      0.000000      0.000000      0.000000
      3 Na    c       0.000000      0.000000      0.000000      0.000000
      4 Cl    s       0.000000      0.000000      0.000000      0.000000
      5 O     s       0.000000      0.000000      0.000000      0.000000
--------------------------------------------------------------------------------
  Maximum abs         0.000000      0.000000      0.000000      0.000000
--------------------------------------------------------------------------------

  Comparison of initial and final structures : 

--------------------------------------------------------------------------------
  Parameter   Initial value   Final value   Difference    Units      Percent
--------------------------------------------------------------------------------
    Volume        91.368216     85.527266    -5.840950    Angs**3     -6.39
    a              4.504000      4.405902    -0.098098    Angstroms   -2.18
    b              4.504000      4.405902    -0.098098    Angstroms   -2.18
    c              4.504000      4.405902    -0.098098    Angstroms   -2.18
    alpha         90.000000     90.000000     0.000000    Degrees      0.00
    beta          90.000000     90.000000     0.000000    Degrees      0.00
    gamma         90.000000     90.000000     0.000000    Degrees      0.00
      1 x          0.000000      0.000000     0.000000    Fractional   0.00
      1 y          0.000000      0.000000     0.000000    Fractional   0.00
      1 z          0.000000      0.000000     0.000000    Fractional   0.00
      2 x          0.500000      0.500000     0.000000    Fractional   0.00
      2 y          0.500000      0.500000     0.000000    Fractional   0.00
      2 z          0.500000      0.500000     0.000000    Fractional   0.00
      3 x          0.500000      0.500000     0.000000    Fractional   0.00
      3 y          0.500000      0.500000     0.000000    Fractional   0.00
      3 z          0.000000      0.000000     0.000000    Fractional   0.00
      4 x          0.000000      0.000000     0.000000    Fractional   0.00
      4 y          0.000000      0.000000     0.000000    Fractional   0.00
      4 z          0.000000      0.000000     0.000000    Fractional   0.00
      5 x          0.500000      0.500000     0.000000    Fractional   0.00
      5 y          0.500000      0.500000     0.000000    Fractional   0.00
      5 z          0.500000      0.500000     0.000000    Fractional   0.00
--------------------------------------------------------------------------------


  Born effective charge tensors : 

-------------------------------------------------------------------------------
  Atom             x           y             z
-------------------------------------------------------------------------------
    1 Cl    x      -0.9918     -0.0000     -0.0000
            y      -0.0000     -0.9918     -0.0000
            z      -0.0000     -0.0000     -0.9918
-------------------------------------------------------------------------------
    2 O     x      -2.2939      0.0000      0.0000
            y       0.0000     -2.2939      0.0000
            z       0.0000      0.0000     -2.2939
-------------------------------------------------------------------------------
    3 Na    x       1.2243      0.0000      0.0000
            y       0.0000      1.2243     -0.0000
            z       0.0000      0.0000      0.8372
-------------------------------------------------------------------------------




  Elastic Constant Matrix: (Units=GPa)

-------------------------------------------------------------------------------
  Indices      1         2         3         4         5         6    
-------------------------------------------------------------------------------
       1     82.7680   24.3534   24.3534   -0.0000    0.0000   -0.0000
       2     24.3534   82.7680   24.3534    0.0000   -0.0000   -0.0000
       3     24.3534   24.3534   82.7680    0.0000   -0.0000    0.0000
       4     -0.0000    0.0000    0.0000   24.3534   -0.0000    0.0000
       5      0.0000   -0.0000   -0.0000   -0.0000   24.3534    0.0000
       6     -0.0000   -0.0000    0.0000    0.0000    0.0000   24.3534
-------------------------------------------------------------------------------


  Elastic Compliance Matrix: (Units=1/GPa)

-------------------------------------------------------------------------------
  Indices      1         2         3         4         5         6    
-------------------------------------------------------------------------------
       1    0.013948 -0.003171 -0.003171  0.000000 -0.000000  0.000000
       2   -0.003171  0.013948 -0.003171 -0.000000  0.000000 -0.000000
       3   -0.003171 -0.003171  0.013948 -0.000000  0.000000 -0.000000
       4    0.000000 -0.000000 -0.000000  0.041062  0.000000 -0.000000
       5   -0.000000  0.000000  0.000000  0.000000  0.041062 -0.000000
       6    0.000000 -0.000000 -0.000000 -0.000000 -0.000000  0.041062
-------------------------------------------------------------------------------

  Mechanical properties :

-------------------------------------------------------------------------------
  Convention :                    Reuss         Voigt         Hill
-------------------------------------------------------------------------------
  Bulk  Modulus (GPa)     =      43.82493      43.82493      43.82493
  Shear Modulus (GPa)     =      26.08758      26.29496      26.19127
-------------------------------------------------------------------------------
  Velocity S-wave (km/s)  =       3.34035       3.35360       3.34698
  Velocity P-wave (km/s)  =       5.79842       5.80861       5.80351
-------------------------------------------------------------------------------
  Compressibility (1/GPa) =    0.02281806
-------------------------------------------------------------------------------
  Stress axis :                     x             y             z
-------------------------------------------------------------------------------
  Youngs Moduli (GPa)     =      71.69479      71.69479      71.69479
-------------------------------------------------------------------------------
  Poissons Ratio (x)      =                     0.22734       0.22734
  Poissons Ratio (y)      =       0.22734                     0.22734
  Poissons Ratio (z)      =       0.22734       0.22734
-------------------------------------------------------------------------------


  Piezoelectric Strain Matrix: (Units=C/m**2)

-------------------------------------------------------------------------------
  Indices      1         2         3         4         5         6    
-------------------------------------------------------------------------------
       x    -0.00000  -0.00000  -0.00000  -0.00000   0.00000  -0.00000
       y     0.00000  -0.00000   0.00000   0.00000  -0.00000   0.00000
       z    -0.00000  -0.00000   0.00000  -0.00000   0.00000  -0.00000
-------------------------------------------------------------------------------


  Piezoelectric Stress Matrix: (Units=10**-11 C/N)

-------------------------------------------------------------------------------
  Indices      1         2         3         4         5         6    
-------------------------------------------------------------------------------
       x     0.00000  -0.00000  -0.00000  -0.00000   0.00000  -0.00000
       y     0.00000  -0.00000   0.00000   0.00000  -0.00000   0.00000
       z    -0.00000  -0.00000   0.00000  -0.00000   0.00000  -0.00000
-------------------------------------------------------------------------------


  Static dielectric constant tensor : 

-------------------------------------------------------------------------------
              x         y         z
-------------------------------------------------------------------------------
       x    11.08357   0.00000   0.00000
       y     0.00000  11.08357   0.00000
       z     0.00000   0.00000  11.08357
--------------------------------------------------------------------------------

  High frequency dielectric constant tensor : 

-------------------------------------------------------------------------------
              x         y         z
-------------------------------------------------------------------------------
       x     1.50771   0.00000   0.00000
       y     0.00000   1.50771   0.00000
       z     0.00000   0.00000   1.50771
-------------------------------------------------------------------------------

  Static refractive indices : 

-------------------------------------------------------------------------------
    1 =    3.32920      2 =    3.32920      3 =    3.32920
-------------------------------------------------------------------------------

  High frequency refractive indices : 

-------------------------------------------------------------------------------
    1 =    1.22789      2 =    1.22789      3 =    1.22789
-------------------------------------------------------------------------------


  Time to end of optimisation =       0.0318 seconds

********************************************************************************
*  Defect calculation for configuration   1 :                                  *
********************************************************************************

  Total number of defects =      3

  Total charge on defect  =   1.00

  Defect centre is at   2.2520   0.0000   0.0000  Angs

  Region 1 radius =  12.0000      Number of ions =    622

  Number of symmetry inequivalent region 1 ions  =    120

  Region 2 radius =  16.0000      Number of ions =    760

  Number of symmetry inequivalent region 2a ions =    123

  Region 2a mode = 4 : screened electrostatics due to region 1 
                       neglect correction to region 1 forces from 2a
                       region 2a displacements based on defects only

  Region 2a ions will only interact with defects in region 1

  Vacancies:

--------------------------------------------------------------------------------
    Specification type     Symbol/Number         x          y          z
--------------------------------------------------------------------------------
    Cartesian                                4.504000   0.000000   0.000000
    Cartesian                                0.000000   0.000000   0.000000
--------------------------------------------------------------------------------

  Interstitials:

--------------------------------------------------------------------------------
    Specification type     Symbol/Number         x          y          z
--------------------------------------------------------------------------------
    Atom/Cartesian          Cl               4.053600   0.000000   0.000000
--------------------------------------------------------------------------------


  Symmetry reduced region 1 (Relative to defect centre) :

--------------------------------------------------------------------------------
   No.   Atomic       x            y             z       Radius  Multiplicity   
         Label      (Angs)       (Angs)        (Angs)    (Angs)     
--------------------------------------------------------------------------------
     1  Cl    c      1.8016       0.0000       0.0000    0.0000     1    Defect
     2  Na    c     -0.0490 *    -2.2030 *     0.0000    0.0000     4          
     3  O     c     -0.0490 *    -2.2030 *    -2.2030    0.0000     4          
     4  Na    c      2.1539 *    -2.2030 *    -2.2030    0.0000     4          
     5  Na    c     -2.2520 *    -2.2030 *    -2.2030    0.0000     4          
     6  Na    c      4.3569 *    -2.2030 *     0.0000    0.0000     4          
     7  Cl    c      2.1539 *     0.0000       4.4059 *  0.0000     4          
     8  Na    c     -0.0490 *    -2.2030 *     4.4059 *  0.0000     8          
     9  Cl    c     -2.2520 *     0.0000       4.4059 *  0.0000     4          
    10  Na    c     -4.4550 *    -2.2030 *     0.0000    0.0000     4          
    11  O     c      4.3569 *    -2.2030 *    -2.2030    0.0000     4          
    12  O     c     -4.4550 *    -2.2030 *    -2.2030    0.0000     4          
    13  Cl    c      6.5598 *     0.0000       0.0000    0.0000     1          
    14  Na    c      4.3569 *     4.4059 *    -2.2030 *  0.0000     8          
    15  Cl    c      2.1539 *     4.4059 *     4.4059    0.0000     4          
    16  Na    c     -0.0490 *     6.6089 *     0.0000    0.0000     4          
    17  Cl    c     -2.2520 *     4.4059 *     4.4059    0.0000     4          
    18  Na    c     -4.4550 *    -2.2030 *     4.4059 *  0.0000     8          
    19  Cl    c     -6.6579 *     0.0000       0.0000    0.0000     1          
    20  O     c     -0.0490 *    -2.2030 *     6.6089 *  0.0000     8          
    21  Na    c      6.5598 *    -2.2030 *    -2.2030    0.0000     4          
    22  Na    c      2.1539 *    -2.2030 *     6.6089 *  0.0000     8          
    23  Na    c     -2.2520 *     6.6089 *    -2.2030 *  0.0000     8          
    24  Na    c     -6.6579 *    -2.2030 *    -2.2030    0.0000     4          
    25  Cl    c      6.5598 *     0.0000       4.4059 *  0.0000     4          
    26  Na    c      4.3569 *     6.6089 *     0.0000    0.0000     4          
    27  Na    c     -0.0490 *     6.6089 *     4.4059 *  0.0000     8          
    28  Na    c     -4.4550 *     6.6089 *     0.0000    0.0000     4          
    29  Cl    c     -6.6579 *     0.0000       4.4059 *  0.0000     4          
    30  O     c      4.3569 *    -2.2030 *     6.6089 *  0.0000     8          
    31  O     c     -4.4550 *    -2.2030 *     6.6089 *  0.0000     8          
    32  Na    c      8.7628 *    -2.2030 *     0.0000    0.0000     4          
    33  Cl    c      6.5598 *     4.4059 *     4.4059    0.0000     4          
    34  Na    c      4.3569 *     6.6089 *     4.4059 *  0.0000     8          
    35  Cl    c      2.1539 *     0.0000       8.8118 *  0.0000     4          
    36  Na    c     -0.0490 *    -2.2030 *     8.8118 *  0.0000     8          
    37  Cl    c     -2.2520 *     0.0000       8.8118 *  0.0000     4          
    38  Na    c     -4.4550 *     6.6089 *     4.4059 *  0.0000     8          
    39  Cl    c     -6.6579 *     4.4059 *     4.4059    0.0000     4          
    40  Na    c     -8.8609 *    -2.2030 *     0.0000    0.0000     4          
    41  O     c      8.7628 *    -2.2030 *    -2.2030    0.0000     4          
    42  O     c     -0.0490 *     6.6089 *     6.6089    0.0000     4          
    43  O     c     -8.8609 *    -2.2030 *    -2.2030    0.0000     4          
    44  Na    c      6.5598 *    -2.2030 *     6.6089 *  0.0000     8          
    45  Na    c      2.1539 *     6.6089 *     6.6089    0.0000     4          
    46  Na    c     -2.2520 *     6.6089 *     6.6089    0.0000     4          
    47  Na    c     -6.6579 *    -2.2030 *     6.6089 *  0.0000     8          
    48  Na    c      8.7628 *     4.4059 *    -2.2030 *  0.0000     8          
    49  Na    c      4.3569 *    -2.2030 *     8.8118 *  0.0000     8          
    50  Cl    c      2.1539 *     4.4059 *     8.8118 *  0.0000     8          
    51  Cl    c     -2.2520 *     4.4059 *     8.8118 *  0.0000     8          
    52  Na    c     -4.4550 *    -2.2030 *     8.8118 *  0.0000     8          
    53  Na    c     -8.8609 *    -2.2030 *     4.4059 *  0.0000     8          
    54  O     c      4.3569 *     6.6089 *     6.6089    0.0000     4          
    55  O     c     -4.4550 *     6.6089 *     6.6089    0.0000     4          
    56  Cl    c     10.9657 *     0.0000       0.0000    0.0000     1          
    57  Na    c      8.7628 *     6.6089 *     0.0000    0.0000     4          
    58  Cl    c      6.5598 *     0.0000       8.8118 *  0.0000     4          
    59  Na    c     -0.0490 *     6.6089 *     8.8118 *  0.0000     8          
    60  Na    c     -0.0490 *    11.0148 *     0.0000    0.0000     4          
    61  Cl    c     -6.6579 *     0.0000       8.8118 *  0.0000     4          
    62  Na    c     -8.8609 *     6.6089 *     0.0000    0.0000     4          
    63  Cl    c    -11.0638 *     0.0000       0.0000    0.0000     1          
    64  O     c      8.7628 *    -2.2030 *     6.6089 *  0.0000     8          
    65  O     c     -0.0490 *    -2.2030 *    11.0148 *  0.0000     8          
    66  O     c     -8.8609 *     6.6089 *    -2.2030 *  0.0000     8          
    67  Na    c     10.9657 *    -2.2030 *    -2.2030    0.0000     4          
    68  Na    c      6.5598 *     6.6089 *     6.6089    0.0000     4          
    69  Na    c      2.1539 *    -2.2030 *    11.0148 *  0.0000     8          
    70  Na    c     -2.2520 *    -2.2030 *    11.0148 *  0.0000     8          
    71  Na    c     -6.6579 *     6.6089 *     6.6089    0.0000     4          
    72  Na    c    -11.0638 *    -2.2030 *    -2.2030    0.0000     4          
    73  Cl    c     10.9657 *     0.0000       4.4059 *  0.0000     4          
    74  Na    c      8.7628 *     6.6089 *     4.4059 *  0.0000     8          
    75  Cl    c      6.5598 *     4.4059 *     8.8118 *  0.0000     8          
    76  Na    c      4.3569 *    11.0148 *     0.0000    0.0000     4          
    77  Na    c      4.3569 *     6.6089 *     8.8118 *  0.0000     8          
    78  Na    c     -0.0490 *    11.0148 *     4.4059 *  0.0000     8          
    79  Na    c     -4.4550 *    11.0148 *     0.0000    0.0000     4          
    80  Na    c     -4.4550 *     8.8118 *     6.6089 *  0.0000     8          
    81  Cl    c     -6.6579 *     4.4059 *     8.8118 *  0.0000     8          
    82  Na    c     -8.8609 *     6.6089 *     4.4059 *  0.0000     8          
    83  Cl    c    -11.0638 *     0.0000       4.4059 *  0.0000     4          
    84  Cl    s      1.8016       0.0000       0.0000    0.0000     1    Defect
    85  O     s     -0.0490 *    -2.2030 *    -2.2030    0.0000     4          
    86  Cl    s      2.1539 *     0.0000       4.4059 *  0.0000     4          
    87  Cl    s     -2.2520 *     0.0000       4.4059 *  0.0000     4          
    88  O     s      4.3569 *    -2.2030 *    -2.2030    0.0000     4          
    89  O     s     -4.4550 *    -2.2030 *    -2.2030    0.0000     4          
    90  Cl    s      6.5598 *     0.0000       0.0000    0.0000     1          
    91  Cl    s      2.1539 *     4.4059 *     4.4059    0.0000     4          
    92  Cl    s     -2.2520 *     4.4059 *     4.4059    0.0000     4          
    93  Cl    s     -6.6579 *     0.0000       0.0000    0.0000     1          
    94  O     s     -0.0490 *    -2.2030 *     6.6089 *  0.0000     8          
    95  Cl    s      6.5598 *     0.0000       4.4059 *  0.0000     4          
    96  Cl    s     -6.6579 *     0.0000       4.4059 *  0.0000     4          
    97  O     s      4.3569 *    -2.2030 *     6.6089 *  0.0000     8          
    98  O     s     -4.4550 *    -2.2030 *     6.6089 *  0.0000     8          
    99  Cl    s      6.5598 *     4.4059 *     4.4059    0.0000     4          
   100  Cl    s      2.1539 *     0.0000       8.8118 *  0.0000     4          
   101  Cl    s     -2.2520 *     0.0000       8.8118 *  0.0000     4          
   102  Cl    s     -6.6579 *     4.4059 *     4.4059    0.0000     4          
   103  O     s      8.7628 *    -2.2030 *    -2.2030    0.0000     4          
   104  O     s     -0.0490 *     6.6089 *     6.6089    0.0000     4          
   105  O     s     -8.8609 *    -2.2030 *    -2.2030    0.0000     4          
   106  Cl    s      2.1539 *     4.4059 *     8.8118 *  0.0000     8          
   107  Cl    s     -2.2520 *     4.4059 *     8.8118 *  0.0000     8          
   108  O     s      4.3569 *     6.6089 *     6.6089    0.0000     4          
   109  O     s     -4.4550 *     6.6089 *     6.6089    0.0000     4          
   110  Cl    s     10.9657 *     0.0000       0.0000    0.0000     1          
   111  Cl    s      6.5598 *     0.0000       8.8118 *  0.0000     4          
   112  Cl    s     -6.6579 *     0.0000       8.8118 *  0.0000     4          
   113  Cl    s    -11.0638 *     0.0000       0.0000    0.0000     1          
   114  O     s      8.7628 *    -2.2030 *     6.6089 *  0.0000     8          
   115  O     s     -0.0490 *    -2.2030 *    11.0148 *  0.0000     8          
   116  O     s     -8.8609 *     6.6089 *    -2.2030 *  0.0000     8          
   117  Cl    s     10.9657 *     0.0000       4.4059 *  0.0000     4          
   118  Cl    s      6.5598 *     4.4059 *     8.8118 *  0.0000     8          
   119  Cl    s     -6.6579 *     4.4059 *     8.8118 *  0.0000     8          
   120  Cl    s    -11.0638 *     0.0000       4.4059 *  0.0000     4          
--------------------------------------------------------------------------------


  Constraints on symmetry reduced coordinates :

--------------------------------------------------------------------------------
  Constraint no.      Unconstrained     Constrained    Coefficient    
                         Variable         Variable
--------------------------------------------------------------------------------
           1                 3 y             3 z         1.00000
           2                 4 y             4 z         1.00000
           3                 5 y             5 z         1.00000
           4                11 y            11 z         1.00000
           5                12 y            12 z         1.00000
           6                15 y            15 z         1.00000
           7                17 y            17 z         1.00000
           8                21 y            21 z         1.00000
           9                24 y            24 z         1.00000
          10                33 y            33 z         1.00000
          11                39 y            39 z         1.00000
          12                41 y            41 z         1.00000
          13                42 y            42 z         1.00000
          14                43 y            43 z         1.00000
          15                45 y            45 z         1.00000
          16                46 y            46 z         1.00000
          17                54 y            54 z         1.00000
          18                55 y            55 z         1.00000
          19                67 y            67 z         1.00000
          20                68 y            68 z         1.00000
          21                71 y            71 z         1.00000
          22                72 y            72 z         1.00000
          23                85 y            85 z         1.00000
          24                88 y            88 z         1.00000
          25                89 y            89 z         1.00000
          26                91 y            91 z         1.00000
          27                92 y            92 z         1.00000
          28                99 y            99 z         1.00000
          29               102 y           102 z         1.00000
          30               103 y           103 z         1.00000
          31               104 y           104 z         1.00000
          32               105 y           105 z         1.00000
          33               108 y           108 z         1.00000
          34               109 y           109 z         1.00000
--------------------------------------------------------------------------------


  Components of defect energy : 

--------------------------------------------------------------------------------
  Region 1 - region 1                   =     34.00444603 eV
  Region 1 - region 2a (unrelaxed)      =    -25.92079366 eV
  Region 1 - 2a (relaxed - correction)  =     -0.24603715 eV
  Region 1 (Total)                      =      7.83761521 eV
  Region 2a                             =      0.12306160 eV
  Region 2b                             =     -0.41596850 eV
--------------------------------------------------------------------------------
  Total defect energy                   =      7.54470831 eV
--------------------------------------------------------------------------------

  Largest displacement in region 2 =   0.0198 Angstroms


  Number of variables =      271

  Maximum number of calculations  =        1000
  Maximum Hessian update interval =          10
  Maximum step size               =   1.0000000
  Maximum parameter tolerance     =   0.0000100
  Maximum function  tolerance     =   0.0000100
  Maximum gradient  tolerance     =   0.0010000

  Symmetry adapted optimisation

  Symmetry to be used for second derivatives

  Newton-Raphson optimiser to be used

  BFGS hessian update to be used

  Lower half triangular hessian to be used

  Start of defect optimisation :

  Cycle:      0 Defect Energy:   7.544708  Gnorm:     0.097595  CPU:    1.635
  ** Hessian calculated **
  Cycle:      1 Defect Energy:   5.248979  Gnorm:     0.005583  CPU:    6.362
  Cycle:      2 Defect Energy:   5.240621  Gnorm:     0.003892  CPU:    7.575
  Cycle:      3 Defect Energy:   5.236550  Gnorm:     0.002489  CPU:    7.981
  Cycle:      4 Defect Energy:   5.234818  Gnorm:     0.001680  CPU:    8.378
  Cycle:      5 Defect Energy:   5.234184  Gnorm:     0.001151  CPU:    8.788
  Cycle:      6 Defect Energy:   5.233923  Gnorm:     0.000805  CPU:    9.189
  Cycle:      7 Defect Energy:   5.233827  Gnorm:     0.000562  CPU:    9.584
  Cycle:      8 Defect Energy:   5.233799  Gnorm:     0.000393  CPU:    9.984
  Cycle:      9 Defect Energy:   5.233799  Gnorm:     0.000275  CPU:   10.391
  Cycle:     10 Defect Energy:   5.233808  Gnorm:     0.000193  CPU:   10.615
  ** Hessian calculated **
  Cycle:     11 Defect Energy:   5.233820  Gnorm:     0.000135  CPU:   11.412
  Cycle:     12 Defect Energy:   5.233830  Gnorm:     0.000094  CPU:   11.804


  **** Optimisation achieved ****


  Final defect energy  =        5.23383786
  Final defect Gnorm   =        0.00006604

  Components of defect energy : 

--------------------------------------------------------------------------------
  Region 1 - region 1                   =     29.14711087 eV
  Region 1 - region 2a (unrelaxed)      =    -23.40907174 eV
  Region 1 - 2a (relaxed - correction)  =     -0.18439003 eV
  Region 1 (Total)                      =      5.55364910 eV
  Region 2a                             =      0.09215856 eV
  Region 2b                             =     -0.41196980 eV
--------------------------------------------------------------------------------
  Total defect energy                   =      5.23383786 eV
--------------------------------------------------------------------------------

  Largest displacement in region 2 =   0.0198 Angstroms

  Final coordinates of region 1 :

--------------------------------------------------------------------------------
   No.  Atomic        x           y           z          Radius      Charge
        Label       (Angs)      (Angs)      (Angs)       (Angs)       (e) 
--------------------------------------------------------------------------------
     1  Cl    c     4.053600    0.000000    0.000000    0.000000    1.485000
     2  Na    c     2.277280   -2.319071    0.000000    0.000000    1.000000
     3  Na    c     2.277280    2.319071    0.000000    0.000000    1.000000
     4  Na    c     2.277280    0.000000   -2.319071    0.000000    1.000000
     5  Na    c     2.277280    0.000000    2.319071    0.000000    1.000000
     6  O     c     2.160442   -2.195812   -2.195812    0.000000    0.183000
     7  O     c     2.160442   -2.195812    2.195812    0.000000    0.183000
     8  O     c     2.160442    2.195812   -2.195812    0.000000    0.183000
     9  O     c     2.160442    2.195812    2.195812    0.000000    0.183000
    10  Na    c     4.394113   -2.192513   -2.192513    0.000000    1.000000
    11  Na    c     4.394113   -2.192513    2.192513    0.000000    1.000000
    12  Na    c     4.394113    2.192513   -2.192513    0.000000    1.000000
    13  Na    c     4.394113    2.192513    2.192513    0.000000    1.000000
    14  Na    c    -0.010734   -2.343231   -2.343231    0.000000    1.000000
    15  Na    c    -0.010734   -2.343231    2.343231    0.000000    1.000000
    16  Na    c    -0.010734    2.343231   -2.343231    0.000000    1.000000
    17  Na    c    -0.010734    2.343231    2.343231    0.000000    1.000000
    18  Na    c     6.650351   -2.230076    0.000000    0.000000    1.000000
    19  Na    c     6.650351    2.230076    0.000000    0.000000    1.000000
    20  Na    c     6.650351    0.000000   -2.230076    0.000000    1.000000
    21  Na    c     6.650351    0.000000    2.230076    0.000000    1.000000
    22  Cl    c     4.368642    0.000000    4.373773    0.000000    1.485000
    23  Cl    c     4.368642    0.000000   -4.373773    0.000000    1.485000
    24  Cl    c     4.368642    4.373773    0.000000    0.000000    1.485000
    25  Cl    c     4.368642   -4.373773    0.000000    0.000000    1.485000
    26  Na    c     2.230364   -2.223745    4.420843    0.000000    1.000000
    27  Na    c     2.230364   -2.223745   -4.420843    0.000000    1.000000
    28  Na    c     2.230364    2.223745    4.420843    0.000000    1.000000
    29  Na    c     2.230364    2.223745   -4.420843    0.000000    1.000000
    30  Na    c     2.230364    4.420843   -2.223745    0.000000    1.000000
    31  Na    c     2.230364    4.420843    2.223745    0.000000    1.000000
    32  Na    c     2.230364   -4.420843   -2.223745    0.000000    1.000000
    33  Na    c     2.230364   -4.420843    2.223745    0.000000    1.000000
    34  Cl    c    -0.014666    0.000000    4.353635    0.000000    1.485000
    35  Cl    c    -0.014666    0.000000   -4.353635    0.000000    1.485000
    36  Cl    c    -0.014666    4.353635    0.000000    0.000000    1.485000
    37  Cl    c    -0.014666   -4.353635    0.000000    0.000000    1.485000
    38  Na    c    -2.313640   -2.328696    0.000000    0.000000    1.000000
    39  Na    c    -2.313640    2.328696    0.000000    0.000000    1.000000
    40  Na    c    -2.313640    0.000000   -2.328696    0.000000    1.000000
    41  Na    c    -2.313640    0.000000    2.328696    0.000000    1.000000
    42  O     c     6.589876   -2.195019   -2.195019    0.000000    0.183000
    43  O     c     6.589876   -2.195019    2.195019    0.000000    0.183000
    44  O     c     6.589876    2.195019   -2.195019    0.000000    0.183000
    45  O     c     6.589876    2.195019    2.195019    0.000000    0.183000
    46  O     c    -2.188343   -2.184094   -2.184094    0.000000    0.183000
    47  O     c    -2.188343   -2.184094    2.184094    0.000000    0.183000
    48  O     c    -2.188343    2.184094   -2.184094    0.000000    0.183000
    49  O     c    -2.188343    2.184094    2.184094    0.000000    0.183000
    50  Cl    c     8.768001    0.000000    0.000000    0.000000    1.485000
    51  Na    c     6.595763    4.407075   -2.215130    0.000000    1.000000
    52  Na    c     6.595763    4.407075    2.215130    0.000000    1.000000
    53  Na    c     6.595763   -4.407075   -2.215130    0.000000    1.000000
    54  Na    c     6.595763   -4.407075    2.215130    0.000000    1.000000
    55  Na    c     6.595763   -2.215130    4.407075    0.000000    1.000000
    56  Na    c     6.595763   -2.215130   -4.407075    0.000000    1.000000
    57  Na    c     6.595763    2.215130    4.407075    0.000000    1.000000
    58  Na    c     6.595763    2.215130   -4.407075    0.000000    1.000000
    59  Cl    c     4.376474    4.380923    4.380923    0.000000    1.485000
    60  Cl    c     4.376474    4.380923   -4.380923    0.000000    1.485000
    61  Cl    c     4.376474   -4.380923    4.380923    0.000000    1.485000
    62  Cl    c     4.376474   -4.380923   -4.380923    0.000000    1.485000
    63  Na    c     2.201200    6.629744    0.000000    0.000000    1.000000
    64  Na    c     2.201200   -6.629744    0.000000    0.000000    1.000000
    65  Na    c     2.201200    0.000000    6.629744    0.000000    1.000000
    66  Na    c     2.201200    0.000000   -6.629744    0.000000    1.000000
    67  Cl    c    -0.012181    4.390001    4.390001    0.000000    1.485000
    68  Cl    c    -0.012181    4.390001   -4.390001    0.000000    1.485000
    69  Cl    c    -0.012181   -4.390001    4.390001    0.000000    1.485000
    70  Cl    c    -0.012181   -4.390001   -4.390001    0.000000    1.485000
    71  Na    c    -2.235955   -2.223341    4.419088    0.000000    1.000000
    72  Na    c    -2.235955   -2.223341   -4.419088    0.000000    1.000000
    73  Na    c    -2.235955    2.223341    4.419088    0.000000    1.000000
    74  Na    c    -2.235955    2.223341   -4.419088    0.000000    1.000000
    75  Na    c    -2.235955    4.419088   -2.223341    0.000000    1.000000
    76  Na    c    -2.235955    4.419088    2.223341    0.000000    1.000000
    77  Na    c    -2.235955   -4.419088   -2.223341    0.000000    1.000000
    78  Na    c    -2.235955   -4.419088    2.223341    0.000000    1.000000
    79  Cl    c    -4.350520    0.000000    0.000000    0.000000    1.485000
    80  O     c     2.199073   -2.203425    6.610735    0.000000    0.183000
    81  O     c     2.199073   -2.203425   -6.610735    0.000000    0.183000
    82  O     c     2.199073    2.203425    6.610735    0.000000    0.183000
    83  O     c     2.199073    2.203425   -6.610735    0.000000    0.183000
    84  O     c     2.199073    6.610735   -2.203425    0.000000    0.183000
    85  O     c     2.199073    6.610735    2.203425    0.000000    0.183000
    86  O     c     2.199073   -6.610735   -2.203425    0.000000    0.183000
    87  O     c     2.199073   -6.610735    2.203425    0.000000    0.183000
    88  Na    c     8.808400   -2.217928   -2.217928    0.000000    1.000000
    89  Na    c     8.808400   -2.217928    2.217928    0.000000    1.000000
    90  Na    c     8.808400    2.217928   -2.217928    0.000000    1.000000
    91  Na    c     8.808400    2.217928    2.217928    0.000000    1.000000
    92  Na    c     4.404873   -2.205166    6.643139    0.000000    1.000000
    93  Na    c     4.404873   -2.205166   -6.643139    0.000000    1.000000
    94  Na    c     4.404873    2.205166    6.643139    0.000000    1.000000
    95  Na    c     4.404873    2.205166   -6.643139    0.000000    1.000000
    96  Na    c     4.404873    6.643139   -2.205166    0.000000    1.000000
    97  Na    c     4.404873    6.643139    2.205166    0.000000    1.000000
    98  Na    c     4.404873   -6.643139   -2.205166    0.000000    1.000000
    99  Na    c     4.404873   -6.643139    2.205166    0.000000    1.000000
   100  Na    c    -0.002044    6.616793   -2.206753    0.000000    1.000000
   101  Na    c    -0.002044    6.616793    2.206753    0.000000    1.000000
   102  Na    c    -0.002044   -6.616793   -2.206753    0.000000    1.000000
   103  Na    c    -0.002044   -6.616793    2.206753    0.000000    1.000000
   104  Na    c    -0.002044   -2.206753    6.616793    0.000000    1.000000
   105  Na    c    -0.002044   -2.206753   -6.616793    0.000000    1.000000
   106  Na    c    -0.002044    2.206753    6.616793    0.000000    1.000000
   107  Na    c    -0.002044    2.206753   -6.616793    0.000000    1.000000
   108  Na    c    -4.419708   -2.207663   -2.207663    0.000000    1.000000
   109  Na    c    -4.419708   -2.207663    2.207663    0.000000    1.000000
   110  Na    c    -4.419708    2.207663   -2.207663    0.000000    1.000000
   111  Na    c    -4.419708    2.207663    2.207663    0.000000    1.000000
   112  Cl    c     8.784095    0.000000    4.392118    0.000000    1.485000
   113  Cl    c     8.784095    0.000000   -4.392118    0.000000    1.485000
   114  Cl    c     8.784095    4.392118    0.000000    0.000000    1.485000
   115  Cl    c     8.784095   -4.392118    0.000000    0.000000    1.485000
   116  Na    c     6.627091    6.615029    0.000000    0.000000    1.000000
   117  Na    c     6.627091   -6.615029    0.000000    0.000000    1.000000
   118  Na    c     6.627091    0.000000    6.615029    0.000000    1.000000
   119  Na    c     6.627091    0.000000   -6.615029    0.000000    1.000000
   120  Na    c     2.206847    6.631237    4.410952    0.000000    1.000000
   121  Na    c     2.206847    6.631237   -4.410952    0.000000    1.000000
   122  Na    c     2.206847   -6.631237    4.410952    0.000000    1.000000
   123  Na    c     2.206847   -6.631237   -4.410952    0.000000    1.000000
   124  Na    c     2.206847    4.410952    6.631237    0.000000    1.000000
   125  Na    c     2.206847    4.410952   -6.631237    0.000000    1.000000
   126  Na    c     2.206847   -4.410952    6.631237    0.000000    1.000000
   127  Na    c     2.206847   -4.410952   -6.631237    0.000000    1.000000
   128  Na    c    -2.204772    6.622097    0.000000    0.000000    1.000000
   129  Na    c    -2.204772   -6.622097    0.000000    0.000000    1.000000
   130  Na    c    -2.204772    0.000000    6.622097    0.000000    1.000000
   131  Na    c    -2.204772    0.000000   -6.622097    0.000000    1.000000
   132  Cl    c    -4.381635    0.000000    4.376031    0.000000    1.485000
   133  Cl    c    -4.381635    0.000000   -4.376031    0.000000    1.485000
   134  Cl    c    -4.381635    4.376031    0.000000    0.000000    1.485000
   135  Cl    c    -4.381635   -4.376031    0.000000    0.000000    1.485000
   136  O     c     6.601794   -2.201556    6.606319    0.000000    0.183000
   137  O     c     6.601794   -2.201556   -6.606319    0.000000    0.183000
   138  O     c     6.601794    2.201556    6.606319    0.000000    0.183000
   139  O     c     6.601794    2.201556   -6.606319    0.000000    0.183000
   140  O     c     6.601794    6.606319   -2.201556    0.000000    0.183000
   141  O     c     6.601794    6.606319    2.201556    0.000000    0.183000
   142  O     c     6.601794   -6.606319   -2.201556    0.000000    0.183000
   143  O     c     6.601794   -6.606319    2.201556    0.000000    0.183000
   144  O     c    -2.204035   -2.203040    6.608430    0.000000    0.183000
   145  O     c    -2.204035   -2.203040   -6.608430    0.000000    0.183000
   146  O     c    -2.204035    2.203040    6.608430    0.000000    0.183000
   147  O     c    -2.204035    2.203040   -6.608430    0.000000    0.183000
   148  O     c    -2.204035    6.608430   -2.203040    0.000000    0.183000
   149  O     c    -2.204035    6.608430    2.203040    0.000000    0.183000
   150  O     c    -2.204035   -6.608430   -2.203040    0.000000    0.183000
   151  O     c    -2.204035   -6.608430    2.203040    0.000000    0.183000
   152  Na    c    11.015358   -2.204899    0.000000    0.000000    1.000000
   153  Na    c    11.015358    2.204899    0.000000    0.000000    1.000000
   154  Na    c    11.015358    0.000000   -2.204899    0.000000    1.000000
   155  Na    c    11.015358    0.000000    2.204899    0.000000    1.000000
   156  Cl    c     8.788514    4.394870    4.394870    0.000000    1.485000
   157  Cl    c     8.788514    4.394870   -4.394870    0.000000    1.485000
   158  Cl    c     8.788514   -4.394870    4.394870    0.000000    1.485000
   159  Cl    c     8.788514   -4.394870   -4.394870    0.000000    1.485000
   160  Na    c     6.615443    6.623786    4.407826    0.000000    1.000000
   161  Na    c     6.615443    6.623786   -4.407826    0.000000    1.000000
   162  Na    c     6.615443   -6.623786    4.407826    0.000000    1.000000
   163  Na    c     6.615443   -6.623786   -4.407826    0.000000    1.000000
   164  Na    c     6.615443    4.407826    6.623786    0.000000    1.000000
   165  Na    c     6.615443    4.407826   -6.623786    0.000000    1.000000
   166  Na    c     6.615443   -4.407826    6.623786    0.000000    1.000000
   167  Na    c     6.615443   -4.407826   -6.623786    0.000000    1.000000
   168  Cl    c     4.396623    0.000000    8.798853    0.000000    1.485000
   169  Cl    c     4.396623    0.000000   -8.798853    0.000000    1.485000
   170  Cl    c     4.396623    8.798853    0.000000    0.000000    1.485000
   171  Cl    c     4.396623   -8.798853    0.000000    0.000000    1.485000
   172  Na    c     2.194728   -2.207683    8.818960    0.000000    1.000000
   173  Na    c     2.194728   -2.207683   -8.818960    0.000000    1.000000
   174  Na    c     2.194728    2.207683    8.818960    0.000000    1.000000
   175  Na    c     2.194728    2.207683   -8.818960    0.000000    1.000000
   176  Na    c     2.194728    8.818960   -2.207683    0.000000    1.000000
   177  Na    c     2.194728    8.818960    2.207683    0.000000    1.000000
   178  Na    c     2.194728   -8.818960   -2.207683    0.000000    1.000000
   179  Na    c     2.194728   -8.818960    2.207683    0.000000    1.000000
   180  Cl    c    -0.004404    0.000000    8.794815    0.000000    1.485000
   181  Cl    c    -0.004404    0.000000   -8.794815    0.000000    1.485000
   182  Cl    c    -0.004404    8.794815    0.000000    0.000000    1.485000
   183  Cl    c    -0.004404   -8.794815    0.000000    0.000000    1.485000
   184  Na    c    -2.203666    6.632364    4.411519    0.000000    1.000000
   185  Na    c    -2.203666    6.632364   -4.411519    0.000000    1.000000
   186  Na    c    -2.203666   -6.632364    4.411519    0.000000    1.000000
   187  Na    c    -2.203666   -6.632364   -4.411519    0.000000    1.000000
   188  Na    c    -2.203666    4.411519    6.632364    0.000000    1.000000
   189  Na    c    -2.203666    4.411519   -6.632364    0.000000    1.000000
   190  Na    c    -2.203666   -4.411519    6.632364    0.000000    1.000000
   191  Na    c    -2.203666   -4.411519   -6.632364    0.000000    1.000000
   192  Cl    c    -4.383355    4.377515    4.377515    0.000000    1.485000
   193  Cl    c    -4.383355    4.377515   -4.377515    0.000000    1.485000
   194  Cl    c    -4.383355   -4.377515    4.377515    0.000000    1.485000
   195  Cl    c    -4.383355   -4.377515   -4.377515    0.000000    1.485000
   196  Na    c    -6.637516   -2.206652    0.000000    0.000000    1.000000
   197  Na    c    -6.637516    2.206652    0.000000    0.000000    1.000000
   198  Na    c    -6.637516    0.000000   -2.206652    0.000000    1.000000
   199  Na    c    -6.637516    0.000000    2.206652    0.000000    1.000000
   200  O     c    11.008351   -2.203138   -2.203138    0.000000    0.183000
   201  O     c    11.008351   -2.203138    2.203138    0.000000    0.183000
   202  O     c    11.008351    2.203138   -2.203138    0.000000    0.183000
   203  O     c    11.008351    2.203138    2.203138    0.000000    0.183000
   204  O     c     2.201208    6.610851    6.610851    0.000000    0.183000
   205  O     c     2.201208    6.610851   -6.610851    0.000000    0.183000
   206  O     c     2.201208   -6.610851    6.610851    0.000000    0.183000
   207  O     c     2.201208   -6.610851   -6.610851    0.000000    0.183000
   208  O     c    -6.610446   -2.202543   -2.202543    0.000000    0.183000
   209  O     c    -6.610446   -2.202543    2.202543    0.000000    0.183000
   210  O     c    -6.610446    2.202543   -2.202543    0.000000    0.183000
   211  O     c    -6.610446    2.202543    2.202543    0.000000    0.183000
   212  Na    c     8.810634   -2.212928    6.603399    0.000000    1.000000
   213  Na    c     8.810634   -2.212928   -6.603399    0.000000    1.000000
   214  Na    c     8.810634    2.212928    6.603399    0.000000    1.000000
   215  Na    c     8.810634    2.212928   -6.603399    0.000000    1.000000
   216  Na    c     8.810634    6.603399   -2.212928    0.000000    1.000000
   217  Na    c     8.810634    6.603399    2.212928    0.000000    1.000000
   218  Na    c     8.810634   -6.603399   -2.212928    0.000000    1.000000
   219  Na    c     8.810634   -6.603399    2.212928    0.000000    1.000000
   220  Na    c     4.406833    6.619227    6.619227    0.000000    1.000000
   221  Na    c     4.406833    6.619227   -6.619227    0.000000    1.000000
   222  Na    c     4.406833   -6.619227    6.619227    0.000000    1.000000
   223  Na    c     4.406833   -6.619227   -6.619227    0.000000    1.000000
   224  Na    c    -0.000715    6.623919    6.623919    0.000000    1.000000
   225  Na    c    -0.000715    6.623919   -6.623919    0.000000    1.000000
   226  Na    c    -0.000715   -6.623919    6.623919    0.000000    1.000000
   227  Na    c    -0.000715   -6.623919   -6.623919    0.000000    1.000000
   228  Na    c    -4.407616   -2.214139    6.635584    0.000000    1.000000
   229  Na    c    -4.407616   -2.214139   -6.635584    0.000000    1.000000
   230  Na    c    -4.407616    2.214139    6.635584    0.000000    1.000000
   231  Na    c    -4.407616    2.214139   -6.635584    0.000000    1.000000
   232  Na    c    -4.407616    6.635584   -2.214139    0.000000    1.000000
   233  Na    c    -4.407616    6.635584    2.214139    0.000000    1.000000
   234  Na    c    -4.407616   -6.635584   -2.214139    0.000000    1.000000
   235  Na    c    -4.407616   -6.635584    2.214139    0.000000    1.000000
   236  Na    c    11.024526    4.405960   -2.202002    0.000000    1.000000
   237  Na    c    11.024526    4.405960    2.202002    0.000000    1.000000
   238  Na    c    11.024526   -4.405960   -2.202002    0.000000    1.000000
   239  Na    c    11.024526   -4.405960    2.202002    0.000000    1.000000
   240  Na    c    11.024526   -2.202002    4.405960    0.000000    1.000000
   241  Na    c    11.024526   -2.202002   -4.405960    0.000000    1.000000
   242  Na    c    11.024526    2.202002    4.405960    0.000000    1.000000
   243  Na    c    11.024526    2.202002   -4.405960    0.000000    1.000000
   244  Na    c     6.619964   -2.197106    8.814733    0.000000    1.000000
   245  Na    c     6.619964   -2.197106   -8.814733    0.000000    1.000000
   246  Na    c     6.619964    2.197106    8.814733    0.000000    1.000000
   247  Na    c     6.619964    2.197106   -8.814733    0.000000    1.000000
   248  Na    c     6.619964    8.814733   -2.197106    0.000000    1.000000
   249  Na    c     6.619964    8.814733    2.197106    0.000000    1.000000
   250  Na    c     6.619964   -8.814733   -2.197106    0.000000    1.000000
   251  Na    c     6.619964   -8.814733    2.197106    0.000000    1.000000
   252  Cl    c     4.397594    4.401844    8.799337    0.000000    1.485000
   253  Cl    c     4.397594    4.401844   -8.799337    0.000000    1.485000
   254  Cl    c     4.397594    8.799337    4.401844    0.000000    1.485000
   255  Cl    c     4.397594    8.799337   -4.401844    0.000000    1.485000
   256  Cl    c     4.397594   -4.401844    8.799337    0.000000    1.485000
   257  Cl    c     4.397594   -4.401844   -8.799337    0.000000    1.485000
   258  Cl    c     4.397594   -8.799337    4.401844    0.000000    1.485000
   259  Cl    c     4.397594   -8.799337   -4.401844    0.000000    1.485000
   260  Cl    c    -0.003214    4.402443    8.798365    0.000000    1.485000
   261  Cl    c    -0.003214    4.402443   -8.798365    0.000000    1.485000
   262  Cl    c    -0.003214    8.798365    4.402443    0.000000    1.485000
   263  Cl    c    -0.003214    8.798365   -4.402443    0.000000    1.485000
   264  Cl    c    -0.003214   -4.402443    8.798365    0.000000    1.485000
   265  Cl    c    -0.003214   -4.402443   -8.798365    0.000000    1.485000
   266  Cl    c    -0.003214   -8.798365    4.402443    0.000000    1.485000
   267  Cl    c    -0.003214   -8.798365   -4.402443    0.000000    1.485000
   268  Na    c    -2.194143   -2.198453    8.816695    0.000000    1.000000
   269  Na    c    -2.194143   -2.198453   -8.816695    0.000000    1.000000
   270  Na    c    -2.194143    2.198453    8.816695    0.000000    1.000000
   271  Na    c    -2.194143    2.198453   -8.816695    0.000000    1.000000
   272  Na    c    -2.194143    8.816695   -2.198453    0.000000    1.000000
   273  Na    c    -2.194143    8.816695    2.198453    0.000000    1.000000
   274  Na    c    -2.194143   -8.816695   -2.198453    0.000000    1.000000
   275  Na    c    -2.194143   -8.816695    2.198453    0.000000    1.000000
   276  Na    c    -6.615328   -2.207221    4.408470    0.000000    1.000000
   277  Na    c    -6.615328   -2.207221   -4.408470    0.000000    1.000000
   278  Na    c    -6.615328    2.207221    4.408470    0.000000    1.000000
   279  Na    c    -6.615328    2.207221   -4.408470    0.000000    1.000000
   280  Na    c    -6.615328    4.408470   -2.207221    0.000000    1.000000
   281  Na    c    -6.615328    4.408470    2.207221    0.000000    1.000000
   282  Na    c    -6.615328   -4.408470   -2.207221    0.000000    1.000000
   283  Na    c    -6.615328   -4.408470    2.207221    0.000000    1.000000
   284  O     c     6.606044    6.609081    6.609081    0.000000    0.183000
   285  O     c     6.606044    6.609081   -6.609081    0.000000    0.183000
   286  O     c     6.606044   -6.609081    6.609081    0.000000    0.183000
   287  O     c     6.606044   -6.609081   -6.609081    0.000000    0.183000
   288  O     c    -2.203395    6.612053    6.612053    0.000000    0.183000
   289  O     c    -2.203395    6.612053   -6.612053    0.000000    0.183000
   290  O     c    -2.203395   -6.612053    6.612053    0.000000    0.183000
   291  O     c    -2.203395   -6.612053   -6.612053    0.000000    0.183000
   292  Cl    c    13.199390    0.000000    0.000000    0.000000    1.485000
   293  Na    c    11.018320    6.615146    0.000000    0.000000    1.000000
   294  Na    c    11.018320   -6.615146    0.000000    0.000000    1.000000
   295  Na    c    11.018320    0.000000    6.615146    0.000000    1.000000
   296  Na    c    11.018320    0.000000   -6.615146    0.000000    1.000000
   297  Cl    c     8.800113    0.000000    8.800793    0.000000    1.485000
   298  Cl    c     8.800113    0.000000   -8.800793    0.000000    1.485000
   299  Cl    c     8.800113    8.800793    0.000000    0.000000    1.485000
   300  Cl    c     8.800113   -8.800793    0.000000    0.000000    1.485000
   301  Na    c     2.205862    6.616911    8.817647    0.000000    1.000000
   302  Na    c     2.205862    6.616911   -8.817647    0.000000    1.000000
   303  Na    c     2.205862   -6.616911    8.817647    0.000000    1.000000
   304  Na    c     2.205862   -6.616911   -8.817647    0.000000    1.000000
   305  Na    c     2.205862    8.817647    6.616911    0.000000    1.000000
   306  Na    c     2.205862    8.817647   -6.616911    0.000000    1.000000
   307  Na    c     2.205862   -8.817647    6.616911    0.000000    1.000000
   308  Na    c     2.205862   -8.817647   -6.616911    0.000000    1.000000
   309  Na    c     2.207273   11.023079    0.000000    0.000000    1.000000
   310  Na    c     2.207273  -11.023079    0.000000    0.000000    1.000000
   311  Na    c     2.207273    0.000000   11.023079    0.000000    1.000000
   312  Na    c     2.207273    0.000000  -11.023079    0.000000    1.000000
   313  Cl    c    -4.403714    0.000000    8.795789    0.000000    1.485000
   314  Cl    c    -4.403714    0.000000   -8.795789    0.000000    1.485000
   315  Cl    c    -4.403714    8.795789    0.000000    0.000000    1.485000
   316  Cl    c    -4.403714   -8.795789    0.000000    0.000000    1.485000
   317  Na    c    -6.618232    6.619785    0.000000    0.000000    1.000000
   318  Na    c    -6.618232   -6.619785    0.000000    0.000000    1.000000
   319  Na    c    -6.618232    0.000000    6.619785    0.000000    1.000000
   320  Na    c    -6.618232    0.000000   -6.619785    0.000000    1.000000
   321  Cl    c    -8.792172    0.000000    0.000000    0.000000    1.485000
   322  O     c    11.010967   -2.202880    6.605733    0.000000    0.183000
   323  O     c    11.010967   -2.202880   -6.605733    0.000000    0.183000
   324  O     c    11.010967    2.202880    6.605733    0.000000    0.183000
   325  O     c    11.010967    2.202880   -6.605733    0.000000    0.183000
   326  O     c    11.010967    6.605733   -2.202880    0.000000    0.183000
   327  O     c    11.010967    6.605733    2.202880    0.000000    0.183000
   328  O     c    11.010967   -6.605733   -2.202880    0.000000    0.183000
   329  O     c    11.010967   -6.605733    2.202880    0.000000    0.183000
   330  O     c     2.201185   -2.203118   11.014878    0.000000    0.183000
   331  O     c     2.201185   -2.203118  -11.014878    0.000000    0.183000
   332  O     c     2.201185    2.203118   11.014878    0.000000    0.183000
   333  O     c     2.201185    2.203118  -11.014878    0.000000    0.183000
   334  O     c     2.201185   11.014878   -2.203118    0.000000    0.183000
   335  O     c     2.201185   11.014878    2.203118    0.000000    0.183000
   336  O     c     2.201185  -11.014878   -2.203118    0.000000    0.183000
   337  O     c     2.201185  -11.014878    2.203118    0.000000    0.183000
   338  O     c    -6.606099    6.606126   -2.202394    0.000000    0.183000
   339  O     c    -6.606099    6.606126    2.202394    0.000000    0.183000
   340  O     c    -6.606099   -6.606126   -2.202394    0.000000    0.183000
   341  O     c    -6.606099   -6.606126    2.202394    0.000000    0.183000
   342  O     c    -6.606099   -2.202394    6.606126    0.000000    0.183000
   343  O     c    -6.606099   -2.202394   -6.606126    0.000000    0.183000
   344  O     c    -6.606099    2.202394    6.606126    0.000000    0.183000
   345  O     c    -6.606099    2.202394   -6.606126    0.000000    0.183000
   346  Na    c    13.218529   -2.201979   -2.201979    0.000000    1.000000
   347  Na    c    13.218529   -2.201979    2.201979    0.000000    1.000000
   348  Na    c    13.218529    2.201979   -2.201979    0.000000    1.000000
   349  Na    c    13.218529    2.201979    2.201979    0.000000    1.000000
   350  Na    c     8.813961    6.610727    6.610727    0.000000    1.000000
   351  Na    c     8.813961    6.610727   -6.610727    0.000000    1.000000
   352  Na    c     8.813961   -6.610727    6.610727    0.000000    1.000000
   353  Na    c     8.813961   -6.610727   -6.610727    0.000000    1.000000
   354  Na    c     4.407020   -2.205452   11.023147    0.000000    1.000000
   355  Na    c     4.407020   -2.205452  -11.023147    0.000000    1.000000
   356  Na    c     4.407020    2.205452   11.023147    0.000000    1.000000
   357  Na    c     4.407020    2.205452  -11.023147    0.000000    1.000000
   358  Na    c     4.407020   11.023147   -2.205452    0.000000    1.000000
   359  Na    c     4.407020   11.023147    2.205452    0.000000    1.000000
   360  Na    c     4.407020  -11.023147   -2.205452    0.000000    1.000000
   361  Na    c     4.407020  -11.023147    2.205452    0.000000    1.000000
   362  Na    c    -0.000647   -2.206275   11.032694    0.000000    1.000000
   363  Na    c    -0.000647   -2.206275  -11.032694    0.000000    1.000000
   364  Na    c    -0.000647    2.206275   11.032694    0.000000    1.000000
   365  Na    c    -0.000647    2.206275  -11.032694    0.000000    1.000000
   366  Na    c    -0.000647   11.032694   -2.206275    0.000000    1.000000
   367  Na    c    -0.000647   11.032694    2.206275    0.000000    1.000000
   368  Na    c    -0.000647  -11.032694   -2.206275    0.000000    1.000000
   369  Na    c    -0.000647  -11.032694    2.206275    0.000000    1.000000
   370  Na    c    -4.407741    6.617428    6.617428    0.000000    1.000000
   371  Na    c    -4.407741    6.617428   -6.617428    0.000000    1.000000
   372  Na    c    -4.407741   -6.617428    6.617428    0.000000    1.000000
   373  Na    c    -4.407741   -6.617428   -6.617428    0.000000    1.000000
   374  Na    c    -8.817230   -2.210606   -2.210606    0.000000    1.000000
   375  Na    c    -8.817230   -2.210606    2.210606    0.000000    1.000000
   376  Na    c    -8.817230    2.210606   -2.210606    0.000000    1.000000
   377  Na    c    -8.817230    2.210606    2.210606    0.000000    1.000000
   378  Cl    c    13.196451    0.000000    4.399121    0.000000    1.485000
   379  Cl    c    13.196451    0.000000   -4.399121    0.000000    1.485000
   380  Cl    c    13.196451    4.399121    0.000000    0.000000    1.485000
   381  Cl    c    13.196451   -4.399121    0.000000    0.000000    1.485000
   382  Na    c    11.027828    6.616982    4.407186    0.000000    1.000000
   383  Na    c    11.027828    6.616982   -4.407186    0.000000    1.000000
   384  Na    c    11.027828   -6.616982    4.407186    0.000000    1.000000
   385  Na    c    11.027828   -6.616982   -4.407186    0.000000    1.000000
   386  Na    c    11.027828    4.407186    6.616982    0.000000    1.000000
   387  Na    c    11.027828    4.407186   -6.616982    0.000000    1.000000
   388  Na    c    11.027828   -4.407186    6.616982    0.000000    1.000000
   389  Na    c    11.027828   -4.407186   -6.616982    0.000000    1.000000
   390  Cl    c     8.799802    4.399537    8.795743    0.000000    1.485000
   391  Cl    c     8.799802    4.399537   -8.795743    0.000000    1.485000
   392  Cl    c     8.799802    8.795743    4.399537    0.000000    1.485000
   393  Cl    c     8.799802    8.795743   -4.399537    0.000000    1.485000
   394  Cl    c     8.799802   -4.399537    8.795743    0.000000    1.485000
   395  Cl    c     8.799802   -4.399537   -8.795743    0.000000    1.485000
   396  Cl    c     8.799802   -8.795743    4.399537    0.000000    1.485000
   397  Cl    c     8.799802   -8.795743   -4.399537    0.000000    1.485000
   398  Na    c     6.615397   11.034130    0.000000    0.000000    1.000000
   399  Na    c     6.615397  -11.034130    0.000000    0.000000    1.000000
   400  Na    c     6.615397    0.000000   11.034130    0.000000    1.000000
   401  Na    c     6.615397    0.000000  -11.034130    0.000000    1.000000
   402  Na    c     6.616850    6.618851    8.815841    0.000000    1.000000
   403  Na    c     6.616850    6.618851   -8.815841    0.000000    1.000000
   404  Na    c     6.616850   -6.618851    8.815841    0.000000    1.000000
   405  Na    c     6.616850   -6.618851   -8.815841    0.000000    1.000000
   406  Na    c     6.616850    8.815841    6.618851    0.000000    1.000000
   407  Na    c     6.616850    8.815841   -6.618851    0.000000    1.000000
   408  Na    c     6.616850   -8.815841    6.618851    0.000000    1.000000
   409  Na    c     6.616850   -8.815841   -6.618851    0.000000    1.000000
   410  Na    c     2.205880   11.031746    4.408390    0.000000    1.000000
   411  Na    c     2.205880   11.031746   -4.408390    0.000000    1.000000
   412  Na    c     2.205880  -11.031746    4.408390    0.000000    1.000000
   413  Na    c     2.205880  -11.031746   -4.408390    0.000000    1.000000
   414  Na    c     2.205880    4.408390   11.031746    0.000000    1.000000
   415  Na    c     2.205880    4.408390  -11.031746    0.000000    1.000000
   416  Na    c     2.205880   -4.408390   11.031746    0.000000    1.000000
   417  Na    c     2.205880   -4.408390  -11.031746    0.000000    1.000000
   418  Na    c    -2.207543   11.033608    0.000000    0.000000    1.000000
   419  Na    c    -2.207543  -11.033608    0.000000    0.000000    1.000000
   420  Na    c    -2.207543    0.000000   11.033608    0.000000    1.000000
   421  Na    c    -2.207543    0.000000  -11.033608    0.000000    1.000000
   422  Na    c    -2.206657    8.817953    6.621365    0.000000    1.000000
   423  Na    c    -2.206657    8.817953   -6.621365    0.000000    1.000000
   424  Na    c    -2.206657   -8.817953    6.621365    0.000000    1.000000
   425  Na    c    -2.206657   -8.817953   -6.621365    0.000000    1.000000
   426  Na    c    -2.206657    6.621365    8.817953    0.000000    1.000000
   427  Na    c    -2.206657    6.621365   -8.817953    0.000000    1.000000
   428  Na    c    -2.206657   -6.621365    8.817953    0.000000    1.000000
   429  Na    c    -2.206657   -6.621365   -8.817953    0.000000    1.000000
   430  Cl    c    -4.401483    4.398815    8.792239    0.000000    1.485000
   431  Cl    c    -4.401483    4.398815   -8.792239    0.000000    1.485000
   432  Cl    c    -4.401483    8.792239    4.398815    0.000000    1.485000
   433  Cl    c    -4.401483    8.792239   -4.398815    0.000000    1.485000
   434  Cl    c    -4.401483   -4.398815    8.792239    0.000000    1.485000
   435  Cl    c    -4.401483   -4.398815   -8.792239    0.000000    1.485000
   436  Cl    c    -4.401483   -8.792239    4.398815    0.000000    1.485000
   437  Cl    c    -4.401483   -8.792239   -4.398815    0.000000    1.485000
   438  Na    c    -6.623223    6.621649    4.408121    0.000000    1.000000
   439  Na    c    -6.623223    6.621649   -4.408121    0.000000    1.000000
   440  Na    c    -6.623223   -6.621649    4.408121    0.000000    1.000000
   441  Na    c    -6.623223   -6.621649   -4.408121    0.000000    1.000000
   442  Na    c    -6.623223    4.408121    6.621649    0.000000    1.000000
   443  Na    c    -6.623223    4.408121   -6.621649    0.000000    1.000000
   444  Na    c    -6.623223   -4.408121    6.621649    0.000000    1.000000
   445  Na    c    -6.623223   -4.408121   -6.621649    0.000000    1.000000
   446  Cl    c    -8.790990    0.000000    4.398658    0.000000    1.485000
   447  Cl    c    -8.790990    0.000000   -4.398658    0.000000    1.485000
   448  Cl    c    -8.790990    4.398658    0.000000    0.000000    1.485000
   449  Cl    c    -8.790990   -4.398658    0.000000    0.000000    1.485000
   450  Cl    s     4.053600    0.000000    0.000000    0.000000   -2.485000
   451  O     s     2.160447   -2.195839   -2.195839    0.000000   -2.183000
   452  O     s     2.160447   -2.195839    2.195839    0.000000   -2.183000
   453  O     s     2.160447    2.195839   -2.195839    0.000000   -2.183000
   454  O     s     2.160447    2.195839    2.195839    0.000000   -2.183000
   455  Cl    s     4.359628    0.000000    4.364480    0.000000   -2.485000
   456  Cl    s     4.359628    0.000000   -4.364480    0.000000   -2.485000
   457  Cl    s     4.359628    4.364480    0.000000    0.000000   -2.485000
   458  Cl    s     4.359628   -4.364480    0.000000    0.000000   -2.485000
   459  Cl    s    -0.015726    0.000000    4.349127    0.000000   -2.485000
   460  Cl    s    -0.015726    0.000000   -4.349127    0.000000   -2.485000
   461  Cl    s    -0.015726    4.349127    0.000000    0.000000   -2.485000
   462  Cl    s    -0.015726   -4.349127    0.000000    0.000000   -2.485000
   463  O     s     6.589874   -2.195014   -2.195014    0.000000   -2.183000
   464  O     s     6.589874   -2.195014    2.195014    0.000000   -2.183000
   465  O     s     6.589874    2.195014   -2.195014    0.000000   -2.183000
   466  O     s     6.589874    2.195014    2.195014    0.000000   -2.183000
   467  O     s    -2.188357   -2.184111   -2.184111    0.000000   -2.183000
[...]
     40 y         -2.202951     -2.206652    -0.003700    Cartesian    0.17
     40 z          0.000000      0.000000     0.000000    Cartesian    0.00
     41 x         11.014756     11.008351    -0.006404    Cartesian   -0.06
     41 y         -2.202951     -2.203138    -0.000187    Cartesian    0.01
     41 z         -2.202951     -2.203138    -0.000187    Cartesian    0.01
     42 x          2.202951      2.201208    -0.001743    Cartesian   -0.08
     42 y          6.608853      6.610851     0.001998    Cartesian    0.03
     42 z          6.608853      6.610851     0.001998    Cartesian    0.03
     43 x         -6.608853     -6.610446    -0.001593    Cartesian    0.02
     43 y         -2.202951     -2.202543     0.000408    Cartesian   -0.02
     43 z         -2.202951     -2.202543     0.000408    Cartesian   -0.02
     44 x          8.811805      8.810634    -0.001171    Cartesian   -0.01
     44 y         -2.202951     -2.212928    -0.009977    Cartesian    0.45
     44 z          6.608853      6.603399    -0.005455    Cartesian   -0.08
     45 x          4.405902      4.406833     0.000931    Cartesian    0.02
     45 y          6.608853      6.619227     0.010374    Cartesian    0.16
     45 z          6.608853      6.619227     0.010374    Cartesian    0.16
     46 x          0.000000     -0.000715    -0.000715    Cartesian    0.00
     46 y          6.608853      6.623919     0.015065    Cartesian    0.23
     46 z          6.608853      6.623919     0.015065    Cartesian    0.23
     47 x         -4.405902     -4.407616    -0.001713    Cartesian    0.04
     47 y         -2.202951     -2.214139    -0.011188    Cartesian    0.51
     47 z          6.608853      6.635584     0.026731    Cartesian    0.40
     48 x         11.014756     11.024526     0.009770    Cartesian    0.09
     48 y          4.405902      4.405960     0.000058    Cartesian    0.00
     48 z         -2.202951     -2.202002     0.000949    Cartesian   -0.04
     49 x          6.608853      6.619964     0.011111    Cartesian    0.17
     49 y         -2.202951     -2.197106     0.005845    Cartesian   -0.27
     49 z          8.811805      8.814733     0.002928    Cartesian    0.03
     50 x          4.405902      4.397594    -0.008308    Cartesian   -0.19
     50 y          4.405902      4.401844    -0.004058    Cartesian   -0.09
     50 z          8.811805      8.799337    -0.012467    Cartesian   -0.14
     51 x          0.000000     -0.003214    -0.003214    Cartesian    0.00
     51 y          4.405902      4.402443    -0.003459    Cartesian   -0.08
     51 z          8.811805      8.798365    -0.013439    Cartesian   -0.15
     52 x         -2.202951     -2.194143     0.008808    Cartesian   -0.40
     52 y         -2.202951     -2.198453     0.004498    Cartesian   -0.20
     52 z          8.811805      8.816695     0.004891    Cartesian    0.06
     53 x         -6.608853     -6.615328    -0.006475    Cartesian    0.10
     53 y         -2.202951     -2.207221    -0.004270    Cartesian    0.19
     53 z          4.405902      4.408470     0.002568    Cartesian    0.06
     54 x          6.608853      6.606044    -0.002809    Cartesian   -0.04
     54 y          6.608853      6.609081     0.000228    Cartesian    0.00
     54 z          6.608853      6.609081     0.000228    Cartesian    0.00
     55 x         -2.202951     -2.203395    -0.000444    Cartesian    0.02
     55 y          6.608853      6.612053     0.003199    Cartesian    0.05
     55 z          6.608853      6.612053     0.003199    Cartesian    0.05
     56 x         13.217707     13.199390    -0.018317    Cartesian   -0.14
     56 y          0.000000      0.000000     0.000000    Cartesian    0.00
     56 z          0.000000      0.000000     0.000000    Cartesian    0.00
     57 x         11.014756     11.018320     0.003564    Cartesian    0.03
     57 y          6.608853      6.615146     0.006292    Cartesian    0.10
     57 z          0.000000      0.000000     0.000000    Cartesian    0.00
     58 x          8.811805      8.800113    -0.011692    Cartesian   -0.13
     58 y          0.000000      0.000000     0.000000    Cartesian    0.00
     58 z          8.811805      8.800793    -0.011011    Cartesian   -0.12
     59 x          2.202951      2.205862     0.002911    Cartesian    0.13
     59 y          6.608853      6.616911     0.008057    Cartesian    0.12
     59 z          8.811805      8.817647     0.005843    Cartesian    0.07
     60 x          2.202951      2.207273     0.004322    Cartesian    0.20
     60 y         11.014756     11.023079     0.008324    Cartesian    0.08
     60 z          0.000000      0.000000     0.000000    Cartesian    0.00
     61 x         -4.405902     -4.403714     0.002189    Cartesian   -0.05
     61 y          0.000000      0.000000     0.000000    Cartesian    0.00
     61 z          8.811805      8.795789    -0.016016    Cartesian   -0.18
     62 x         -6.608853     -6.618232    -0.009378    Cartesian    0.14
     62 y          6.608853      6.619785     0.010932    Cartesian    0.17
     62 z          0.000000      0.000000     0.000000    Cartesian    0.00
     63 x         -8.811805     -8.792172     0.019633    Cartesian   -0.22
     63 y          0.000000      0.000000     0.000000    Cartesian    0.00
     63 z          0.000000      0.000000     0.000000    Cartesian    0.00
     64 x         11.014756     11.010967    -0.003789    Cartesian   -0.03
     64 y         -2.202951     -2.202880     0.000071    Cartesian   -0.00
     64 z          6.608853      6.605733    -0.003120    Cartesian   -0.05
     65 x          2.202951      2.201185    -0.001766    Cartesian   -0.08
     65 y         -2.202951     -2.203118    -0.000167    Cartesian    0.01
     65 z         11.014756     11.014878     0.000123    Cartesian    0.00
     66 x         -6.608853     -6.606099     0.002754    Cartesian   -0.04
     66 y          6.608853      6.606126    -0.002727    Cartesian   -0.04
     66 z         -2.202951     -2.202394     0.000557    Cartesian   -0.03
     67 x         13.217707     13.218529     0.000822    Cartesian    0.01
     67 y         -2.202951     -2.201979     0.000972    Cartesian   -0.04
     67 z         -2.202951     -2.201979     0.000972    Cartesian   -0.04
     68 x          8.811805      8.813961     0.002157    Cartesian    0.02
     68 y          6.608853      6.610727     0.001873    Cartesian    0.03
     68 z          6.608853      6.610727     0.001873    Cartesian    0.03
     69 x          4.405902      4.407020     0.001118    Cartesian    0.03
     69 y         -2.202951     -2.205452    -0.002501    Cartesian    0.11
     69 z         11.014756     11.023147     0.008392    Cartesian    0.08
     70 x          0.000000     -0.000647    -0.000647    Cartesian    0.00
     70 y         -2.202951     -2.206275    -0.003324    Cartesian    0.15
     70 z         11.014756     11.032694     0.017939    Cartesian    0.16
     71 x         -4.405902     -4.407741    -0.001838    Cartesian    0.04
     71 y          6.608853      6.617428     0.008575    Cartesian    0.13
     71 z          6.608853      6.617428     0.008575    Cartesian    0.13
     72 x         -8.811805     -8.817230    -0.005425    Cartesian    0.06
     72 y         -2.202951     -2.210606    -0.007655    Cartesian    0.35
     72 z         -2.202951     -2.210606    -0.007655    Cartesian    0.35
     73 x         13.217707     13.196451    -0.021256    Cartesian   -0.16
     73 y          0.000000      0.000000     0.000000    Cartesian    0.00
     73 z          4.405902      4.399121    -0.006782    Cartesian   -0.15
     74 x         11.014756     11.027828     0.013073    Cartesian    0.12
     74 y          6.608853      6.616982     0.008128    Cartesian    0.12
     74 z          4.405902      4.407186     0.001284    Cartesian    0.03
     75 x          8.811805      8.799802    -0.012003    Cartesian   -0.14
     75 y          4.405902      4.399537    -0.006366    Cartesian   -0.14
     75 z          8.811805      8.795743    -0.016062    Cartesian   -0.18
     76 x          6.608853      6.615397     0.006544    Cartesian    0.10
     76 y         11.014756     11.034130     0.019374    Cartesian    0.18
     76 z          0.000000      0.000000     0.000000    Cartesian    0.00
     77 x          6.608853      6.616850     0.007997    Cartesian    0.12
     77 y          6.608853      6.618851     0.009998    Cartesian    0.15
     77 z          8.811805      8.815841     0.004036    Cartesian    0.05
     78 x          2.202951      2.205880     0.002929    Cartesian    0.13
     78 y         11.014756     11.031746     0.016991    Cartesian    0.15
     78 z          4.405902      4.408390     0.002488    Cartesian    0.06
     79 x         -2.202951     -2.207543    -0.004592    Cartesian    0.21
     79 y         11.014756     11.033608     0.018852    Cartesian    0.17
     79 z          0.000000      0.000000     0.000000    Cartesian    0.00
     80 x         -2.202951     -2.206657    -0.003706    Cartesian    0.17
     80 y          8.811805      8.817953     0.006148    Cartesian    0.07
     80 z          6.608853      6.621365     0.012511    Cartesian    0.19
     81 x         -4.405902     -4.401483     0.004420    Cartesian   -0.10
     81 y          4.405902      4.398815    -0.007087    Cartesian   -0.16
     81 z          8.811805      8.792239    -0.019565    Cartesian   -0.22
     82 x         -6.608853     -6.623223    -0.014370    Cartesian    0.22
     82 y          6.608853      6.621649     0.012795    Cartesian    0.19
     82 z          4.405902      4.408121     0.002218    Cartesian    0.05
     83 x         -8.811805     -8.790990     0.020815    Cartesian   -0.24
     83 y          0.000000      0.000000     0.000000    Cartesian    0.00
     83 z          4.405902      4.398658    -0.007244    Cartesian   -0.16
     84 x          4.053600      4.053600     0.000000    Cartesian    0.00
     84 y          0.000000      0.000000     0.000000    Cartesian    0.00
     84 z          0.000000      0.000000     0.000000    Cartesian    0.00
     85 x          2.202951      2.160447    -0.042504    Cartesian   -1.93
     85 y         -2.202951     -2.195839     0.007112    Cartesian   -0.32
     85 z         -2.202951     -2.195839     0.007112    Cartesian   -0.32
     86 x          4.405902      4.359628    -0.046274    Cartesian   -1.05
     86 y          0.000000      0.000000     0.000000    Cartesian    0.00
     86 z          4.405902      4.364480    -0.041423    Cartesian   -0.94
     87 x          0.000000     -0.015726    -0.015726    Cartesian    0.00
     87 y          0.000000      0.000000     0.000000    Cartesian    0.00
     87 z          4.405902      4.349127    -0.056776    Cartesian   -1.29
     88 x          6.608853      6.589874    -0.018980    Cartesian   -0.29
     88 y         -2.202951     -2.195014     0.007937    Cartesian   -0.36
     88 z         -2.202951     -2.195014     0.007937    Cartesian   -0.36
     89 x         -2.202951     -2.188357     0.014594    Cartesian   -0.66
     89 y         -2.202951     -2.184111     0.018840    Cartesian   -0.86
     89 z         -2.202951     -2.184111     0.018840    Cartesian   -0.86
     90 x          8.811805      8.762750    -0.049055    Cartesian   -0.56
     90 y          0.000000      0.000000     0.000000    Cartesian    0.00
     90 z          0.000000      0.000000     0.000000    Cartesian    0.00
     91 x          4.405902      4.372302    -0.033600    Cartesian   -0.76
     91 y          4.405902      4.376539    -0.029363    Cartesian   -0.67
     91 z          4.405902      4.376539    -0.029363    Cartesian   -0.67
     92 x          0.000000     -0.013346    -0.013346    Cartesian    0.00
     92 y          4.405902      4.380787    -0.025115    Cartesian   -0.57
     92 z          4.405902      4.380787    -0.025115    Cartesian   -0.57
     93 x         -4.405902     -4.346689     0.059213    Cartesian   -1.34
     93 y          0.000000      0.000000     0.000000    Cartesian    0.00
     93 z          0.000000      0.000000     0.000000    Cartesian    0.00
     94 x          2.202951      2.199074    -0.003878    Cartesian   -0.18
     94 y         -2.202951     -2.203425    -0.000474    Cartesian    0.02
     94 z          6.608853      6.610727     0.001874    Cartesian    0.03
     95 x          8.811805      8.780119    -0.031685    Cartesian   -0.36
     95 y          0.000000      0.000000     0.000000    Cartesian    0.00
     95 z          4.405902      4.389249    -0.016653    Cartesian   -0.38
     96 x         -4.405902     -4.372165     0.033737    Cartesian   -0.77
     96 y          0.000000      0.000000     0.000000    Cartesian    0.00
     96 z          4.405902      4.366043    -0.039859    Cartesian   -0.90
     97 x          6.608853      6.601789    -0.007064    Cartesian   -0.11
     97 y         -2.202951     -2.201555     0.001396    Cartesian   -0.06
     97 z          6.608853      6.606320    -0.002534    Cartesian   -0.04
     98 x         -2.202951     -2.204037    -0.001086    Cartesian    0.05
     98 y         -2.202951     -2.203039    -0.000088    Cartesian    0.00
     98 z          6.608853      6.608421    -0.000433    Cartesian   -0.01
     99 x          8.811805      8.785364    -0.026441    Cartesian   -0.30
     99 y          4.405902      4.392926    -0.012977    Cartesian   -0.29
     99 z          4.405902      4.392926    -0.012977    Cartesian   -0.29
    100 x          4.405902      4.395057    -0.010845    Cartesian   -0.25
    100 y          0.000000      0.000000     0.000000    Cartesian    0.00
    100 z          8.811805      8.795731    -0.016074    Cartesian   -0.18
    101 x          0.000000     -0.004871    -0.004871    Cartesian    0.00
    101 y          0.000000      0.000000     0.000000    Cartesian    0.00
    101 z          8.811805      8.791288    -0.020516    Cartesian   -0.23
    102 x         -4.405902     -4.378911     0.026991    Cartesian   -0.61
    102 y          4.405902      4.372493    -0.033409    Cartesian   -0.76
    102 z          4.405902      4.372493    -0.033409    Cartesian   -0.76
    103 x         11.014756     11.008348    -0.006408    Cartesian   -0.06
    103 y         -2.202951     -2.203141    -0.000190    Cartesian    0.01
    103 z         -2.202951     -2.203141    -0.000190    Cartesian    0.01
    104 x          2.202951      2.201207    -0.001744    Cartesian   -0.08
    104 y          6.608853      6.610852     0.001998    Cartesian    0.03
    104 z          6.608853      6.610852     0.001998    Cartesian    0.03
    105 x         -6.608853     -6.610439    -0.001585    Cartesian    0.02
    105 y         -2.202951     -2.202544     0.000407    Cartesian   -0.02
    105 z         -2.202951     -2.202544     0.000407    Cartesian   -0.02
    106 x          4.405902      4.396230    -0.009673    Cartesian   -0.22
    106 y          4.405902      4.400882    -0.005020    Cartesian   -0.11
    106 z          8.811805      8.796696    -0.015109    Cartesian   -0.17
    107 x          0.000000     -0.003732    -0.003732    Cartesian    0.00
    107 y          4.405902      4.401475    -0.004427    Cartesian   -0.10
    107 z          8.811805      8.795737    -0.016068    Cartesian   -0.18
    108 x          6.608853      6.606041    -0.002812    Cartesian   -0.04
    108 y          6.608853      6.609081     0.000228    Cartesian    0.00
    108 z          6.608853      6.609081     0.000228    Cartesian    0.00
    109 x         -2.202951     -2.203394    -0.000443    Cartesian    0.02
    109 y          6.608853      6.612055     0.003202    Cartesian    0.05
    109 z          6.608853      6.612055     0.003202    Cartesian    0.05
    110 x         13.217707     13.197561    -0.020146    Cartesian   -0.15
    110 y          0.000000      0.000000     0.000000    Cartesian    0.00
    110 z          0.000000      0.000000     0.000000    Cartesian    0.00
    111 x          8.811805      8.798176    -0.013629    Cartesian   -0.15
    111 y          0.000000      0.000000     0.000000    Cartesian    0.00
    111 z          8.811805      8.799505    -0.012300    Cartesian   -0.14
    112 x         -4.405902     -4.403627     0.002275    Cartesian   -0.05
    112 y          0.000000      0.000000     0.000000    Cartesian    0.00
    112 z          8.811805      8.793287    -0.018517    Cartesian   -0.21
    113 x         -8.811805     -8.788619     0.023185    Cartesian   -0.26
    113 y          0.000000      0.000000     0.000000    Cartesian    0.00
    113 z          0.000000      0.000000     0.000000    Cartesian    0.00
    114 x         11.014756     11.010967    -0.003789    Cartesian   -0.03
    114 y         -2.202951     -2.202880     0.000071    Cartesian   -0.00
    114 z          6.608853      6.605730    -0.003124    Cartesian   -0.05
    115 x          2.202951      2.201182    -0.001769    Cartesian   -0.08
    115 y         -2.202951     -2.203118    -0.000167    Cartesian    0.01
    115 z         11.014756     11.014879     0.000124    Cartesian    0.00
    116 x         -6.608853     -6.606099     0.002755    Cartesian   -0.04
    116 y          6.608853      6.606128    -0.002726    Cartesian   -0.04
    116 z         -2.202951     -2.202393     0.000558    Cartesian   -0.03
    117 x         13.217707     13.193850    -0.023857    Cartesian   -0.18
    117 y          0.000000      0.000000     0.000000    Cartesian    0.00
    117 z          4.405902      4.398306    -0.007596    Cartesian   -0.17
    118 x          8.811805      8.798061    -0.013744    Cartesian   -0.16
    118 y          4.405902      4.398686    -0.007217    Cartesian   -0.16
    118 z          8.811805      8.793681    -0.018124    Cartesian   -0.21
    119 x         -4.405902     -4.400943     0.004959    Cartesian   -0.11
    119 y          4.405902      4.397484    -0.008418    Cartesian   -0.19
    119 z          8.811805      8.789226    -0.022579    Cartesian   -0.26
    120 x         -8.811805     -8.788280     0.023524    Cartesian   -0.27
    120 y          0.000000      0.000000     0.000000    Cartesian    0.00
    120 z          4.405902      4.397311    -0.008592    Cartesian   -0.20
--------------------------------------------------------------------------------


  Time to end of optimisation  =       12.2237 seconds


  Peak dynamic memory used =      76.10 MB 


  Timing analysis for GULP :

--------------------------------------------------------------------------------
  Task / Subroutine                                          Time (Seconds)
--------------------------------------------------------------------------------
  Calculation of reciprocal space energy and derivatives          0.0007
  Calculation of reciprocal space energy using symmetry           0.0012
  Calculation of real space energy and derivatives                0.0039
  Calculation of real space energy using symmetry                 0.0118
  Calculation for region 1 energy and derivatives (2-b)           7.7366
  Calculation for region 2a energy                                4.0730
  Calculation for region 2b energy                                0.0043
  Calculation and manipulation of Hessian matrix                  0.2736
  Calculation of matrix inversion                                 0.0167
  Symmetry generation of equivalent positions                     0.0046
--------------------------------------------------------------------------------
  Total CPU time                                                 12.2239
--------------------------------------------------------------------------------


  Dump file written as Na3OCl.grs


  Job Finished at 16:17.30  8th January    2021                               

