********************************************************************************
*                       GENERAL UTILITY LATTICE PROGRAM                        *
*                                 Julian Gale                                  *
*                       Curtin Institute for Computation                       *
*                    School of Molecular and Life Sciences                     *
*                    Curtin University, Western Australia                      *
********************************************************************************
* Version = 5.2.0 * Last modified =  10th September 2020                       *
********************************************************************************
*  optimise     - perform optimisation run                                     *
*  conp         - constant pressure calculation                                *
*  property     - calculate properties for final geometry                      *
*  defect       - perform defect calculation after bulk run                    *
*  compare      - compare initial and final structures                         *
********************************************************************************

  Job Started  at 16:17.27  8th January    2021                               

  Number of CPUs =     1


  Total number of configurations input =      1

********************************************************************************
*  Input for Configuration =   1                                               *
********************************************************************************

  Formula = ClONa3                                                      

  Number of irreducible atoms/shells =       5


  Total number atoms/shells =       7

  Dimensionality = 3               :  Bulk   


  Symmetry :

  Crystal family                   :  Cubic       
  Crystal class  (Groth - 1921)    :  Cubic Hexakisoctahedral              

  Space group (centrosymmetric)    :  P M 3 M         

  Patterson group                  :  P m -3 m 

  Cartesian lattice vectors (Angstroms) :

        4.504000    0.000000    0.000000
        0.000000    4.504000    0.000000
        0.000000    0.000000    4.504000

  Cell parameters (Angstroms/Degrees):

  a =       4.5040    alpha =  90.0000
  b =       4.5040    beta  =  90.0000
  c =       4.5040    gamma =  90.0000

  Initial cell volume =          91.368216 Angs**3

  Temperature of configuration =   0.00     K 

  Pressure of configuration =         0.000 GPa 

  Fractional coordinates of asymmetric unit :

--------------------------------------------------------------------------------
   No.  Atomic       x           y          z         Charge      Occupancy
        Label      (Frac)      (Frac)     (Frac)        (e)         (Frac)  
--------------------------------------------------------------------------------
      1 Cl    c    0.000000    0.000000    0.000000     1.48500    1.000000    
      2 O     c    0.500000    0.500000    0.500000     0.18300    1.000000    
      3 Na    c    0.500000    0.500000    0.000000     1.00000    1.000000    
      4 Cl    s    0.000000    0.000000    0.000000    -2.48500    1.000000    
      5 O     s    0.500000    0.500000    0.500000    -2.18300    1.000000    
--------------------------------------------------------------------------------


  Constraints : 

--------------------------------------------------------------------------------
  Constraint no.      Unconstrained     Constrained    Coefficient    Offset
                         Variable         Variable
--------------------------------------------------------------------------------
           1              Strain 1        Strain 2       1.00000      0.0000
           2              Strain 1        Strain 3       1.00000      0.0000
--------------------------------------------------------------------------------


********************************************************************************
*  General input information                                                   *
********************************************************************************

  Species output for all configurations : 

--------------------------------------------------------------------------------
  Species    Type    Atomic    Atomic    Charge       Radii (Angs)     Library
                     Number     Mass       (e)     Cova   Ionic  VDW   Symbol
--------------------------------------------------------------------------------
    Na       Core       11      22.99   1.000000   0.970  0.000  2.300          
    O        Core        8      16.00   0.183000   0.730  0.000  1.360          
    O        Shell       8       0.00  -2.183000   0.730  0.000  1.360          
    Cl       Core       17      35.45   1.485000   0.990  0.000  1.650          
    Cl       Shell      17       0.00  -2.485000   0.990  0.000  1.650          
    Mg       Core       12      24.31   0.415000   1.100  0.000  0.000          
    Mg       Shell      12       0.00   1.585000   1.100  0.000  0.000          
    Ca       Core       20      40.08  -1.135000   0.990  0.000  0.000          
    Ca       Shell      20       0.00   3.135000   0.990  0.000  0.000          
    Sr       Core       38      87.62  -1.251000   1.120  0.000  0.000          
    Sr       Shell      38       0.00   3.251000   1.120  0.000  0.000          
    Ba       Core       56     137.33  -7.203000   1.340  0.000  0.000          
    Ba       Shell      56       0.00   9.203000   1.340  0.000  0.000          
--------------------------------------------------------------------------------


  Lattice summation method               =    Ewald          (3-D)
                                         =    Parry          (2-D)
                                         =    Saunders et al (1-D)
  Accuracy factor for lattice sums       =   12.000


  Analytic derivatives to be used

  Time limit = Infinity

  Maximum range for interatomic potentials =    100000.000000 Angstroms

  General interatomic potentials :

--------------------------------------------------------------------------------
Atom  Types   Potential      Parameter       Value         Units   Cutoffs(Ang)
  1     2                                                            Min /  Max 
--------------------------------------------------------------------------------
O    c O    s Spring (c-s)  Spring k 2       593.71600    eV*Ang^-2 0.000  0.800
                            Spring k 4       0.0000000    eV*Ang^-4 
--------------------------------------------------------------------------------
Cl   c Cl   s Spring (c-s)  Spring k 2       29.380000    eV*Ang^-2 0.000  0.800
                            Spring k 4       0.0000000    eV*Ang^-4 
--------------------------------------------------------------------------------
Mg   c Mg   s Spring (c-s)  Spring k 2       361.60000    eV*Ang^-2 0.000  0.800
                            Spring k 4       0.0000000    eV*Ang^-4 
--------------------------------------------------------------------------------
Ca   c Ca   s Spring (c-s)  Spring k 2       110.20000    eV*Ang^-2 0.000  0.800
                            Spring k 4       0.0000000    eV*Ang^-4 
--------------------------------------------------------------------------------
Sr   c Sr   s Spring (c-s)  Spring k 2       71.700000    eV*Ang^-2 0.000  0.800
                            Spring k 4       0.0000000    eV*Ang^-4 
--------------------------------------------------------------------------------
Ba   c Ba   s Spring (c-s)  Spring k 2       495.20000    eV*Ang^-2 0.000  0.800
                            Spring k 4       0.0000000    eV*Ang^-4 
--------------------------------------------------------------------------------
Na   c Na   c Buckingham    Buckingham A     1788.1900    eV        0.000 12.000
                            Buckingham rho  0.15900000    Ang       
                            Buckingham C     0.0000000    eV*Ang^6  
--------------------------------------------------------------------------------
Na   c O    s Buckingham    Buckingham A     588.38000    eV        0.000 12.000
                            Buckingham rho  0.33800000    Ang       
                            Buckingham C     0.0000000    eV*Ang^6  
--------------------------------------------------------------------------------
Na   c Cl   s Buckingham    Buckingham A     1170.4100    eV        0.000 12.000
                            Buckingham rho  0.31500000    Ang       
                            Buckingham C     0.0000000    eV*Ang^6  
--------------------------------------------------------------------------------
O    s O    s Buckingham    Buckingham A     22764.300    eV        0.000 12.000
                            Buckingham rho  0.14900000    Ang       
                            Buckingham C     13.190000    eV*Ang^6  
--------------------------------------------------------------------------------
O    s Cl   s Buckingham    Buckingham A     8286.9100    eV        0.000 12.000
                            Buckingham rho  0.25900000    Ang       
                            Buckingham C     62.200000    eV*Ang^6  
--------------------------------------------------------------------------------
Cl   s Cl   s Buckingham    Buckingham A     1227.2000    eV        0.000 12.000
                            Buckingham rho  0.32100000    Ang       
                            Buckingham C     14.530000    eV*Ang^6  
--------------------------------------------------------------------------------
O    s Mg   s Buckingham    Buckingham A     1428.5000    eV        0.000 12.000
                            Buckingham rho  0.29450000    Ang       
                            Buckingham C     0.0000000    eV*Ang^6  
--------------------------------------------------------------------------------
Mg   s Cl   s Buckingham    Buckingham A     4914.5400    eV        0.000 12.000
                            Buckingham rho  0.25700000    Ang       
                            Buckingham C     0.0000000    eV*Ang^6  
--------------------------------------------------------------------------------
O    s Ca   s Buckingham    Buckingham A     1090.4000    eV        0.000 12.000
                            Buckingham rho  0.34370000    Ang       
                            Buckingham C     0.0000000    eV*Ang^6  
--------------------------------------------------------------------------------
Cl   s Ca   s Buckingham    Buckingham A     2302.0000    eV        0.000 12.000
                            Buckingham rho  0.34020000    Ang       
                            Buckingham C     0.0000000    eV*Ang^6  
--------------------------------------------------------------------------------
O    s Sr   s Buckingham    Buckingham A     959.10000    eV        0.000 12.000
                            Buckingham rho  0.37210000    Ang       
                            Buckingham C     0.0000000    eV*Ang^6  
--------------------------------------------------------------------------------
Cl   s Sr   s Buckingham    Buckingham A     2191.0900    eV        0.000 12.000
                            Buckingham rho  0.34570000    Ang       
                            Buckingham C     0.0000000    eV*Ang^6  
--------------------------------------------------------------------------------
O    s Ba   s Buckingham    Buckingham A     905.70000    eV        0.000 12.000
                            Buckingham rho  0.39760000    Ang       
                            Buckingham C     0.0000000    eV*Ang^6  
--------------------------------------------------------------------------------
Cl   s Ba   s Buckingham    Buckingham A     2704.5500    eV        0.000 12.000
                            Buckingham rho  0.35280000    Ang       
                            Buckingham C     0.0000000    eV*Ang^6  
--------------------------------------------------------------------------------

********************************************************************************
*  Output for configuration   1                                                *
********************************************************************************


  Components of energy : 

--------------------------------------------------------------------------------
  Interatomic potentials     =           4.94315381 eV    
  Monopole - monopole (real) =         -10.03624526 eV    
  Monopole - monopole (recip)=         -29.53581274 eV    
  Monopole - monopole (total)=         -39.57205800 eV    
--------------------------------------------------------------------------------
  Total lattice energy       =         -34.62890419 eV    
--------------------------------------------------------------------------------
  Total lattice energy       =           -3341.1599 kJ/(mole unit cells)
--------------------------------------------------------------------------------


  Number of variables =        1

  Maximum number of calculations  =          1000
  Maximum Hessian update interval =            10
  Maximum step size               =   1.000000000
  Maximum parameter tolerance     =   0.000010000
  Maximum function  tolerance     =   0.000010000
  Maximum gradient  tolerance     =   0.001000000
  Maximum gradient  component     =   0.010000000

  Symmetry constrained optimisation

  Symmetry used for second derivatives

  Cell parameters to be optimised using strains

  Newton-Raphson optimiser to be used

  BFGS hessian update to be used

  Lower half triangular hessian to be used

  Start of bulk optimisation :

  Cycle:      0 Energy:       -34.628904  Gnorm:      4.328237  CPU:    0.018
  ** Hessian calculated **
  Cycle:      1 Energy:       -34.677667  Gnorm:      0.044008  CPU:    0.022
  Cycle:      2 Energy:       -34.677671  Gnorm:      0.003653  CPU:    0.026


  **** Optimisation achieved ****


  Final energy =     -34.67767136 eV
  Final Gnorm  =       0.00000010

  Components of energy : 

--------------------------------------------------------------------------------
  Interatomic potentials     =           5.77546103 eV    
  Monopole - monopole (real) =         -10.25970290 eV    
  Monopole - monopole (recip)=         -30.19342950 eV    
  Monopole - monopole (total)=         -40.45313239 eV    
--------------------------------------------------------------------------------
  Total lattice energy       =         -34.67767136 eV    
--------------------------------------------------------------------------------
  Total lattice energy       =           -3345.8652 kJ/(mole unit cells)
--------------------------------------------------------------------------------

  Final asymmetric unit coordinates :

--------------------------------------------------------------------------------
   No.  Atomic        x           y           z         Radius
        Label       (Frac)      (Frac)      (Frac)       (Angs) 
--------------------------------------------------------------------------------
     1  Cl    c     0.000000    0.000000    0.000000    0.000000
     2  O     c     0.500000    0.500000    0.500000    0.000000
     3  Na    c     0.500000    0.500000    0.000000    0.000000
     4  Cl    s     0.000000    0.000000    0.000000    0.000000
     5  O     s     0.500000    0.500000    0.500000    0.000000
--------------------------------------------------------------------------------

  Final Cartesian lattice vectors (Angstroms) :

        4.405902    0.000000    0.000000
        0.000000    4.405902    0.000000
        0.000000    0.000000    4.405902


  Final cell parameters and derivatives :

--------------------------------------------------------------------------------
       a            4.405902 Angstrom     dE/de1(xx)     0.000000 eV/strain
       b            4.405902 Angstrom     dE/de2(yy)     0.000000 eV/strain
       c            4.405902 Angstrom     dE/de3(zz)     0.000000 eV/strain
       alpha       90.000000 Degrees      dE/de4(yz)     0.000000 eV/strain
       beta        90.000000 Degrees      dE/de5(xz)     0.000000 eV/strain
       gamma       90.000000 Degrees      dE/de6(xy)     0.000000 eV/strain
--------------------------------------------------------------------------------

  Primitive cell volume =            85.527266 Angs**3

  Density of cell =      2.338030 g/cm**3

  Non-primitive cell volume =            85.527266 Angs**3


  Final internal derivatives :

--------------------------------------------------------------------------------
   No.  Atomic          a             b             c           Radius
        Label          (eV)          (eV)          (eV)        (eV/Angs)
--------------------------------------------------------------------------------
      1 Cl    c       0.000000      0.000000      0.000000      0.000000
      2 O     c       0.000000      0.000000      0.000000      0.000000
      3 Na    c       0.000000      0.000000      0.000000      0.000000
      4 Cl    s       0.000000      0.000000      0.000000      0.000000
      5 O     s       0.000000      0.000000      0.000000      0.000000
--------------------------------------------------------------------------------
  Maximum abs         0.000000      0.000000      0.000000      0.000000
--------------------------------------------------------------------------------

  Comparison of initial and final structures : 

--------------------------------------------------------------------------------
  Parameter   Initial value   Final value   Difference    Units      Percent
--------------------------------------------------------------------------------
    Volume        91.368216     85.527266    -5.840950    Angs**3     -6.39
    a              4.504000      4.405902    -0.098098    Angstroms   -2.18
    b              4.504000      4.405902    -0.098098    Angstroms   -2.18
    c              4.504000      4.405902    -0.098098    Angstroms   -2.18
    alpha         90.000000     90.000000     0.000000    Degrees      0.00
    beta          90.000000     90.000000     0.000000    Degrees      0.00
    gamma         90.000000     90.000000     0.000000    Degrees      0.00
      1 x          0.000000      0.000000     0.000000    Fractional   0.00
      1 y          0.000000      0.000000     0.000000    Fractional   0.00
      1 z          0.000000      0.000000     0.000000    Fractional   0.00
      2 x          0.500000      0.500000     0.000000    Fractional   0.00
      2 y          0.500000      0.500000     0.000000    Fractional   0.00
      2 z          0.500000      0.500000     0.000000    Fractional   0.00
      3 x          0.500000      0.500000     0.000000    Fractional   0.00
      3 y          0.500000      0.500000     0.000000    Fractional   0.00
      3 z          0.000000      0.000000     0.000000    Fractional   0.00
      4 x          0.000000      0.000000     0.000000    Fractional   0.00
      4 y          0.000000      0.000000     0.000000    Fractional   0.00
      4 z          0.000000      0.000000     0.000000    Fractional   0.00
      5 x          0.500000      0.500000     0.000000    Fractional   0.00
      5 y          0.500000      0.500000     0.000000    Fractional   0.00
      5 z          0.500000      0.500000     0.000000    Fractional   0.00
--------------------------------------------------------------------------------


  Born effective charge tensors : 

-------------------------------------------------------------------------------
  Atom             x           y             z
-------------------------------------------------------------------------------
    1 Cl    x      -0.9918     -0.0000     -0.0000
            y      -0.0000     -0.9918     -0.0000
            z      -0.0000     -0.0000     -0.9918
-------------------------------------------------------------------------------
    2 O     x      -2.2939      0.0000      0.0000
            y       0.0000     -2.2939      0.0000
            z       0.0000      0.0000     -2.2939
-------------------------------------------------------------------------------
    3 Na    x       1.2243      0.0000      0.0000
            y       0.0000      1.2243     -0.0000
            z       0.0000      0.0000      0.8372
-------------------------------------------------------------------------------




  Elastic Constant Matrix: (Units=GPa)

-------------------------------------------------------------------------------
  Indices      1         2         3         4         5         6    
-------------------------------------------------------------------------------
       1     82.7680   24.3534   24.3534   -0.0000    0.0000   -0.0000
       2     24.3534   82.7680   24.3534    0.0000   -0.0000   -0.0000
       3     24.3534   24.3534   82.7680    0.0000   -0.0000    0.0000
       4     -0.0000    0.0000    0.0000   24.3534   -0.0000    0.0000
       5      0.0000   -0.0000   -0.0000   -0.0000   24.3534    0.0000
       6     -0.0000   -0.0000    0.0000    0.0000    0.0000   24.3534
-------------------------------------------------------------------------------


  Elastic Compliance Matrix: (Units=1/GPa)

-------------------------------------------------------------------------------
  Indices      1         2         3         4         5         6    
-------------------------------------------------------------------------------
       1    0.013948 -0.003171 -0.003171  0.000000 -0.000000  0.000000
       2   -0.003171  0.013948 -0.003171 -0.000000  0.000000 -0.000000
       3   -0.003171 -0.003171  0.013948 -0.000000  0.000000 -0.000000
       4    0.000000 -0.000000 -0.000000  0.041062  0.000000 -0.000000
       5   -0.000000  0.000000  0.000000  0.000000  0.041062 -0.000000
       6    0.000000 -0.000000 -0.000000 -0.000000 -0.000000  0.041062
-------------------------------------------------------------------------------

  Mechanical properties :

-------------------------------------------------------------------------------
  Convention :                    Reuss         Voigt         Hill
-------------------------------------------------------------------------------
  Bulk  Modulus (GPa)     =      43.82493      43.82493      43.82493
  Shear Modulus (GPa)     =      26.08758      26.29496      26.19127
-------------------------------------------------------------------------------
  Velocity S-wave (km/s)  =       3.34035       3.35360       3.34698
  Velocity P-wave (km/s)  =       5.79842       5.80861       5.80351
-------------------------------------------------------------------------------
  Compressibility (1/GPa) =    0.02281806
-------------------------------------------------------------------------------
  Stress axis :                     x             y             z
-------------------------------------------------------------------------------
  Youngs Moduli (GPa)     =      71.69479      71.69479      71.69479
-------------------------------------------------------------------------------
  Poissons Ratio (x)      =                     0.22734       0.22734
  Poissons Ratio (y)      =       0.22734                     0.22734
  Poissons Ratio (z)      =       0.22734       0.22734
-------------------------------------------------------------------------------


  Piezoelectric Strain Matrix: (Units=C/m**2)

-------------------------------------------------------------------------------
  Indices      1         2         3         4         5         6    
-------------------------------------------------------------------------------
       x    -0.00000  -0.00000  -0.00000  -0.00000   0.00000  -0.00000
       y     0.00000  -0.00000   0.00000   0.00000  -0.00000   0.00000
       z    -0.00000  -0.00000   0.00000  -0.00000   0.00000  -0.00000
-------------------------------------------------------------------------------


  Piezoelectric Stress Matrix: (Units=10**-11 C/N)

-------------------------------------------------------------------------------
  Indices      1         2         3         4         5         6    
-------------------------------------------------------------------------------
       x     0.00000  -0.00000  -0.00000  -0.00000   0.00000  -0.00000
       y     0.00000  -0.00000   0.00000   0.00000  -0.00000   0.00000
       z    -0.00000  -0.00000   0.00000  -0.00000   0.00000  -0.00000
-------------------------------------------------------------------------------


  Static dielectric constant tensor : 

-------------------------------------------------------------------------------
              x         y         z
-------------------------------------------------------------------------------
       x    11.08357   0.00000   0.00000
       y     0.00000  11.08357   0.00000
       z     0.00000   0.00000  11.08357
--------------------------------------------------------------------------------

  High frequency dielectric constant tensor : 

-------------------------------------------------------------------------------
              x         y         z
-------------------------------------------------------------------------------
       x     1.50771   0.00000   0.00000
       y     0.00000   1.50771   0.00000
       z     0.00000   0.00000   1.50771
-------------------------------------------------------------------------------

  Static refractive indices : 

-------------------------------------------------------------------------------
    1 =    3.32920      2 =    3.32920      3 =    3.32920
-------------------------------------------------------------------------------

  High frequency refractive indices : 

-------------------------------------------------------------------------------
    1 =    1.22789      2 =    1.22789      3 =    1.22789
-------------------------------------------------------------------------------


  Time to end of optimisation =       0.0368 seconds

********************************************************************************
*  Defect calculation for configuration   1 :                                  *
********************************************************************************

  Total number of defects =      3

  Total charge on defect  =   1.00

  Defect centre is at   2.2520   0.0000   0.0000  Angs

  Region 1 radius =  12.0000      Number of ions =    622

  Number of symmetry inequivalent region 1 ions  =    120

  Region 2 radius =  16.0000      Number of ions =    760

  Number of symmetry inequivalent region 2a ions =    123

  Region 2a mode = 4 : screened electrostatics due to region 1 
                       neglect correction to region 1 forces from 2a
                       region 2a displacements based on defects only

  Region 2a ions will only interact with defects in region 1

  Vacancies:

--------------------------------------------------------------------------------
    Specification type     Symbol/Number         x          y          z
--------------------------------------------------------------------------------
    Cartesian                                4.504000   0.000000   0.000000
    Cartesian                                0.000000   0.000000   0.000000
--------------------------------------------------------------------------------

  Interstitials:

--------------------------------------------------------------------------------
    Specification type     Symbol/Number         x          y          z
--------------------------------------------------------------------------------
    Atom/Cartesian          Cl               0.450400   0.000000   0.000000
--------------------------------------------------------------------------------


  Symmetry reduced region 1 (Relative to defect centre) :

--------------------------------------------------------------------------------
   No.   Atomic       x            y             z       Radius  Multiplicity   
         Label      (Angs)       (Angs)        (Angs)    (Angs)     
--------------------------------------------------------------------------------
     1  Cl    c     -1.8016       0.0000       0.0000    0.0000     1    Defect
     2  Na    c     -0.0490 *    -2.2030 *     0.0000    0.0000     4          
     3  O     c     -0.0490 *    -2.2030 *    -2.2030    0.0000     4          
     4  Na    c      2.1539 *    -2.2030 *    -2.2030    0.0000     4          
     5  Na    c     -2.2520 *    -2.2030 *    -2.2030    0.0000     4          
     6  Na    c      4.3569 *    -2.2030 *     0.0000    0.0000     4          
     7  Cl    c      2.1539 *     0.0000       4.4059 *  0.0000     4          
     8  Na    c     -0.0490 *    -2.2030 *     4.4059 *  0.0000     8          
     9  Cl    c     -2.2520 *     0.0000       4.4059 *  0.0000     4          
    10  Na    c     -4.4550 *    -2.2030 *     0.0000    0.0000     4          
    11  O     c      4.3569 *    -2.2030 *    -2.2030    0.0000     4          
    12  O     c     -4.4550 *    -2.2030 *    -2.2030    0.0000     4          
    13  Cl    c      6.5598 *     0.0000       0.0000    0.0000     1          
    14  Na    c      4.3569 *     4.4059 *    -2.2030 *  0.0000     8          
    15  Cl    c      2.1539 *     4.4059 *     4.4059    0.0000     4          
    16  Na    c     -0.0490 *     6.6089 *     0.0000    0.0000     4          
    17  Cl    c     -2.2520 *     4.4059 *     4.4059    0.0000     4          
    18  Na    c     -4.4550 *    -2.2030 *     4.4059 *  0.0000     8          
    19  Cl    c     -6.6579 *     0.0000       0.0000    0.0000     1          
    20  O     c     -0.0490 *    -2.2030 *     6.6089 *  0.0000     8          
    21  Na    c      6.5598 *    -2.2030 *    -2.2030    0.0000     4          
    22  Na    c      2.1539 *    -2.2030 *     6.6089 *  0.0000     8          
    23  Na    c     -2.2520 *     6.6089 *    -2.2030 *  0.0000     8          
    24  Na    c     -6.6579 *    -2.2030 *    -2.2030    0.0000     4          
    25  Cl    c      6.5598 *     0.0000       4.4059 *  0.0000     4          
    26  Na    c      4.3569 *     6.6089 *     0.0000    0.0000     4          
    27  Na    c     -0.0490 *     6.6089 *     4.4059 *  0.0000     8          
    28  Na    c     -4.4550 *     6.6089 *     0.0000    0.0000     4          
    29  Cl    c     -6.6579 *     0.0000       4.4059 *  0.0000     4          
    30  O     c      4.3569 *    -2.2030 *     6.6089 *  0.0000     8          
    31  O     c     -4.4550 *    -2.2030 *     6.6089 *  0.0000     8          
    32  Na    c      8.7628 *    -2.2030 *     0.0000    0.0000     4          
    33  Cl    c      6.5598 *     4.4059 *     4.4059    0.0000     4          
    34  Na    c      4.3569 *     6.6089 *     4.4059 *  0.0000     8          
    35  Cl    c      2.1539 *     0.0000       8.8118 *  0.0000     4          
    36  Na    c     -0.0490 *    -2.2030 *     8.8118 *  0.0000     8          
    37  Cl    c     -2.2520 *     0.0000       8.8118 *  0.0000     4          
    38  Na    c     -4.4550 *     6.6089 *     4.4059 *  0.0000     8          
    39  Cl    c     -6.6579 *     4.4059 *     4.4059    0.0000     4          
    40  Na    c     -8.8609 *    -2.2030 *     0.0000    0.0000     4          
    41  O     c      8.7628 *    -2.2030 *    -2.2030    0.0000     4          
    42  O     c     -0.0490 *     6.6089 *     6.6089    0.0000     4          
    43  O     c     -8.8609 *    -2.2030 *    -2.2030    0.0000     4          
    44  Na    c      6.5598 *    -2.2030 *     6.6089 *  0.0000     8          
    45  Na    c      2.1539 *     6.6089 *     6.6089    0.0000     4          
    46  Na    c     -2.2520 *     6.6089 *     6.6089    0.0000     4          
    47  Na    c     -6.6579 *    -2.2030 *     6.6089 *  0.0000     8          
    48  Na    c      8.7628 *     4.4059 *    -2.2030 *  0.0000     8          
    49  Na    c      4.3569 *    -2.2030 *     8.8118 *  0.0000     8          
    50  Cl    c      2.1539 *     4.4059 *     8.8118 *  0.0000     8          
    51  Cl    c     -2.2520 *     4.4059 *     8.8118 *  0.0000     8          
    52  Na    c     -4.4550 *    -2.2030 *     8.8118 *  0.0000     8          
    53  Na    c     -8.8609 *    -2.2030 *     4.4059 *  0.0000     8          
    54  O     c      4.3569 *     6.6089 *     6.6089    0.0000     4          
    55  O     c     -4.4550 *     6.6089 *     6.6089    0.0000     4          
    56  Cl    c     10.9657 *     0.0000       0.0000    0.0000     1          
    57  Na    c      8.7628 *     6.6089 *     0.0000    0.0000     4          
    58  Cl    c      6.5598 *     0.0000       8.8118 *  0.0000     4          
    59  Na    c     -0.0490 *     6.6089 *     8.8118 *  0.0000     8          
    60  Na    c     -0.0490 *    11.0148 *     0.0000    0.0000     4          
    61  Cl    c     -6.6579 *     0.0000       8.8118 *  0.0000     4          
    62  Na    c     -8.8609 *     6.6089 *     0.0000    0.0000     4          
    63  Cl    c    -11.0638 *     0.0000       0.0000    0.0000     1          
    64  O     c      8.7628 *    -2.2030 *     6.6089 *  0.0000     8          
    65  O     c     -0.0490 *    -2.2030 *    11.0148 *  0.0000     8          
    66  O     c     -8.8609 *     6.6089 *    -2.2030 *  0.0000     8          
    67  Na    c     10.9657 *    -2.2030 *    -2.2030    0.0000     4          
    68  Na    c      6.5598 *     6.6089 *     6.6089    0.0000     4          
    69  Na    c      2.1539 *    -2.2030 *    11.0148 *  0.0000     8          
    70  Na    c     -2.2520 *    -2.2030 *    11.0148 *  0.0000     8          
    71  Na    c     -6.6579 *     6.6089 *     6.6089    0.0000     4          
    72  Na    c    -11.0638 *    -2.2030 *    -2.2030    0.0000     4          
    73  Cl    c     10.9657 *     0.0000       4.4059 *  0.0000     4          
    74  Na    c      8.7628 *     6.6089 *     4.4059 *  0.0000     8          
    75  Cl    c      6.5598 *     4.4059 *     8.8118 *  0.0000     8          
    76  Na    c      4.3569 *    11.0148 *     0.0000    0.0000     4          
    77  Na    c      4.3569 *     6.6089 *     8.8118 *  0.0000     8          
    78  Na    c     -0.0490 *    11.0148 *     4.4059 *  0.0000     8          
    79  Na    c     -4.4550 *    11.0148 *     0.0000    0.0000     4          
    80  Na    c     -4.4550 *     8.8118 *     6.6089 *  0.0000     8          
    81  Cl    c     -6.6579 *     4.4059 *     8.8118 *  0.0000     8          
    82  Na    c     -8.8609 *     6.6089 *     4.4059 *  0.0000     8          
    83  Cl    c    -11.0638 *     0.0000       4.4059 *  0.0000     4          
    84  Cl    s     -1.8016       0.0000       0.0000    0.0000     1    Defect
    85  O     s     -0.0490 *    -2.2030 *    -2.2030    0.0000     4          
    86  Cl    s      2.1539 *     0.0000       4.4059 *  0.0000     4          
    87  Cl    s     -2.2520 *     0.0000       4.4059 *  0.0000     4          
    88  O     s      4.3569 *    -2.2030 *    -2.2030    0.0000     4          
    89  O     s     -4.4550 *    -2.2030 *    -2.2030    0.0000     4          
    90  Cl    s      6.5598 *     0.0000       0.0000    0.0000     1          
    91  Cl    s      2.1539 *     4.4059 *     4.4059    0.0000     4          
    92  Cl    s     -2.2520 *     4.4059 *     4.4059    0.0000     4          
    93  Cl    s     -6.6579 *     0.0000       0.0000    0.0000     1          
    94  O     s     -0.0490 *    -2.2030 *     6.6089 *  0.0000     8          
    95  Cl    s      6.5598 *     0.0000       4.4059 *  0.0000     4          
    96  Cl    s     -6.6579 *     0.0000       4.4059 *  0.0000     4          
    97  O     s      4.3569 *    -2.2030 *     6.6089 *  0.0000     8          
    98  O     s     -4.4550 *    -2.2030 *     6.6089 *  0.0000     8          
    99  Cl    s      6.5598 *     4.4059 *     4.4059    0.0000     4          
   100  Cl    s      2.1539 *     0.0000       8.8118 *  0.0000     4          
   101  Cl    s     -2.2520 *     0.0000       8.8118 *  0.0000     4          
   102  Cl    s     -6.6579 *     4.4059 *     4.4059    0.0000     4          
   103  O     s      8.7628 *    -2.2030 *    -2.2030    0.0000     4          
   104  O     s     -0.0490 *     6.6089 *     6.6089    0.0000     4          
   105  O     s     -8.8609 *    -2.2030 *    -2.2030    0.0000     4          
   106  Cl    s      2.1539 *     4.4059 *     8.8118 *  0.0000     8          
   107  Cl    s     -2.2520 *     4.4059 *     8.8118 *  0.0000     8          
   108  O     s      4.3569 *     6.6089 *     6.6089    0.0000     4          
   109  O     s     -4.4550 *     6.6089 *     6.6089    0.0000     4          
   110  Cl    s     10.9657 *     0.0000       0.0000    0.0000     1          
   111  Cl    s      6.5598 *     0.0000       8.8118 *  0.0000     4          
   112  Cl    s     -6.6579 *     0.0000       8.8118 *  0.0000     4          
   113  Cl    s    -11.0638 *     0.0000       0.0000    0.0000     1          
   114  O     s      8.7628 *    -2.2030 *     6.6089 *  0.0000     8          
   115  O     s     -0.0490 *    -2.2030 *    11.0148 *  0.0000     8          
   116  O     s     -8.8609 *     6.6089 *    -2.2030 *  0.0000     8          
   117  Cl    s     10.9657 *     0.0000       4.4059 *  0.0000     4          
   118  Cl    s      6.5598 *     4.4059 *     8.8118 *  0.0000     8          
   119  Cl    s     -6.6579 *     4.4059 *     8.8118 *  0.0000     8          
   120  Cl    s    -11.0638 *     0.0000       4.4059 *  0.0000     4          
--------------------------------------------------------------------------------


  Constraints on symmetry reduced coordinates :

--------------------------------------------------------------------------------
  Constraint no.      Unconstrained     Constrained    Coefficient    
                         Variable         Variable
--------------------------------------------------------------------------------
           1                 3 y             3 z         1.00000
           2                 4 y             4 z         1.00000
           3                 5 y             5 z         1.00000
           4                11 y            11 z         1.00000
           5                12 y            12 z         1.00000
           6                15 y            15 z         1.00000
           7                17 y            17 z         1.00000
           8                21 y            21 z         1.00000
           9                24 y            24 z         1.00000
          10                33 y            33 z         1.00000
          11                39 y            39 z         1.00000
          12                41 y            41 z         1.00000
          13                42 y            42 z         1.00000
          14                43 y            43 z         1.00000
          15                45 y            45 z         1.00000
          16                46 y            46 z         1.00000
          17                54 y            54 z         1.00000
          18                55 y            55 z         1.00000
          19                67 y            67 z         1.00000
          20                68 y            68 z         1.00000
          21                71 y            71 z         1.00000
          22                72 y            72 z         1.00000
          23                85 y            85 z         1.00000
          24                88 y            88 z         1.00000
          25                89 y            89 z         1.00000
          26                91 y            91 z         1.00000
          27                92 y            92 z         1.00000
          28                99 y            99 z         1.00000
          29               102 y           102 z         1.00000
          30               103 y           103 z         1.00000
          31               104 y           104 z         1.00000
          32               105 y           105 z         1.00000
          33               108 y           108 z         1.00000
          34               109 y           109 z         1.00000
--------------------------------------------------------------------------------


  Components of defect energy : 

--------------------------------------------------------------------------------
  Region 1 - region 1                   =     33.96103610 eV
  Region 1 - region 2a (unrelaxed)      =    -25.88540255 eV
  Region 1 - 2a (relaxed - correction)  =     -0.24863351 eV
  Region 1 (Total)                      =      7.82700004 eV
  Region 2a                             =      0.12436071 eV
  Region 2b                             =     -0.41394213 eV
--------------------------------------------------------------------------------
  Total defect energy                   =      7.53741862 eV
--------------------------------------------------------------------------------

  Largest displacement in region 2 =   0.0196 Angstroms


  Number of variables =      271

  Maximum number of calculations  =        1000
  Maximum Hessian update interval =          10
  Maximum step size               =   1.0000000
  Maximum parameter tolerance     =   0.0000100
  Maximum function  tolerance     =   0.0000100
  Maximum gradient  tolerance     =   0.0010000

  Symmetry adapted optimisation

  Symmetry to be used for second derivatives

  Newton-Raphson optimiser to be used

  BFGS hessian update to be used

  Lower half triangular hessian to be used

  Start of defect optimisation :

  Cycle:      0 Defect Energy:   7.537419  Gnorm:     0.096481  CPU:    1.892
  ** Hessian calculated **
  Cycle:      1 Defect Energy:   5.290612  Gnorm:     0.008841  CPU:    3.718
  Cycle:      2 Defect Energy:   5.276363  Gnorm:     0.006155  CPU:    4.022
  Cycle:      3 Defect Energy:   5.269203  Gnorm:     0.003952  CPU:    4.416
  Cycle:      4 Defect Energy:   5.266129  Gnorm:     0.002675  CPU:    4.801
  Cycle:      5 Defect Energy:   5.264980  Gnorm:     0.001827  CPU:    5.177
  Cycle:      6 Defect Energy:   5.264501  Gnorm:     0.001277  CPU:    5.546
  Cycle:      7 Defect Energy:   5.264314  Gnorm:     0.000892  CPU:    5.917
  Cycle:      8 Defect Energy:   5.264251  Gnorm:     0.000625  CPU:    6.293
  Cycle:      9 Defect Energy:   5.264241  Gnorm:     0.000437  CPU:    6.665
  Cycle:     10 Defect Energy:   5.264250  Gnorm:     0.000306  CPU:    7.042
  ** Hessian calculated **
  Cycle:     11 Defect Energy:   5.264264  Gnorm:     0.000214  CPU:    8.018
  Cycle:     12 Defect Energy:   5.264279  Gnorm:     0.000150  CPU:    8.387
  Cycle:     13 Defect Energy:   5.264290  Gnorm:     0.000105  CPU:    8.766


  **** Optimisation achieved ****


  Final defect energy  =        5.26429957
  Final defect Gnorm   =        0.00007348

  Components of defect energy : 

--------------------------------------------------------------------------------
  Region 1 - region 1                   =     29.15504876 eV
  Region 1 - region 2a (unrelaxed)      =    -23.38611232 eV
  Region 1 - 2a (relaxed - correction)  =     -0.18610071 eV
  Region 1 (Total)                      =      5.58283573 eV
  Region 2a                             =      0.09301398 eV
  Region 2b                             =     -0.41155013 eV
--------------------------------------------------------------------------------
  Total defect energy                   =      5.26429957 eV
--------------------------------------------------------------------------------

  Largest displacement in region 2 =   0.0196 Angstroms

  Final coordinates of region 1 :

--------------------------------------------------------------------------------
   No.  Atomic        x           y           z          Radius      Charge
        Label       (Angs)      (Angs)      (Angs)       (Angs)       (e) 
--------------------------------------------------------------------------------
     1  Cl    c     0.450400    0.000000    0.000000    0.000000    1.485000
     2  Na    c     2.150950   -2.321012    0.000000    0.000000    1.000000
     3  Na    c     2.150950    2.321012    0.000000    0.000000    1.000000
     4  Na    c     2.150950    0.000000   -2.321012    0.000000    1.000000
     5  Na    c     2.150950    0.000000    2.321012    0.000000    1.000000
     6  O     c     2.252844   -2.201330   -2.201330    0.000000    0.183000
     7  O     c     2.252844   -2.201330    2.201330    0.000000    0.183000
     8  O     c     2.252844    2.201330   -2.201330    0.000000    0.183000
     9  O     c     2.252844    2.201330    2.201330    0.000000    0.183000
    10  Na    c     4.420785   -2.351659   -2.351659    0.000000    1.000000
    11  Na    c     4.420785   -2.351659    2.351659    0.000000    1.000000
    12  Na    c     4.420785    2.351659   -2.351659    0.000000    1.000000
    13  Na    c     4.420785    2.351659    2.351659    0.000000    1.000000
    14  Na    c     0.019756   -2.178600   -2.178600    0.000000    1.000000
    15  Na    c     0.019756   -2.178600    2.178600    0.000000    1.000000
    16  Na    c     0.019756    2.178600   -2.178600    0.000000    1.000000
    17  Na    c     0.019756    2.178600    2.178600    0.000000    1.000000
    18  Na    c     6.716802   -2.329448    0.000000    0.000000    1.000000
    19  Na    c     6.716802    2.329448    0.000000    0.000000    1.000000
    20  Na    c     6.716802    0.000000   -2.329448    0.000000    1.000000
    21  Na    c     6.716802    0.000000    2.329448    0.000000    1.000000
    22  Cl    c     4.424580    0.000000    4.356447    0.000000    1.485000
    23  Cl    c     4.424580    0.000000   -4.356447    0.000000    1.485000
    24  Cl    c     4.424580    4.356447    0.000000    0.000000    1.485000
    25  Cl    c     4.424580   -4.356447    0.000000    0.000000    1.485000
    26  Na    c     2.169952   -2.226426    4.422287    0.000000    1.000000
    27  Na    c     2.169952   -2.226426   -4.422287    0.000000    1.000000
    28  Na    c     2.169952    2.226426    4.422287    0.000000    1.000000
    29  Na    c     2.169952    2.226426   -4.422287    0.000000    1.000000
    30  Na    c     2.169952    4.422287   -2.226426    0.000000    1.000000
    31  Na    c     2.169952    4.422287    2.226426    0.000000    1.000000
    32  Na    c     2.169952   -4.422287   -2.226426    0.000000    1.000000
    33  Na    c     2.169952   -4.422287    2.226426    0.000000    1.000000
    34  Cl    c     0.039132    0.000000    4.372135    0.000000    1.485000
    35  Cl    c     0.039132    0.000000   -4.372135    0.000000    1.485000
    36  Cl    c     0.039132    4.372135    0.000000    0.000000    1.485000
    37  Cl    c     0.039132   -4.372135    0.000000    0.000000    1.485000
    38  Na    c    -2.258925   -2.238973    0.000000    0.000000    1.000000
    39  Na    c    -2.258925    2.238973    0.000000    0.000000    1.000000
    40  Na    c    -2.258925    0.000000   -2.238973    0.000000    1.000000
    41  Na    c    -2.258925    0.000000    2.238973    0.000000    1.000000
    42  O     c     6.596531   -2.184873   -2.184873    0.000000    0.183000
    43  O     c     6.596531   -2.184873    2.184873    0.000000    0.183000
    44  O     c     6.596531    2.184873   -2.184873    0.000000    0.183000
    45  O     c     6.596531    2.184873    2.184873    0.000000    0.183000
    46  O     c    -2.178948   -2.192696   -2.192696    0.000000    0.183000
    47  O     c    -2.178948   -2.192696    2.192696    0.000000    0.183000
    48  O     c    -2.178948    2.192696   -2.192696    0.000000    0.183000
    49  O     c    -2.178948    2.192696    2.192696    0.000000    0.183000
    50  Cl    c     8.756709    0.000000    0.000000    0.000000    1.485000
    51  Na    c     6.648988    4.419781   -2.223151    0.000000    1.000000
    52  Na    c     6.648988    4.419781    2.223151    0.000000    1.000000
    53  Na    c     6.648988   -4.419781   -2.223151    0.000000    1.000000
    54  Na    c     6.648988   -4.419781    2.223151    0.000000    1.000000
    55  Na    c     6.648988   -2.223151    4.419781    0.000000    1.000000
    56  Na    c     6.648988   -2.223151   -4.419781    0.000000    1.000000
    57  Na    c     6.648988    2.223151    4.419781    0.000000    1.000000
    58  Na    c     6.648988    2.223151   -4.419781    0.000000    1.000000
    59  Cl    c     4.421618    4.394635    4.394635    0.000000    1.485000
    60  Cl    c     4.421618    4.394635   -4.394635    0.000000    1.485000
    61  Cl    c     4.421618   -4.394635    4.394635    0.000000    1.485000
    62  Cl    c     4.421618   -4.394635   -4.394635    0.000000    1.485000
    63  Na    c     2.206927    6.628466    0.000000    0.000000    1.000000
    64  Na    c     2.206927   -6.628466    0.000000    0.000000    1.000000
    65  Na    c     2.206927    0.000000    6.628466    0.000000    1.000000
    66  Na    c     2.206927    0.000000   -6.628466    0.000000    1.000000
    67  Cl    c     0.027882    4.382580    4.382580    0.000000    1.485000
    68  Cl    c     0.027882    4.382580   -4.382580    0.000000    1.485000
    69  Cl    c     0.027882   -4.382580    4.382580    0.000000    1.485000
    70  Cl    c     0.027882   -4.382580   -4.382580    0.000000    1.485000
    71  Na    c    -2.174743   -2.217109    4.406525    0.000000    1.000000
    72  Na    c    -2.174743   -2.217109   -4.406525    0.000000    1.000000
    73  Na    c    -2.174743    2.217109    4.406525    0.000000    1.000000
    74  Na    c    -2.174743    2.217109   -4.406525    0.000000    1.000000
    75  Na    c    -2.174743    4.406525   -2.217109    0.000000    1.000000
    76  Na    c    -2.174743    4.406525    2.217109    0.000000    1.000000
    77  Na    c    -2.174743   -4.406525   -2.217109    0.000000    1.000000
    78  Na    c    -2.174743   -4.406525    2.217109    0.000000    1.000000
    79  Cl    c    -4.358303    0.000000    0.000000    0.000000    1.485000
    80  O     c     2.207641   -2.203769    6.611738    0.000000    0.183000
    81  O     c     2.207641   -2.203769   -6.611738    0.000000    0.183000
    82  O     c     2.207641    2.203769    6.611738    0.000000    0.183000
    83  O     c     2.207641    2.203769   -6.611738    0.000000    0.183000
    84  O     c     2.207641    6.611738   -2.203769    0.000000    0.183000
    85  O     c     2.207641    6.611738    2.203769    0.000000    0.183000
    86  O     c     2.207641   -6.611738   -2.203769    0.000000    0.183000
    87  O     c     2.207641   -6.611738    2.203769    0.000000    0.183000
    88  Na    c     8.827140   -2.203925   -2.203925    0.000000    1.000000
    89  Na    c     8.827140   -2.203925    2.203925    0.000000    1.000000
    90  Na    c     8.827140    2.203925   -2.203925    0.000000    1.000000
    91  Na    c     8.827140    2.203925    2.203925    0.000000    1.000000
    92  Na    c     4.409034   -2.207270    6.612478    0.000000    1.000000
    93  Na    c     4.409034   -2.207270   -6.612478    0.000000    1.000000
    94  Na    c     4.409034    2.207270    6.612478    0.000000    1.000000
    95  Na    c     4.409034    2.207270   -6.612478    0.000000    1.000000
    96  Na    c     4.409034    6.612478   -2.207270    0.000000    1.000000
    97  Na    c     4.409034    6.612478    2.207270    0.000000    1.000000
    98  Na    c     4.409034   -6.612478   -2.207270    0.000000    1.000000
    99  Na    c     4.409034   -6.612478    2.207270    0.000000    1.000000
   100  Na    c     0.002447    6.651093   -2.204780    0.000000    1.000000
   101  Na    c     0.002447    6.651093    2.204780    0.000000    1.000000
   102  Na    c     0.002447   -6.651093   -2.204780    0.000000    1.000000
   103  Na    c     0.002447   -6.651093    2.204780    0.000000    1.000000
   104  Na    c     0.002447   -2.204780    6.651093    0.000000    1.000000
   105  Na    c     0.002447   -2.204780   -6.651093    0.000000    1.000000
   106  Na    c     0.002447    2.204780    6.651093    0.000000    1.000000
   107  Na    c     0.002447    2.204780   -6.651093    0.000000    1.000000
   108  Na    c    -4.400130   -2.227293   -2.227293    0.000000    1.000000
   109  Na    c    -4.400130   -2.227293    2.227293    0.000000    1.000000
   110  Na    c    -4.400130    2.227293   -2.227293    0.000000    1.000000
   111  Na    c    -4.400130    2.227293    2.227293    0.000000    1.000000
   112  Cl    c     8.788525    0.000000    4.375924    0.000000    1.485000
   113  Cl    c     8.788525    0.000000   -4.375924    0.000000    1.485000
   114  Cl    c     8.788525    4.375924    0.000000    0.000000    1.485000
   115  Cl    c     8.788525   -4.375924    0.000000    0.000000    1.485000
   116  Na    c     6.610493    6.622705    0.000000    0.000000    1.000000
   117  Na    c     6.610493   -6.622705    0.000000    0.000000    1.000000
   118  Na    c     6.610493    0.000000    6.622705    0.000000    1.000000
   119  Na    c     6.610493    0.000000   -6.622705    0.000000    1.000000
   120  Na    c     2.200486    6.632834    4.411484    0.000000    1.000000
   121  Na    c     2.200486    6.632834   -4.411484    0.000000    1.000000
   122  Na    c     2.200486   -6.632834    4.411484    0.000000    1.000000
   123  Na    c     2.200486   -6.632834   -4.411484    0.000000    1.000000
   124  Na    c     2.200486    4.411484    6.632834    0.000000    1.000000
   125  Na    c     2.200486    4.411484   -6.632834    0.000000    1.000000
   126  Na    c     2.200486   -4.411484    6.632834    0.000000    1.000000
   127  Na    c     2.200486   -4.411484   -6.632834    0.000000    1.000000
   128  Na    c    -2.220890    6.613379    0.000000    0.000000    1.000000
   129  Na    c    -2.220890   -6.613379    0.000000    0.000000    1.000000
   130  Na    c    -2.220890    0.000000    6.613379    0.000000    1.000000
   131  Na    c    -2.220890    0.000000   -6.613379    0.000000    1.000000
   132  Cl    c    -4.376072    0.000000    4.389932    0.000000    1.485000
   133  Cl    c    -4.376072    0.000000   -4.389932    0.000000    1.485000
   134  Cl    c    -4.376072    4.389932    0.000000    0.000000    1.485000
   135  Cl    c    -4.376072   -4.389932    0.000000    0.000000    1.485000
   136  O     c     6.611044   -2.203227    6.608753    0.000000    0.183000
   137  O     c     6.611044   -2.203227   -6.608753    0.000000    0.183000
   138  O     c     6.611044    2.203227    6.608753    0.000000    0.183000
   139  O     c     6.611044    2.203227   -6.608753    0.000000    0.183000
   140  O     c     6.611044    6.608753   -2.203227    0.000000    0.183000
   141  O     c     6.611044    6.608753    2.203227    0.000000    0.183000
   142  O     c     6.611044   -6.608753   -2.203227    0.000000    0.183000
   143  O     c     6.611044   -6.608753    2.203227    0.000000    0.183000
   144  O     c    -2.194314   -2.201466    6.605980    0.000000    0.183000
   145  O     c    -2.194314   -2.201466   -6.605980    0.000000    0.183000
   146  O     c    -2.194314    2.201466    6.605980    0.000000    0.183000
   147  O     c    -2.194314    2.201466   -6.605980    0.000000    0.183000
   148  O     c    -2.194314    6.605980   -2.201466    0.000000    0.183000
   149  O     c    -2.194314    6.605980    2.201466    0.000000    0.183000
   150  O     c    -2.194314   -6.605980   -2.201466    0.000000    0.183000
   151  O     c    -2.194314   -6.605980    2.201466    0.000000    0.183000
   152  Na    c    11.047052   -2.207035    0.000000    0.000000    1.000000
   153  Na    c    11.047052    2.207035    0.000000    0.000000    1.000000
   154  Na    c    11.047052    0.000000   -2.207035    0.000000    1.000000
   155  Na    c    11.047052    0.000000    2.207035    0.000000    1.000000
   156  Cl    c     8.790667    4.377709    4.377709    0.000000    1.485000
   157  Cl    c     8.790667    4.377709   -4.377709    0.000000    1.485000
   158  Cl    c     8.790667   -4.377709    4.377709    0.000000    1.485000
   159  Cl    c     8.790667   -4.377709   -4.377709    0.000000    1.485000
   160  Na    c     6.609499    6.632018    4.411908    0.000000    1.000000
   161  Na    c     6.609499    6.632018   -4.411908    0.000000    1.000000
   162  Na    c     6.609499   -6.632018    4.411908    0.000000    1.000000
   163  Na    c     6.609499   -6.632018   -4.411908    0.000000    1.000000
   164  Na    c     6.609499    4.411908    6.632018    0.000000    1.000000
   165  Na    c     6.609499    4.411908   -6.632018    0.000000    1.000000
   166  Na    c     6.609499   -4.411908    6.632018    0.000000    1.000000
   167  Na    c     6.609499   -4.411908   -6.632018    0.000000    1.000000
   168  Cl    c     4.410609    0.000000    8.795220    0.000000    1.485000
   169  Cl    c     4.410609    0.000000   -8.795220    0.000000    1.485000
   170  Cl    c     4.410609    8.795220    0.000000    0.000000    1.485000
   171  Cl    c     4.410609   -8.795220    0.000000    0.000000    1.485000
   172  Na    c     2.216438   -2.206872    8.819551    0.000000    1.000000
   173  Na    c     2.216438   -2.206872   -8.819551    0.000000    1.000000
   174  Na    c     2.216438    2.206872    8.819551    0.000000    1.000000
   175  Na    c     2.216438    2.206872   -8.819551    0.000000    1.000000
   176  Na    c     2.216438    8.819551   -2.206872    0.000000    1.000000
   177  Na    c     2.216438    8.819551    2.206872    0.000000    1.000000
   178  Na    c     2.216438   -8.819551   -2.206872    0.000000    1.000000
   179  Na    c     2.216438   -8.819551    2.206872    0.000000    1.000000
   180  Cl    c     0.009491    0.000000    8.798978    0.000000    1.485000
   181  Cl    c     0.009491    0.000000   -8.798978    0.000000    1.485000
   182  Cl    c     0.009491    8.798978    0.000000    0.000000    1.485000
   183  Cl    c     0.009491   -8.798978    0.000000    0.000000    1.485000
   184  Na    c    -2.208549    6.623986    4.407909    0.000000    1.000000
   185  Na    c    -2.208549    6.623986   -4.407909    0.000000    1.000000
   186  Na    c    -2.208549   -6.623986    4.407909    0.000000    1.000000
   187  Na    c    -2.208549   -6.623986   -4.407909    0.000000    1.000000
   188  Na    c    -2.208549    4.407909    6.623986    0.000000    1.000000
   189  Na    c    -2.208549    4.407909   -6.623986    0.000000    1.000000
   190  Na    c    -2.208549   -4.407909    6.623986    0.000000    1.000000
   191  Na    c    -2.208549   -4.407909   -6.623986    0.000000    1.000000
   192  Cl    c    -4.380782    4.393384    4.393384    0.000000    1.485000
   193  Cl    c    -4.380782    4.393384   -4.393384    0.000000    1.485000
   194  Cl    c    -4.380782   -4.393384    4.393384    0.000000    1.485000
   195  Cl    c    -4.380782   -4.393384   -4.393384    0.000000    1.485000
   196  Na    c    -6.602027   -2.204390    0.000000    0.000000    1.000000
   197  Na    c    -6.602027    2.204390    0.000000    0.000000    1.000000
   198  Na    c    -6.602027    0.000000   -2.204390    0.000000    1.000000
   199  Na    c    -6.602027    0.000000    2.204390    0.000000    1.000000
   200  O     c    11.017363   -2.202398   -2.202398    0.000000    0.183000
   201  O     c    11.017363   -2.202398    2.202398    0.000000    0.183000
   202  O     c    11.017363    2.202398   -2.202398    0.000000    0.183000
   203  O     c    11.017363    2.202398    2.202398    0.000000    0.183000
   204  O     c     2.204923    6.611277    6.611277    0.000000    0.183000
   205  O     c     2.204923    6.611277   -6.611277    0.000000    0.183000
   206  O     c     2.204923   -6.611277    6.611277    0.000000    0.183000
   207  O     c     2.204923   -6.611277   -6.611277    0.000000    0.183000
   208  O     c    -6.600609   -2.203402   -2.203402    0.000000    0.183000
   209  O     c    -6.600609   -2.203402    2.203402    0.000000    0.183000
   210  O     c    -6.600609    2.203402   -2.203402    0.000000    0.183000
   211  O     c    -6.600609    2.203402    2.203402    0.000000    0.183000
   212  Na    c     8.814119   -2.214127    6.638665    0.000000    1.000000
   213  Na    c     8.814119   -2.214127   -6.638665    0.000000    1.000000
   214  Na    c     8.814119    2.214127    6.638665    0.000000    1.000000
   215  Na    c     8.814119    2.214127   -6.638665    0.000000    1.000000
   216  Na    c     8.814119    6.638665   -2.214127    0.000000    1.000000
   217  Na    c     8.814119    6.638665    2.214127    0.000000    1.000000
   218  Na    c     8.814119   -6.638665   -2.214127    0.000000    1.000000
   219  Na    c     8.814119   -6.638665    2.214127    0.000000    1.000000
   220  Na    c     4.407176    6.623803    6.623803    0.000000    1.000000
   221  Na    c     4.407176    6.623803   -6.623803    0.000000    1.000000
   222  Na    c     4.407176   -6.623803    6.623803    0.000000    1.000000
   223  Na    c     4.407176   -6.623803   -6.623803    0.000000    1.000000
   224  Na    c    -0.000648    6.618741    6.618741    0.000000    1.000000
   225  Na    c    -0.000648    6.618741   -6.618741    0.000000    1.000000
   226  Na    c    -0.000648   -6.618741    6.618741    0.000000    1.000000
   227  Na    c    -0.000648   -6.618741   -6.618741    0.000000    1.000000
   228  Na    c    -4.403529   -2.213753    6.598170    0.000000    1.000000
   229  Na    c    -4.403529   -2.213753   -6.598170    0.000000    1.000000
   230  Na    c    -4.403529    2.213753    6.598170    0.000000    1.000000
   231  Na    c    -4.403529    2.213753   -6.598170    0.000000    1.000000
   232  Na    c    -4.403529    6.598170   -2.213753    0.000000    1.000000
   233  Na    c    -4.403529    6.598170    2.213753    0.000000    1.000000
   234  Na    c    -4.403529   -6.598170   -2.213753    0.000000    1.000000
   235  Na    c    -4.403529   -6.598170    2.213753    0.000000    1.000000
   236  Na    c    11.019904    4.408550   -2.207641    0.000000    1.000000
   237  Na    c    11.019904    4.408550    2.207641    0.000000    1.000000
   238  Na    c    11.019904   -4.408550   -2.207641    0.000000    1.000000
   239  Na    c    11.019904   -4.408550    2.207641    0.000000    1.000000
   240  Na    c    11.019904   -2.207641    4.408550    0.000000    1.000000
   241  Na    c    11.019904   -2.207641   -4.408550    0.000000    1.000000
   242  Na    c    11.019904    2.207641    4.408550    0.000000    1.000000
   243  Na    c    11.019904    2.207641   -4.408550    0.000000    1.000000
   244  Na    c     6.598494   -2.199129    8.816752    0.000000    1.000000
   245  Na    c     6.598494   -2.199129   -8.816752    0.000000    1.000000
   246  Na    c     6.598494    2.199129    8.816752    0.000000    1.000000
   247  Na    c     6.598494    2.199129   -8.816752    0.000000    1.000000
   248  Na    c     6.598494    8.816752   -2.199129    0.000000    1.000000
   249  Na    c     6.598494    8.816752    2.199129    0.000000    1.000000
   250  Na    c     6.598494   -8.816752   -2.199129    0.000000    1.000000
   251  Na    c     6.598494   -8.816752    2.199129    0.000000    1.000000
   252  Cl    c     4.409179    4.402490    8.798999    0.000000    1.485000
   253  Cl    c     4.409179    4.402490   -8.798999    0.000000    1.485000
   254  Cl    c     4.409179    8.798999    4.402490    0.000000    1.485000
   255  Cl    c     4.409179    8.798999   -4.402490    0.000000    1.485000
   256  Cl    c     4.409179   -4.402490    8.798999    0.000000    1.485000
   257  Cl    c     4.409179   -4.402490   -8.798999    0.000000    1.485000
   258  Cl    c     4.409179   -8.798999    4.402490    0.000000    1.485000
   259  Cl    c     4.409179   -8.798999   -4.402490    0.000000    1.485000
   260  Cl    c     0.008236    4.401836    8.799677    0.000000    1.485000
   261  Cl    c     0.008236    4.401836   -8.799677    0.000000    1.485000
   262  Cl    c     0.008236    8.799677    4.401836    0.000000    1.485000
   263  Cl    c     0.008236    8.799677   -4.401836    0.000000    1.485000
   264  Cl    c     0.008236   -4.401836    8.799677    0.000000    1.485000
   265  Cl    c     0.008236   -4.401836   -8.799677    0.000000    1.485000
   266  Cl    c     0.008236   -8.799677    4.401836    0.000000    1.485000
   267  Cl    c     0.008236   -8.799677   -4.401836    0.000000    1.485000
   268  Na    c    -2.217048   -2.196261    8.814632    0.000000    1.000000
   269  Na    c    -2.217048   -2.196261   -8.814632    0.000000    1.000000
   270  Na    c    -2.217048    2.196261    8.814632    0.000000    1.000000
   271  Na    c    -2.217048    2.196261   -8.814632    0.000000    1.000000
   272  Na    c    -2.217048    8.814632   -2.196261    0.000000    1.000000
   273  Na    c    -2.217048    8.814632    2.196261    0.000000    1.000000
   274  Na    c    -2.217048   -8.814632   -2.196261    0.000000    1.000000
   275  Na    c    -2.217048   -8.814632    2.196261    0.000000    1.000000
   276  Na    c    -6.622053   -2.201384    4.405927    0.000000    1.000000
   277  Na    c    -6.622053   -2.201384   -4.405927    0.000000    1.000000
   278  Na    c    -6.622053    2.201384    4.405927    0.000000    1.000000
   279  Na    c    -6.622053    2.201384   -4.405927    0.000000    1.000000
   280  Na    c    -6.622053    4.405927   -2.201384    0.000000    1.000000
   281  Na    c    -6.622053    4.405927    2.201384    0.000000    1.000000
   282  Na    c    -6.622053   -4.405927   -2.201384    0.000000    1.000000
   283  Na    c    -6.622053   -4.405927    2.201384    0.000000    1.000000
   284  O     c     6.609910    6.612538    6.612538    0.000000    0.183000
   285  O     c     6.609910    6.612538   -6.612538    0.000000    0.183000
   286  O     c     6.609910   -6.612538    6.612538    0.000000    0.183000
   287  O     c     6.609910   -6.612538   -6.612538    0.000000    0.183000
   288  O     c    -2.200176    6.609227    6.609227    0.000000    0.183000
   289  O     c    -2.200176    6.609227   -6.609227    0.000000    0.183000
   290  O     c    -2.200176   -6.609227    6.609227    0.000000    0.183000
   291  O     c    -2.200176   -6.609227   -6.609227    0.000000    0.183000
   292  Cl    c    13.198382    0.000000    0.000000    0.000000    1.485000
   293  Na    c    11.024742    6.619232    0.000000    0.000000    1.000000
   294  Na    c    11.024742   -6.619232    0.000000    0.000000    1.000000
   295  Na    c    11.024742    0.000000    6.619232    0.000000    1.000000
   296  Na    c    11.024742    0.000000   -6.619232    0.000000    1.000000
   297  Cl    c     8.809961    0.000000    8.796153    0.000000    1.485000
   298  Cl    c     8.809961    0.000000   -8.796153    0.000000    1.485000
   299  Cl    c     8.809961    8.796153    0.000000    0.000000    1.485000
   300  Cl    c     8.809961   -8.796153    0.000000    0.000000    1.485000
   301  Na    c     2.200252    6.617487    8.817822    0.000000    1.000000
   302  Na    c     2.200252    6.617487   -8.817822    0.000000    1.000000
   303  Na    c     2.200252   -6.617487    8.817822    0.000000    1.000000
   304  Na    c     2.200252   -6.617487   -8.817822    0.000000    1.000000
   305  Na    c     2.200252    8.817822    6.617487    0.000000    1.000000
   306  Na    c     2.200252    8.817822   -6.617487    0.000000    1.000000
   307  Na    c     2.200252   -8.817822    6.617487    0.000000    1.000000
   308  Na    c     2.200252   -8.817822   -6.617487    0.000000    1.000000
   309  Na    c     2.197536   11.023836    0.000000    0.000000    1.000000
   310  Na    c     2.197536  -11.023836    0.000000    0.000000    1.000000
   311  Na    c     2.197536    0.000000   11.023836    0.000000    1.000000
   312  Na    c     2.197536    0.000000  -11.023836    0.000000    1.000000
   313  Cl    c    -4.394197    0.000000    8.800116    0.000000    1.485000
   314  Cl    c    -4.394197    0.000000   -8.800116    0.000000    1.485000
   315  Cl    c    -4.394197    8.800116    0.000000    0.000000    1.485000
   316  Cl    c    -4.394197   -8.800116    0.000000    0.000000    1.485000
   317  Na    c    -6.611135    6.616949    0.000000    0.000000    1.000000
   318  Na    c    -6.611135   -6.616949    0.000000    0.000000    1.000000
   319  Na    c    -6.611135    0.000000    6.616949    0.000000    1.000000
   320  Na    c    -6.611135    0.000000   -6.616949    0.000000    1.000000
   321  Cl    c    -8.793014    0.000000    0.000000    0.000000    1.485000
   322  O     c    11.012137   -2.202407    6.606344    0.000000    0.183000
   323  O     c    11.012137   -2.202407   -6.606344    0.000000    0.183000
   324  O     c    11.012137    2.202407    6.606344    0.000000    0.183000
   325  O     c    11.012137    2.202407   -6.606344    0.000000    0.183000
   326  O     c    11.012137    6.606344   -2.202407    0.000000    0.183000
   327  O     c    11.012137    6.606344    2.202407    0.000000    0.183000
   328  O     c    11.012137   -6.606344   -2.202407    0.000000    0.183000
   329  O     c    11.012137   -6.606344    2.202407    0.000000    0.183000
   330  O     c     2.205192   -2.203049   11.015122    0.000000    0.183000
   331  O     c     2.205192   -2.203049  -11.015122    0.000000    0.183000
   332  O     c     2.205192    2.203049   11.015122    0.000000    0.183000
   333  O     c     2.205192    2.203049  -11.015122    0.000000    0.183000
   334  O     c     2.205192   11.015122   -2.203049    0.000000    0.183000
   335  O     c     2.205192   11.015122    2.203049    0.000000    0.183000
   336  O     c     2.205192  -11.015122   -2.203049    0.000000    0.183000
   337  O     c     2.205192  -11.015122    2.203049    0.000000    0.183000
   338  O     c    -6.604839    6.605199   -2.202726    0.000000    0.183000
   339  O     c    -6.604839    6.605199    2.202726    0.000000    0.183000
   340  O     c    -6.604839   -6.605199   -2.202726    0.000000    0.183000
   341  O     c    -6.604839   -6.605199    2.202726    0.000000    0.183000
   342  O     c    -6.604839   -2.202726    6.605199    0.000000    0.183000
   343  O     c    -6.604839   -2.202726   -6.605199    0.000000    0.183000
   344  O     c    -6.604839    2.202726    6.605199    0.000000    0.183000
   345  O     c    -6.604839    2.202726   -6.605199    0.000000    0.183000
   346  Na    c    13.223620   -2.211844   -2.211844    0.000000    1.000000
   347  Na    c    13.223620   -2.211844    2.211844    0.000000    1.000000
   348  Na    c    13.223620    2.211844   -2.211844    0.000000    1.000000
   349  Na    c    13.223620    2.211844    2.211844    0.000000    1.000000
   350  Na    c     8.813879    6.617526    6.617526    0.000000    1.000000
   351  Na    c     8.813879    6.617526   -6.617526    0.000000    1.000000
   352  Na    c     8.813879   -6.617526    6.617526    0.000000    1.000000
   353  Na    c     8.813879   -6.617526   -6.617526    0.000000    1.000000
   354  Na    c     4.406899   -2.205705   11.034338    0.000000    1.000000
   355  Na    c     4.406899   -2.205705  -11.034338    0.000000    1.000000
   356  Na    c     4.406899    2.205705   11.034338    0.000000    1.000000
   357  Na    c     4.406899    2.205705  -11.034338    0.000000    1.000000
   358  Na    c     4.406899   11.034338   -2.205705    0.000000    1.000000
   359  Na    c     4.406899   11.034338    2.205705    0.000000    1.000000
   360  Na    c     4.406899  -11.034338   -2.205705    0.000000    1.000000
   361  Na    c     4.406899  -11.034338    2.205705    0.000000    1.000000
   362  Na    c    -0.000872   -2.206436   11.021539    0.000000    1.000000
   363  Na    c    -0.000872   -2.206436  -11.021539    0.000000    1.000000
   364  Na    c    -0.000872    2.206436   11.021539    0.000000    1.000000
   365  Na    c    -0.000872    2.206436  -11.021539    0.000000    1.000000
   366  Na    c    -0.000872   11.021539   -2.206436    0.000000    1.000000
   367  Na    c    -0.000872   11.021539    2.206436    0.000000    1.000000
   368  Na    c    -0.000872  -11.021539   -2.206436    0.000000    1.000000
   369  Na    c    -0.000872  -11.021539    2.206436    0.000000    1.000000
   370  Na    c    -4.407793    6.611308    6.611308    0.000000    1.000000
   371  Na    c    -4.407793    6.611308   -6.611308    0.000000    1.000000
   372  Na    c    -4.407793   -6.611308    6.611308    0.000000    1.000000
   373  Na    c    -4.407793   -6.611308   -6.611308    0.000000    1.000000
   374  Na    c    -8.811742   -2.199288   -2.199288    0.000000    1.000000
   375  Na    c    -8.811742   -2.199288    2.199288    0.000000    1.000000
   376  Na    c    -8.811742    2.199288   -2.199288    0.000000    1.000000
   377  Na    c    -8.811742    2.199288    2.199288    0.000000    1.000000
   378  Cl    c    13.197244    0.000000    4.398861    0.000000    1.485000
   379  Cl    c    13.197244    0.000000   -4.398861    0.000000    1.485000
   380  Cl    c    13.197244    4.398861    0.000000    0.000000    1.485000
   381  Cl    c    13.197244   -4.398861    0.000000    0.000000    1.485000
   382  Na    c    11.029293    6.621527    4.408171    0.000000    1.000000
   383  Na    c    11.029293    6.621527   -4.408171    0.000000    1.000000
   384  Na    c    11.029293   -6.621527    4.408171    0.000000    1.000000
   385  Na    c    11.029293   -6.621527   -4.408171    0.000000    1.000000
   386  Na    c    11.029293    4.408171    6.621527    0.000000    1.000000
   387  Na    c    11.029293    4.408171   -6.621527    0.000000    1.000000
   388  Na    c    11.029293   -4.408171    6.621527    0.000000    1.000000
   389  Na    c    11.029293   -4.408171   -6.621527    0.000000    1.000000
   390  Cl    c     8.807721    4.398776    8.792616    0.000000    1.485000
   391  Cl    c     8.807721    4.398776   -8.792616    0.000000    1.485000
   392  Cl    c     8.807721    8.792616    4.398776    0.000000    1.485000
   393  Cl    c     8.807721    8.792616   -4.398776    0.000000    1.485000
   394  Cl    c     8.807721   -4.398776    8.792616    0.000000    1.485000
   395  Cl    c     8.807721   -4.398776   -8.792616    0.000000    1.485000
   396  Cl    c     8.807721   -8.792616    4.398776    0.000000    1.485000
   397  Cl    c     8.807721   -8.792616   -4.398776    0.000000    1.485000
   398  Na    c     6.614229   11.032759    0.000000    0.000000    1.000000
   399  Na    c     6.614229  -11.032759    0.000000    0.000000    1.000000
   400  Na    c     6.614229    0.000000   11.032759    0.000000    1.000000
   401  Na    c     6.614229    0.000000  -11.032759    0.000000    1.000000
   402  Na    c     6.612885    6.621569    8.818074    0.000000    1.000000
   403  Na    c     6.612885    6.621569   -8.818074    0.000000    1.000000
   404  Na    c     6.612885   -6.621569    8.818074    0.000000    1.000000
   405  Na    c     6.612885   -6.621569   -8.818074    0.000000    1.000000
   406  Na    c     6.612885    8.818074    6.621569    0.000000    1.000000
   407  Na    c     6.612885    8.818074   -6.621569    0.000000    1.000000
   408  Na    c     6.612885   -8.818074    6.621569    0.000000    1.000000
   409  Na    c     6.612885   -8.818074   -6.621569    0.000000    1.000000
   410  Na    c     2.200387   11.031627    4.408395    0.000000    1.000000
   411  Na    c     2.200387   11.031627   -4.408395    0.000000    1.000000
   412  Na    c     2.200387  -11.031627    4.408395    0.000000    1.000000
   413  Na    c     2.200387  -11.031627   -4.408395    0.000000    1.000000
   414  Na    c     2.200387    4.408395   11.031627    0.000000    1.000000
   415  Na    c     2.200387    4.408395  -11.031627    0.000000    1.000000
   416  Na    c     2.200387   -4.408395   11.031627    0.000000    1.000000
   417  Na    c     2.200387   -4.408395  -11.031627    0.000000    1.000000
   418  Na    c    -2.208098   11.035028    0.000000    0.000000    1.000000
   419  Na    c    -2.208098  -11.035028    0.000000    0.000000    1.000000
   420  Na    c    -2.208098    0.000000   11.035028    0.000000    1.000000
   421  Na    c    -2.208098    0.000000  -11.035028    0.000000    1.000000
   422  Na    c    -2.210431    8.815890    6.618925    0.000000    1.000000
   423  Na    c    -2.210431    8.815890   -6.618925    0.000000    1.000000
   424  Na    c    -2.210431   -8.815890    6.618925    0.000000    1.000000
   425  Na    c    -2.210431   -8.815890   -6.618925    0.000000    1.000000
   426  Na    c    -2.210431    6.618925    8.815890    0.000000    1.000000
   427  Na    c    -2.210431    6.618925   -8.815890    0.000000    1.000000
   428  Na    c    -2.210431   -6.618925    8.815890    0.000000    1.000000
   429  Na    c    -2.210431   -6.618925   -8.815890    0.000000    1.000000
   430  Cl    c    -4.394044    4.399418    8.795300    0.000000    1.485000
   431  Cl    c    -4.394044    4.399418   -8.795300    0.000000    1.485000
   432  Cl    c    -4.394044    8.795300    4.399418    0.000000    1.485000
   433  Cl    c    -4.394044    8.795300   -4.399418    0.000000    1.485000
   434  Cl    c    -4.394044   -4.399418    8.795300    0.000000    1.485000
   435  Cl    c    -4.394044   -4.399418   -8.795300    0.000000    1.485000
   436  Cl    c    -4.394044   -8.795300    4.399418    0.000000    1.485000
   437  Cl    c    -4.394044   -8.795300   -4.399418    0.000000    1.485000
   438  Na    c    -6.621454    6.617453    4.407123    0.000000    1.000000
   439  Na    c    -6.621454    6.617453   -4.407123    0.000000    1.000000
   440  Na    c    -6.621454   -6.617453    4.407123    0.000000    1.000000
   441  Na    c    -6.621454   -6.617453   -4.407123    0.000000    1.000000
   442  Na    c    -6.621454    4.407123    6.617453    0.000000    1.000000
   443  Na    c    -6.621454    4.407123   -6.617453    0.000000    1.000000
   444  Na    c    -6.621454   -4.407123    6.617453    0.000000    1.000000
   445  Na    c    -6.621454   -4.407123   -6.617453    0.000000    1.000000
   446  Cl    c    -8.789970    0.000000    4.398664    0.000000    1.485000
   447  Cl    c    -8.789970    0.000000   -4.398664    0.000000    1.485000
   448  Cl    c    -8.789970    4.398664    0.000000    0.000000    1.485000
   449  Cl    c    -8.789970   -4.398664    0.000000    0.000000    1.485000
   450  Cl    s     0.450400    0.000000    0.000000    0.000000   -2.485000
   451  O     s     2.252844   -2.201362   -2.201362    0.000000   -2.183000
   452  O     s     2.252844   -2.201362    2.201362    0.000000   -2.183000
   453  O     s     2.252844    2.201362   -2.201362    0.000000   -2.183000
   454  O     s     2.252844    2.201362    2.201362    0.000000   -2.183000
   455  Cl    s     4.425668    0.000000    4.351891    0.000000   -2.485000
   456  Cl    s     4.425668    0.000000   -4.351891    0.000000   -2.485000
   457  Cl    s     4.425668    4.351891    0.000000    0.000000   -2.485000
   458  Cl    s     4.425668   -4.351891    0.000000    0.000000   -2.485000
   459  Cl    s     0.047652    0.000000    4.363163    0.000000   -2.485000
   460  Cl    s     0.047652    0.000000   -4.363163    0.000000   -2.485000
   461  Cl    s     0.047652    4.363163    0.000000    0.000000   -2.485000
   462  Cl    s     0.047652   -4.363163    0.000000    0.000000   -2.485000
   463  O     s     6.596544   -2.184892   -2.184892    0.000000   -2.183000
   464  O     s     6.596544   -2.184892    2.184892    0.000000   -2.183000
   465  O     s     6.596544    2.184892   -2.184892    0.000000   -2.183000
   466  O     s     6.596544    2.184892    2.184892    0.000000   -2.183000
[...]
     40 y         -2.202951     -2.204390    -0.001439    Cartesian    0.07
     40 z          0.000000      0.000000     0.000000    Cartesian    0.00
     41 x         11.014756     11.017363     0.002607    Cartesian    0.02
     41 y         -2.202951     -2.202398     0.000553    Cartesian   -0.03
     41 z         -2.202951     -2.202398     0.000553    Cartesian   -0.03
     42 x          2.202951      2.204923     0.001972    Cartesian    0.09
     42 y          6.608853      6.611277     0.002424    Cartesian    0.04
     42 z          6.608853      6.611277     0.002424    Cartesian    0.04
     43 x         -6.608853     -6.600609     0.008244    Cartesian   -0.12
     43 y         -2.202951     -2.203402    -0.000451    Cartesian    0.02
     43 z         -2.202951     -2.203402    -0.000451    Cartesian    0.02
     44 x          8.811805      8.814119     0.002315    Cartesian    0.03
     44 y         -2.202951     -2.214127    -0.011175    Cartesian    0.51
     44 z          6.608853      6.638665     0.029812    Cartesian    0.45
     45 x          4.405902      4.407176     0.001273    Cartesian    0.03
     45 y          6.608853      6.623803     0.014949    Cartesian    0.23
     45 z          6.608853      6.623803     0.014949    Cartesian    0.23
     46 x          0.000000     -0.000648    -0.000648    Cartesian    0.00
     46 y          6.608853      6.618741     0.009887    Cartesian    0.15
     46 z          6.608853      6.618741     0.009887    Cartesian    0.15
     47 x         -4.405902     -4.403529     0.002373    Cartesian   -0.05
     47 y         -2.202951     -2.213753    -0.010802    Cartesian    0.49
     47 z          6.608853      6.598170    -0.010684    Cartesian   -0.16
     48 x         11.014756     11.019904     0.005148    Cartesian    0.05
     48 y          4.405902      4.408550     0.002648    Cartesian    0.06
     48 z         -2.202951     -2.207641    -0.004690    Cartesian    0.21
     49 x          6.608853      6.598494    -0.010359    Cartesian   -0.16
     49 y         -2.202951     -2.199129     0.003822    Cartesian   -0.17
     49 z          8.811805      8.816752     0.004947    Cartesian    0.06
     50 x          4.405902      4.409179     0.003277    Cartesian    0.07
     50 y          4.405902      4.402490    -0.003413    Cartesian   -0.08
     50 z          8.811805      8.798999    -0.012806    Cartesian   -0.15
     51 x          0.000000      0.008236     0.008236    Cartesian    0.00
     51 y          4.405902      4.401836    -0.004066    Cartesian   -0.09
     51 z          8.811805      8.799677    -0.012128    Cartesian   -0.14
     52 x         -2.202951     -2.217048    -0.014097    Cartesian    0.64
     52 y         -2.202951     -2.196261     0.006691    Cartesian   -0.30
     52 z          8.811805      8.814632     0.002828    Cartesian    0.03
     53 x         -6.608853     -6.622053    -0.013199    Cartesian    0.20
     53 y         -2.202951     -2.201384     0.001567    Cartesian   -0.07
     53 z          4.405902      4.405927     0.000024    Cartesian    0.00
     54 x          6.608853      6.609910     0.001057    Cartesian    0.02
     54 y          6.608853      6.612538     0.003685    Cartesian    0.06
     54 z          6.608853      6.612538     0.003685    Cartesian    0.06
     55 x         -2.202951     -2.200176     0.002775    Cartesian   -0.13
     55 y          6.608853      6.609227     0.000373    Cartesian    0.01
     55 z          6.608853      6.609227     0.000373    Cartesian    0.01
     56 x         13.217707     13.198382    -0.019325    Cartesian   -0.15
     56 y          0.000000      0.000000     0.000000    Cartesian    0.00
     56 z          0.000000      0.000000     0.000000    Cartesian    0.00
     57 x         11.014756     11.024742     0.009986    Cartesian    0.09
     57 y          6.608853      6.619232     0.010379    Cartesian    0.16
     57 z          0.000000      0.000000     0.000000    Cartesian    0.00
     58 x          8.811805      8.809961    -0.001843    Cartesian   -0.02
     58 y          0.000000      0.000000     0.000000    Cartesian    0.00
     58 z          8.811805      8.796153    -0.015651    Cartesian   -0.18
     59 x          2.202951      2.200252    -0.002699    Cartesian   -0.12
     59 y          6.608853      6.617487     0.008633    Cartesian    0.13
     59 z          8.811805      8.817822     0.006017    Cartesian    0.07
     60 x          2.202951      2.197536    -0.005415    Cartesian   -0.25
     60 y         11.014756     11.023836     0.009080    Cartesian    0.08
     60 z          0.000000      0.000000     0.000000    Cartesian    0.00
     61 x         -4.405902     -4.394197     0.011705    Cartesian   -0.27
     61 y          0.000000      0.000000     0.000000    Cartesian    0.00
     61 z          8.811805      8.800116    -0.011689    Cartesian   -0.13
     62 x         -6.608853     -6.611135    -0.002282    Cartesian    0.03
     62 y          6.608853      6.616949     0.008095    Cartesian    0.12
     62 z          0.000000      0.000000     0.000000    Cartesian    0.00
     63 x         -8.811805     -8.793014     0.018791    Cartesian   -0.21
     63 y          0.000000      0.000000     0.000000    Cartesian    0.00
     63 z          0.000000      0.000000     0.000000    Cartesian    0.00
     64 x         11.014756     11.012137    -0.002619    Cartesian   -0.02
     64 y         -2.202951     -2.202407     0.000545    Cartesian   -0.02
     64 z          6.608853      6.606344    -0.002510    Cartesian   -0.04
     65 x          2.202951      2.205192     0.002241    Cartesian    0.10
     65 y         -2.202951     -2.203049    -0.000098    Cartesian    0.00
     65 z         11.014756     11.015122     0.000366    Cartesian    0.00
     66 x         -6.608853     -6.604839     0.004014    Cartesian   -0.06
     66 y          6.608853      6.605199    -0.003655    Cartesian   -0.06
     66 z         -2.202951     -2.202726     0.000225    Cartesian   -0.01
     67 x         13.217707     13.223620     0.005913    Cartesian    0.04
     67 y         -2.202951     -2.211844    -0.008893    Cartesian    0.40
     67 z         -2.202951     -2.211844    -0.008893    Cartesian    0.40
     68 x          8.811805      8.813879     0.002074    Cartesian    0.02
     68 y          6.608853      6.617526     0.008673    Cartesian    0.13
     68 z          6.608853      6.617526     0.008673    Cartesian    0.13
     69 x          4.405902      4.406899     0.000997    Cartesian    0.02
     69 y         -2.202951     -2.205705    -0.002754    Cartesian    0.12
     69 z         11.014756     11.034338     0.019582    Cartesian    0.18
     70 x          0.000000     -0.000872    -0.000872    Cartesian    0.00
     70 y         -2.202951     -2.206436    -0.003485    Cartesian    0.16
     70 z         11.014756     11.021539     0.006784    Cartesian    0.06
     71 x         -4.405902     -4.407793    -0.001891    Cartesian    0.04
     71 y          6.608853      6.611308     0.002454    Cartesian    0.04
     71 z          6.608853      6.611308     0.002454    Cartesian    0.04
     72 x         -8.811805     -8.811742     0.000062    Cartesian   -0.00
     72 y         -2.202951     -2.199288     0.003663    Cartesian   -0.17
     72 z         -2.202951     -2.199288     0.003663    Cartesian   -0.17
     73 x         13.217707     13.197244    -0.020463    Cartesian   -0.15
     73 y          0.000000      0.000000     0.000000    Cartesian    0.00
     73 z          4.405902      4.398861    -0.007041    Cartesian   -0.16
     74 x         11.014756     11.029293     0.014538    Cartesian    0.13
     74 y          6.608853      6.621527     0.012674    Cartesian    0.19
     74 z          4.405902      4.408171     0.002269    Cartesian    0.05
     75 x          8.811805      8.807721    -0.004084    Cartesian   -0.05
     75 y          4.405902      4.398776    -0.007126    Cartesian   -0.16
     75 z          8.811805      8.792616    -0.019189    Cartesian   -0.22
     76 x          6.608853      6.614229     0.005376    Cartesian    0.08
     76 y         11.014756     11.032759     0.018003    Cartesian    0.16
     76 z          0.000000      0.000000     0.000000    Cartesian    0.00
     77 x          6.608853      6.612885     0.004031    Cartesian    0.06
     77 y          6.608853      6.621569     0.012716    Cartesian    0.19
     77 z          8.811805      8.818074     0.006270    Cartesian    0.07
     78 x          2.202951      2.200387    -0.002564    Cartesian   -0.12
     78 y         11.014756     11.031627     0.016872    Cartesian    0.15
     78 z          4.405902      4.408395     0.002492    Cartesian    0.06
     79 x         -2.202951     -2.208098    -0.005147    Cartesian    0.23
     79 y         11.014756     11.035028     0.020272    Cartesian    0.18
     79 z          0.000000      0.000000     0.000000    Cartesian    0.00
     80 x         -2.202951     -2.210431    -0.007480    Cartesian    0.34
     80 y          8.811805      8.815890     0.004085    Cartesian    0.05
     80 z          6.608853      6.618925     0.010071    Cartesian    0.15
     81 x         -4.405902     -4.394044     0.011858    Cartesian   -0.27
     81 y          4.405902      4.399418    -0.006485    Cartesian   -0.15
     81 z          8.811805      8.795300    -0.016504    Cartesian   -0.19
     82 x         -6.608853     -6.621454    -0.012601    Cartesian    0.19
     82 y          6.608853      6.617453     0.008599    Cartesian    0.13
     82 z          4.405902      4.407123     0.001221    Cartesian    0.03
     83 x         -8.811805     -8.789970     0.021835    Cartesian   -0.25
     83 y          0.000000      0.000000     0.000000    Cartesian    0.00
     83 z          4.405902      4.398664    -0.007238    Cartesian   -0.16
     84 x          0.450400      0.450400     0.000000    Cartesian    0.00
     84 y          0.000000      0.000000     0.000000    Cartesian    0.00
     84 z          0.000000      0.000000     0.000000    Cartesian    0.00
     85 x          2.202951      2.252844     0.049893    Cartesian    2.26
     85 y         -2.202951     -2.201362     0.001589    Cartesian   -0.07
     85 z         -2.202951     -2.201362     0.001589    Cartesian   -0.07
     86 x          4.405902      4.425668     0.019766    Cartesian    0.45
     86 y          0.000000      0.000000     0.000000    Cartesian    0.00
     86 z          4.405902      4.351891    -0.054011    Cartesian   -1.23
     87 x          0.000000      0.047652     0.047652    Cartesian    0.00
     87 y          0.000000      0.000000     0.000000    Cartesian    0.00
     87 z          4.405902      4.363163    -0.042740    Cartesian   -0.97
     88 x          6.608853      6.596544    -0.012309    Cartesian   -0.19
     88 y         -2.202951     -2.184892     0.018059    Cartesian   -0.82
     88 z         -2.202951     -2.184892     0.018059    Cartesian   -0.82
     89 x         -2.202951     -2.178949     0.024002    Cartesian   -1.09
     89 y         -2.202951     -2.192689     0.010262    Cartesian   -0.47
     89 z         -2.202951     -2.192689     0.010262    Cartesian   -0.47
     90 x          8.811805      8.752940    -0.058865    Cartesian   -0.67
     90 y          0.000000      0.000000     0.000000    Cartesian    0.00
     90 z          0.000000      0.000000     0.000000    Cartesian    0.00
     91 x          4.405902      4.423044     0.017142    Cartesian    0.39
     91 y          4.405902      4.385675    -0.020228    Cartesian   -0.46
     91 z          4.405902      4.385675    -0.020228    Cartesian   -0.46
     92 x          0.000000      0.031559     0.031559    Cartesian    0.00
     92 y          4.405902      4.378346    -0.027556    Cartesian   -0.63
     92 z          4.405902      4.378346    -0.027556    Cartesian   -0.63
     93 x         -4.405902     -4.352884     0.053018    Cartesian   -1.20
     93 y          0.000000      0.000000     0.000000    Cartesian    0.00
     93 z          0.000000      0.000000     0.000000    Cartesian    0.00
     94 x          2.202951      2.207639     0.004688    Cartesian    0.21
     94 y         -2.202951     -2.203770    -0.000819    Cartesian    0.04
     94 z          6.608853      6.611731     0.002878    Cartesian    0.04
     95 x          8.811805      8.778983    -0.032822    Cartesian   -0.37
     95 y          0.000000      0.000000     0.000000    Cartesian    0.00
     95 z          4.405902      4.365951    -0.039952    Cartesian   -0.91
     96 x         -4.405902     -4.371846     0.034057    Cartesian   -0.77
     96 y          0.000000      0.000000     0.000000    Cartesian    0.00
     96 z          4.405902      4.386363    -0.019539    Cartesian   -0.44
     97 x          6.608853      6.611047     0.002193    Cartesian    0.03
     97 y         -2.202951     -2.203227    -0.000275    Cartesian    0.01
     97 z          6.608853      6.608744    -0.000110    Cartesian   -0.00
     98 x         -2.202951     -2.194308     0.008644    Cartesian   -0.39
     98 y         -2.202951     -2.201465     0.001487    Cartesian   -0.07
     98 z          6.608853      6.605980    -0.002873    Cartesian   -0.04
     99 x          8.811805      8.786168    -0.025636    Cartesian   -0.29
     99 y          4.405902      4.372677    -0.033225    Cartesian   -0.75
     99 z          4.405902      4.372677    -0.033225    Cartesian   -0.75
    100 x          4.405902      4.410988     0.005086    Cartesian    0.12
    100 y          0.000000      0.000000     0.000000    Cartesian    0.00
    100 z          8.811805      8.791800    -0.020005    Cartesian   -0.23
    101 x          0.000000      0.010981     0.010981    Cartesian    0.00
    101 y          0.000000      0.000000     0.000000    Cartesian    0.00
    101 z          8.811805      8.795711    -0.016093    Cartesian   -0.18
    102 x         -4.405902     -4.377753     0.028149    Cartesian   -0.64
    102 y          4.405902      4.391194    -0.014708    Cartesian   -0.33
    102 z          4.405902      4.391194    -0.014708    Cartesian   -0.33
    103 x         11.014756     11.017355     0.002600    Cartesian    0.02
    103 y         -2.202951     -2.202398     0.000553    Cartesian   -0.03
    103 z         -2.202951     -2.202398     0.000553    Cartesian   -0.03
    104 x          2.202951      2.204923     0.001972    Cartesian    0.09
    104 y          6.608853      6.611278     0.002425    Cartesian    0.04
    104 z          6.608853      6.611278     0.002425    Cartesian    0.04
    105 x         -6.608853     -6.600606     0.008248    Cartesian   -0.12
    105 y         -2.202951     -2.203406    -0.000455    Cartesian    0.02
    105 z         -2.202951     -2.203406    -0.000455    Cartesian    0.02
    106 x          4.405902      4.409612     0.003710    Cartesian    0.08
    106 y          4.405902      4.401501    -0.004401    Cartesian   -0.10
    106 z          8.811805      8.796422    -0.015382    Cartesian   -0.17
    107 x          0.000000      0.009527     0.009527    Cartesian    0.00
    107 y          4.405902      4.400842    -0.005061    Cartesian   -0.11
    107 z          8.811805      8.796965    -0.014840    Cartesian   -0.17
    108 x          6.608853      6.609910     0.001056    Cartesian    0.02
    108 y          6.608853      6.612541     0.003687    Cartesian    0.06
    108 z          6.608853      6.612541     0.003687    Cartesian    0.06
    109 x         -2.202951     -2.200173     0.002778    Cartesian   -0.13
    109 y          6.608853      6.609227     0.000373    Cartesian    0.01
    109 z          6.608853      6.609227     0.000373    Cartesian    0.01
    110 x         13.217707     13.194664    -0.023043    Cartesian   -0.17
    110 y          0.000000      0.000000     0.000000    Cartesian    0.00
    110 z          0.000000      0.000000     0.000000    Cartesian    0.00
    111 x          8.811805      8.809933    -0.001872    Cartesian   -0.02
    111 y          0.000000      0.000000     0.000000    Cartesian    0.00
    111 z          8.811805      8.793634    -0.018171    Cartesian   -0.21
    112 x         -4.405902     -4.392248     0.013654    Cartesian   -0.31
    112 y          0.000000      0.000000     0.000000    Cartesian    0.00
    112 z          8.811805      8.798884    -0.012920    Cartesian   -0.15
    113 x         -8.811805     -8.791545     0.020260    Cartesian   -0.23
    113 y          0.000000      0.000000     0.000000    Cartesian    0.00
    113 z          0.000000      0.000000     0.000000    Cartesian    0.00
    114 x         11.014756     11.012135    -0.002620    Cartesian   -0.02
    114 y         -2.202951     -2.202406     0.000545    Cartesian   -0.02
    114 z          6.608853      6.606346    -0.002507    Cartesian   -0.04
    115 x          2.202951      2.205196     0.002245    Cartesian    0.10
    115 y         -2.202951     -2.203048    -0.000097    Cartesian    0.00
    115 z         11.014756     11.015123     0.000367    Cartesian    0.00
    116 x         -6.608853     -6.604841     0.004013    Cartesian   -0.06
    116 y          6.608853      6.605194    -0.003660    Cartesian   -0.06
    116 z         -2.202951     -2.202726     0.000226    Cartesian   -0.01
    117 x         13.217707     13.194543    -0.023164    Cartesian   -0.18
    117 y          0.000000      0.000000     0.000000    Cartesian    0.00
    117 z          4.405902      4.397482    -0.008420    Cartesian   -0.19
    118 x          8.811805      8.807234    -0.004571    Cartesian   -0.05
    118 y          4.405902      4.397399    -0.008503    Cartesian   -0.19
    118 z          8.811805      8.789604    -0.022200    Cartesian   -0.25
    119 x         -4.405902     -4.392320     0.013583    Cartesian   -0.31
    119 y          4.405902      4.398589    -0.007313    Cartesian   -0.17
    119 z          8.811805      8.793262    -0.018542    Cartesian   -0.21
    120 x         -8.811805     -8.787349     0.024456    Cartesian   -0.28
    120 y          0.000000      0.000000     0.000000    Cartesian    0.00
    120 z          4.405902      4.397882    -0.008020    Cartesian   -0.18
--------------------------------------------------------------------------------


  Time to end of optimisation  =        9.2365 seconds


  Peak dynamic memory used =      76.10 MB 


  Timing analysis for GULP :

--------------------------------------------------------------------------------
  Task / Subroutine                                          Time (Seconds)
--------------------------------------------------------------------------------
  Calculation of reciprocal space energy and derivatives          0.0008
  Calculation of reciprocal space energy using symmetry           0.0015
  Calculation of real space energy and derivatives                0.0044
  Calculation of real space energy using symmetry                 0.0140
  Calculation for region 1 energy and derivatives (2-b)           5.8055
  Calculation for region 2a energy                                2.9021
  Calculation for region 2b energy                                0.0033
  Calculation and manipulation of Hessian matrix                  0.3647
  Calculation of matrix inversion                                 0.0263
  Symmetry generation of equivalent positions                     0.0054
--------------------------------------------------------------------------------
  Total CPU time                                                  9.2366
--------------------------------------------------------------------------------


  Dump file written as Na3OCl.grs


  Job Finished at 16:17.36  8th January    2021                               

