********************************************************************************
*                       GENERAL UTILITY LATTICE PROGRAM                        *
*                                 Julian Gale                                  *
*                       Curtin Institute for Computation                       *
*                    School of Molecular and Life Sciences                     *
*                    Curtin University, Western Australia                      *
********************************************************************************
* Version = 5.2.0 * Last modified =  10th September 2020                       *
********************************************************************************
*  optimise     - perform optimisation run                                     *
*  conp         - constant pressure calculation                                *
*  property     - calculate properties for final geometry                      *
*  defect       - perform defect calculation after bulk run                    *
*  compare      - compare initial and final structures                         *
********************************************************************************

  Job Started  at 16:17.29  8th January    2021                               

  Number of CPUs =     1


  Total number of configurations input =      1

********************************************************************************
*  Input for Configuration =   1                                               *
********************************************************************************

  Formula = ClONa3                                                      

  Number of irreducible atoms/shells =       5


  Total number atoms/shells =       7

  Dimensionality = 3               :  Bulk   


  Symmetry :

  Crystal family                   :  Cubic       
  Crystal class  (Groth - 1921)    :  Cubic Hexakisoctahedral              

  Space group (centrosymmetric)    :  P M 3 M         

  Patterson group                  :  P m -3 m 

  Cartesian lattice vectors (Angstroms) :

        4.504000    0.000000    0.000000
        0.000000    4.504000    0.000000
        0.000000    0.000000    4.504000

  Cell parameters (Angstroms/Degrees):

  a =       4.5040    alpha =  90.0000
  b =       4.5040    beta  =  90.0000
  c =       4.5040    gamma =  90.0000

  Initial cell volume =          91.368216 Angs**3

  Temperature of configuration =   0.00     K 

  Pressure of configuration =         0.000 GPa 

  Fractional coordinates of asymmetric unit :

--------------------------------------------------------------------------------
   No.  Atomic       x           y          z         Charge      Occupancy
        Label      (Frac)      (Frac)     (Frac)        (e)         (Frac)  
--------------------------------------------------------------------------------
      1 Cl    c    0.000000    0.000000    0.000000     1.48500    1.000000    
      2 O     c    0.500000    0.500000    0.500000     0.18300    1.000000    
      3 Na    c    0.500000    0.500000    0.000000     1.00000    1.000000    
      4 Cl    s    0.000000    0.000000    0.000000    -2.48500    1.000000    
      5 O     s    0.500000    0.500000    0.500000    -2.18300    1.000000    
--------------------------------------------------------------------------------


  Constraints : 

--------------------------------------------------------------------------------
  Constraint no.      Unconstrained     Constrained    Coefficient    Offset
                         Variable         Variable
--------------------------------------------------------------------------------
           1              Strain 1        Strain 2       1.00000      0.0000
           2              Strain 1        Strain 3       1.00000      0.0000
--------------------------------------------------------------------------------


********************************************************************************
*  General input information                                                   *
********************************************************************************

  Species output for all configurations : 

--------------------------------------------------------------------------------
  Species    Type    Atomic    Atomic    Charge       Radii (Angs)     Library
                     Number     Mass       (e)     Cova   Ionic  VDW   Symbol
--------------------------------------------------------------------------------
    Na       Core       11      22.99   1.000000   0.970  0.000  2.300          
    O        Core        8      16.00   0.183000   0.730  0.000  1.360          
    O        Shell       8       0.00  -2.183000   0.730  0.000  1.360          
    Cl       Core       17      35.45   1.485000   0.990  0.000  1.650          
    Cl       Shell      17       0.00  -2.485000   0.990  0.000  1.650          
    Mg       Core       12      24.31   0.415000   1.100  0.000  0.000          
    Mg       Shell      12       0.00   1.585000   1.100  0.000  0.000          
    Ca       Core       20      40.08  -1.135000   0.990  0.000  0.000          
    Ca       Shell      20       0.00   3.135000   0.990  0.000  0.000          
    Sr       Core       38      87.62  -1.251000   1.120  0.000  0.000          
    Sr       Shell      38       0.00   3.251000   1.120  0.000  0.000          
    Ba       Core       56     137.33  -7.203000   1.340  0.000  0.000          
    Ba       Shell      56       0.00   9.203000   1.340  0.000  0.000          
--------------------------------------------------------------------------------


  Lattice summation method               =    Ewald          (3-D)
                                         =    Parry          (2-D)
                                         =    Saunders et al (1-D)
  Accuracy factor for lattice sums       =   12.000


  Analytic derivatives to be used

  Time limit = Infinity

  Maximum range for interatomic potentials =    100000.000000 Angstroms

  General interatomic potentials :

--------------------------------------------------------------------------------
Atom  Types   Potential      Parameter       Value         Units   Cutoffs(Ang)
  1     2                                                            Min /  Max 
--------------------------------------------------------------------------------
O    c O    s Spring (c-s)  Spring k 2       593.71600    eV*Ang^-2 0.000  0.800
                            Spring k 4       0.0000000    eV*Ang^-4 
--------------------------------------------------------------------------------
Cl   c Cl   s Spring (c-s)  Spring k 2       29.380000    eV*Ang^-2 0.000  0.800
                            Spring k 4       0.0000000    eV*Ang^-4 
--------------------------------------------------------------------------------
Mg   c Mg   s Spring (c-s)  Spring k 2       361.60000    eV*Ang^-2 0.000  0.800
                            Spring k 4       0.0000000    eV*Ang^-4 
--------------------------------------------------------------------------------
Ca   c Ca   s Spring (c-s)  Spring k 2       110.20000    eV*Ang^-2 0.000  0.800
                            Spring k 4       0.0000000    eV*Ang^-4 
--------------------------------------------------------------------------------
Sr   c Sr   s Spring (c-s)  Spring k 2       71.700000    eV*Ang^-2 0.000  0.800
                            Spring k 4       0.0000000    eV*Ang^-4 
--------------------------------------------------------------------------------
Ba   c Ba   s Spring (c-s)  Spring k 2       495.20000    eV*Ang^-2 0.000  0.800
                            Spring k 4       0.0000000    eV*Ang^-4 
--------------------------------------------------------------------------------
Na   c Na   c Buckingham    Buckingham A     1788.1900    eV        0.000 12.000
                            Buckingham rho  0.15900000    Ang       
                            Buckingham C     0.0000000    eV*Ang^6  
--------------------------------------------------------------------------------
Na   c O    s Buckingham    Buckingham A     588.38000    eV        0.000 12.000
                            Buckingham rho  0.33800000    Ang       
                            Buckingham C     0.0000000    eV*Ang^6  
--------------------------------------------------------------------------------
Na   c Cl   s Buckingham    Buckingham A     1170.4100    eV        0.000 12.000
                            Buckingham rho  0.31500000    Ang       
                            Buckingham C     0.0000000    eV*Ang^6  
--------------------------------------------------------------------------------
O    s O    s Buckingham    Buckingham A     22764.300    eV        0.000 12.000
                            Buckingham rho  0.14900000    Ang       
                            Buckingham C     13.190000    eV*Ang^6  
--------------------------------------------------------------------------------
O    s Cl   s Buckingham    Buckingham A     8286.9100    eV        0.000 12.000
                            Buckingham rho  0.25900000    Ang       
                            Buckingham C     62.200000    eV*Ang^6  
--------------------------------------------------------------------------------
Cl   s Cl   s Buckingham    Buckingham A     1227.2000    eV        0.000 12.000
                            Buckingham rho  0.32100000    Ang       
                            Buckingham C     14.530000    eV*Ang^6  
--------------------------------------------------------------------------------
O    s Mg   s Buckingham    Buckingham A     1428.5000    eV        0.000 12.000
                            Buckingham rho  0.29450000    Ang       
                            Buckingham C     0.0000000    eV*Ang^6  
--------------------------------------------------------------------------------
Mg   s Cl   s Buckingham    Buckingham A     4914.5400    eV        0.000 12.000
                            Buckingham rho  0.25700000    Ang       
                            Buckingham C     0.0000000    eV*Ang^6  
--------------------------------------------------------------------------------
O    s Ca   s Buckingham    Buckingham A     1090.4000    eV        0.000 12.000
                            Buckingham rho  0.34370000    Ang       
                            Buckingham C     0.0000000    eV*Ang^6  
--------------------------------------------------------------------------------
Cl   s Ca   s Buckingham    Buckingham A     2302.0000    eV        0.000 12.000
                            Buckingham rho  0.34020000    Ang       
                            Buckingham C     0.0000000    eV*Ang^6  
--------------------------------------------------------------------------------
O    s Sr   s Buckingham    Buckingham A     959.10000    eV        0.000 12.000
                            Buckingham rho  0.37210000    Ang       
                            Buckingham C     0.0000000    eV*Ang^6  
--------------------------------------------------------------------------------
Cl   s Sr   s Buckingham    Buckingham A     2191.0900    eV        0.000 12.000
                            Buckingham rho  0.34570000    Ang       
                            Buckingham C     0.0000000    eV*Ang^6  
--------------------------------------------------------------------------------
O    s Ba   s Buckingham    Buckingham A     905.70000    eV        0.000 12.000
                            Buckingham rho  0.39760000    Ang       
                            Buckingham C     0.0000000    eV*Ang^6  
--------------------------------------------------------------------------------
Cl   s Ba   s Buckingham    Buckingham A     2704.5500    eV        0.000 12.000
                            Buckingham rho  0.35280000    Ang       
                            Buckingham C     0.0000000    eV*Ang^6  
--------------------------------------------------------------------------------

********************************************************************************
*  Output for configuration   1                                                *
********************************************************************************


  Components of energy : 

--------------------------------------------------------------------------------
  Interatomic potentials     =           4.94315381 eV    
  Monopole - monopole (real) =         -10.03624526 eV    
  Monopole - monopole (recip)=         -29.53581274 eV    
  Monopole - monopole (total)=         -39.57205800 eV    
--------------------------------------------------------------------------------
  Total lattice energy       =         -34.62890419 eV    
--------------------------------------------------------------------------------
  Total lattice energy       =           -3341.1599 kJ/(mole unit cells)
--------------------------------------------------------------------------------


  Number of variables =        1

  Maximum number of calculations  =          1000
  Maximum Hessian update interval =            10
  Maximum step size               =   1.000000000
  Maximum parameter tolerance     =   0.000010000
  Maximum function  tolerance     =   0.000010000
  Maximum gradient  tolerance     =   0.001000000
  Maximum gradient  component     =   0.010000000

  Symmetry constrained optimisation

  Symmetry used for second derivatives

  Cell parameters to be optimised using strains

  Newton-Raphson optimiser to be used

  BFGS hessian update to be used

  Lower half triangular hessian to be used

  Start of bulk optimisation :

  Cycle:      0 Energy:       -34.628904  Gnorm:      4.328237  CPU:    0.017
  ** Hessian calculated **
  Cycle:      1 Energy:       -34.677667  Gnorm:      0.044008  CPU:    0.021
  Cycle:      2 Energy:       -34.677671  Gnorm:      0.003653  CPU:    0.025


  **** Optimisation achieved ****


  Final energy =     -34.67767136 eV
  Final Gnorm  =       0.00000010

  Components of energy : 

--------------------------------------------------------------------------------
  Interatomic potentials     =           5.77546103 eV    
  Monopole - monopole (real) =         -10.25970290 eV    
  Monopole - monopole (recip)=         -30.19342950 eV    
  Monopole - monopole (total)=         -40.45313239 eV    
--------------------------------------------------------------------------------
  Total lattice energy       =         -34.67767136 eV    
--------------------------------------------------------------------------------
  Total lattice energy       =           -3345.8652 kJ/(mole unit cells)
--------------------------------------------------------------------------------

  Final asymmetric unit coordinates :

--------------------------------------------------------------------------------
   No.  Atomic        x           y           z         Radius
        Label       (Frac)      (Frac)      (Frac)       (Angs) 
--------------------------------------------------------------------------------
     1  Cl    c     0.000000    0.000000    0.000000    0.000000
     2  O     c     0.500000    0.500000    0.500000    0.000000
     3  Na    c     0.500000    0.500000    0.000000    0.000000
     4  Cl    s     0.000000    0.000000    0.000000    0.000000
     5  O     s     0.500000    0.500000    0.500000    0.000000
--------------------------------------------------------------------------------

  Final Cartesian lattice vectors (Angstroms) :

        4.405902    0.000000    0.000000
        0.000000    4.405902    0.000000
        0.000000    0.000000    4.405902


  Final cell parameters and derivatives :

--------------------------------------------------------------------------------
       a            4.405902 Angstrom     dE/de1(xx)     0.000000 eV/strain
       b            4.405902 Angstrom     dE/de2(yy)     0.000000 eV/strain
       c            4.405902 Angstrom     dE/de3(zz)     0.000000 eV/strain
       alpha       90.000000 Degrees      dE/de4(yz)     0.000000 eV/strain
       beta        90.000000 Degrees      dE/de5(xz)     0.000000 eV/strain
       gamma       90.000000 Degrees      dE/de6(xy)     0.000000 eV/strain
--------------------------------------------------------------------------------

  Primitive cell volume =            85.527266 Angs**3

  Density of cell =      2.338030 g/cm**3

  Non-primitive cell volume =            85.527266 Angs**3


  Final internal derivatives :

--------------------------------------------------------------------------------
   No.  Atomic          a             b             c           Radius
        Label          (eV)          (eV)          (eV)        (eV/Angs)
--------------------------------------------------------------------------------
      1 Cl    c       0.000000      0.000000      0.000000      0.000000
      2 O     c       0.000000      0.000000      0.000000      0.000000
      3 Na    c       0.000000      0.000000      0.000000      0.000000
      4 Cl    s       0.000000      0.000000      0.000000      0.000000
      5 O     s       0.000000      0.000000      0.000000      0.000000
--------------------------------------------------------------------------------
  Maximum abs         0.000000      0.000000      0.000000      0.000000
--------------------------------------------------------------------------------

  Comparison of initial and final structures : 

--------------------------------------------------------------------------------
  Parameter   Initial value   Final value   Difference    Units      Percent
--------------------------------------------------------------------------------
    Volume        91.368216     85.527266    -5.840950    Angs**3     -6.39
    a              4.504000      4.405902    -0.098098    Angstroms   -2.18
    b              4.504000      4.405902    -0.098098    Angstroms   -2.18
    c              4.504000      4.405902    -0.098098    Angstroms   -2.18
    alpha         90.000000     90.000000     0.000000    Degrees      0.00
    beta          90.000000     90.000000     0.000000    Degrees      0.00
    gamma         90.000000     90.000000     0.000000    Degrees      0.00
      1 x          0.000000      0.000000     0.000000    Fractional   0.00
      1 y          0.000000      0.000000     0.000000    Fractional   0.00
      1 z          0.000000      0.000000     0.000000    Fractional   0.00
      2 x          0.500000      0.500000     0.000000    Fractional   0.00
      2 y          0.500000      0.500000     0.000000    Fractional   0.00
      2 z          0.500000      0.500000     0.000000    Fractional   0.00
      3 x          0.500000      0.500000     0.000000    Fractional   0.00
      3 y          0.500000      0.500000     0.000000    Fractional   0.00
      3 z          0.000000      0.000000     0.000000    Fractional   0.00
      4 x          0.000000      0.000000     0.000000    Fractional   0.00
      4 y          0.000000      0.000000     0.000000    Fractional   0.00
      4 z          0.000000      0.000000     0.000000    Fractional   0.00
      5 x          0.500000      0.500000     0.000000    Fractional   0.00
      5 y          0.500000      0.500000     0.000000    Fractional   0.00
      5 z          0.500000      0.500000     0.000000    Fractional   0.00
--------------------------------------------------------------------------------


  Born effective charge tensors : 

-------------------------------------------------------------------------------
  Atom             x           y             z
-------------------------------------------------------------------------------
    1 Cl    x      -0.9918     -0.0000     -0.0000
            y      -0.0000     -0.9918     -0.0000
            z      -0.0000     -0.0000     -0.9918
-------------------------------------------------------------------------------
    2 O     x      -2.2939      0.0000      0.0000
            y       0.0000     -2.2939      0.0000
            z       0.0000      0.0000     -2.2939
-------------------------------------------------------------------------------
    3 Na    x       1.2243      0.0000      0.0000
            y       0.0000      1.2243     -0.0000
            z       0.0000      0.0000      0.8372
-------------------------------------------------------------------------------




  Elastic Constant Matrix: (Units=GPa)

-------------------------------------------------------------------------------
  Indices      1         2         3         4         5         6    
-------------------------------------------------------------------------------
       1     82.7680   24.3534   24.3534   -0.0000    0.0000   -0.0000
       2     24.3534   82.7680   24.3534    0.0000   -0.0000   -0.0000
       3     24.3534   24.3534   82.7680    0.0000   -0.0000    0.0000
       4     -0.0000    0.0000    0.0000   24.3534   -0.0000    0.0000
       5      0.0000   -0.0000   -0.0000   -0.0000   24.3534    0.0000
       6     -0.0000   -0.0000    0.0000    0.0000    0.0000   24.3534
-------------------------------------------------------------------------------


  Elastic Compliance Matrix: (Units=1/GPa)

-------------------------------------------------------------------------------
  Indices      1         2         3         4         5         6    
-------------------------------------------------------------------------------
       1    0.013948 -0.003171 -0.003171  0.000000 -0.000000  0.000000
       2   -0.003171  0.013948 -0.003171 -0.000000  0.000000 -0.000000
       3   -0.003171 -0.003171  0.013948 -0.000000  0.000000 -0.000000
       4    0.000000 -0.000000 -0.000000  0.041062  0.000000 -0.000000
       5   -0.000000  0.000000  0.000000  0.000000  0.041062 -0.000000
       6    0.000000 -0.000000 -0.000000 -0.000000 -0.000000  0.041062
-------------------------------------------------------------------------------

  Mechanical properties :

-------------------------------------------------------------------------------
  Convention :                    Reuss         Voigt         Hill
-------------------------------------------------------------------------------
  Bulk  Modulus (GPa)     =      43.82493      43.82493      43.82493
  Shear Modulus (GPa)     =      26.08758      26.29496      26.19127
-------------------------------------------------------------------------------
  Velocity S-wave (km/s)  =       3.34035       3.35360       3.34698
  Velocity P-wave (km/s)  =       5.79842       5.80861       5.80351
-------------------------------------------------------------------------------
  Compressibility (1/GPa) =    0.02281806
-------------------------------------------------------------------------------
  Stress axis :                     x             y             z
-------------------------------------------------------------------------------
  Youngs Moduli (GPa)     =      71.69479      71.69479      71.69479
-------------------------------------------------------------------------------
  Poissons Ratio (x)      =                     0.22734       0.22734
  Poissons Ratio (y)      =       0.22734                     0.22734
  Poissons Ratio (z)      =       0.22734       0.22734
-------------------------------------------------------------------------------


  Piezoelectric Strain Matrix: (Units=C/m**2)

-------------------------------------------------------------------------------
  Indices      1         2         3         4         5         6    
-------------------------------------------------------------------------------
       x    -0.00000  -0.00000  -0.00000  -0.00000   0.00000  -0.00000
       y     0.00000  -0.00000   0.00000   0.00000  -0.00000   0.00000
       z    -0.00000  -0.00000   0.00000  -0.00000   0.00000  -0.00000
-------------------------------------------------------------------------------


  Piezoelectric Stress Matrix: (Units=10**-11 C/N)

-------------------------------------------------------------------------------
  Indices      1         2         3         4         5         6    
-------------------------------------------------------------------------------
       x     0.00000  -0.00000  -0.00000  -0.00000   0.00000  -0.00000
       y     0.00000  -0.00000   0.00000   0.00000  -0.00000   0.00000
       z    -0.00000  -0.00000   0.00000  -0.00000   0.00000  -0.00000
-------------------------------------------------------------------------------


  Static dielectric constant tensor : 

-------------------------------------------------------------------------------
              x         y         z
-------------------------------------------------------------------------------
       x    11.08357   0.00000   0.00000
       y     0.00000  11.08357   0.00000
       z     0.00000   0.00000  11.08357
--------------------------------------------------------------------------------

  High frequency dielectric constant tensor : 

-------------------------------------------------------------------------------
              x         y         z
-------------------------------------------------------------------------------
       x     1.50771   0.00000   0.00000
       y     0.00000   1.50771   0.00000
       z     0.00000   0.00000   1.50771
-------------------------------------------------------------------------------

  Static refractive indices : 

-------------------------------------------------------------------------------
    1 =    3.32920      2 =    3.32920      3 =    3.32920
-------------------------------------------------------------------------------

  High frequency refractive indices : 

-------------------------------------------------------------------------------
    1 =    1.22789      2 =    1.22789      3 =    1.22789
-------------------------------------------------------------------------------


  Time to end of optimisation =       0.0348 seconds

********************************************************************************
*  Defect calculation for configuration   1 :                                  *
********************************************************************************

  Total number of defects =      3

  Total charge on defect  =   1.00

  Defect centre is at   2.2520   0.0000   0.0000  Angs

  Region 1 radius =  12.0000      Number of ions =    622

  Number of symmetry inequivalent region 1 ions  =    120

  Region 2 radius =  16.0000      Number of ions =    760

  Number of symmetry inequivalent region 2a ions =    123

  Region 2a mode = 4 : screened electrostatics due to region 1 
                       neglect correction to region 1 forces from 2a
                       region 2a displacements based on defects only

  Region 2a ions will only interact with defects in region 1

  Vacancies:

--------------------------------------------------------------------------------
    Specification type     Symbol/Number         x          y          z
--------------------------------------------------------------------------------
    Cartesian                                4.504000   0.000000   0.000000
    Cartesian                                0.000000   0.000000   0.000000
--------------------------------------------------------------------------------

  Interstitials:

--------------------------------------------------------------------------------
    Specification type     Symbol/Number         x          y          z
--------------------------------------------------------------------------------
    Atom/Cartesian          Cl               4.504000   0.000000   0.000000
--------------------------------------------------------------------------------


  Symmetry reduced region 1 (Relative to defect centre) :

--------------------------------------------------------------------------------
   No.   Atomic       x            y             z       Radius  Multiplicity   
         Label      (Angs)       (Angs)        (Angs)    (Angs)     
--------------------------------------------------------------------------------
     1  Na    c     -0.0490 *    -2.2030 *     0.0000    0.0000     4          
     2  Cl    c      2.2520       0.0000       0.0000    0.0000     1    Defect
     3  O     c     -0.0490 *    -2.2030 *    -2.2030    0.0000     4          
     4  Na    c      2.1539 *    -2.2030 *    -2.2030    0.0000     4          
     5  Na    c     -2.2520 *    -2.2030 *    -2.2030    0.0000     4          
     6  Na    c      4.3569 *    -2.2030 *     0.0000    0.0000     4          
     7  Cl    c      2.1539 *     0.0000       4.4059 *  0.0000     4          
     8  Na    c     -0.0490 *    -2.2030 *     4.4059 *  0.0000     8          
     9  Cl    c     -2.2520 *     0.0000       4.4059 *  0.0000     4          
    10  Na    c     -4.4550 *    -2.2030 *     0.0000    0.0000     4          
    11  O     c      4.3569 *    -2.2030 *    -2.2030    0.0000     4          
    12  O     c     -4.4550 *    -2.2030 *    -2.2030    0.0000     4          
    13  Cl    c      6.5598 *     0.0000       0.0000    0.0000     1          
    14  Na    c      4.3569 *     4.4059 *    -2.2030 *  0.0000     8          
    15  Cl    c      2.1539 *     4.4059 *     4.4059    0.0000     4          
    16  Na    c     -0.0490 *     6.6089 *     0.0000    0.0000     4          
    17  Cl    c     -2.2520 *     4.4059 *     4.4059    0.0000     4          
    18  Na    c     -4.4550 *    -2.2030 *     4.4059 *  0.0000     8          
    19  Cl    c     -6.6579 *     0.0000       0.0000    0.0000     1          
    20  O     c     -0.0490 *    -2.2030 *     6.6089 *  0.0000     8          
    21  Na    c      6.5598 *    -2.2030 *    -2.2030    0.0000     4          
    22  Na    c      2.1539 *    -2.2030 *     6.6089 *  0.0000     8          
    23  Na    c     -2.2520 *     6.6089 *    -2.2030 *  0.0000     8          
    24  Na    c     -6.6579 *    -2.2030 *    -2.2030    0.0000     4          
    25  Cl    c      6.5598 *     0.0000       4.4059 *  0.0000     4          
    26  Na    c      4.3569 *     6.6089 *     0.0000    0.0000     4          
    27  Na    c     -0.0490 *     6.6089 *     4.4059 *  0.0000     8          
    28  Na    c     -4.4550 *     6.6089 *     0.0000    0.0000     4          
    29  Cl    c     -6.6579 *     0.0000       4.4059 *  0.0000     4          
    30  O     c      4.3569 *    -2.2030 *     6.6089 *  0.0000     8          
    31  O     c     -4.4550 *    -2.2030 *     6.6089 *  0.0000     8          
    32  Na    c      8.7628 *    -2.2030 *     0.0000    0.0000     4          
    33  Cl    c      6.5598 *     4.4059 *     4.4059    0.0000     4          
    34  Na    c      4.3569 *     6.6089 *     4.4059 *  0.0000     8          
    35  Cl    c      2.1539 *     0.0000       8.8118 *  0.0000     4          
    36  Na    c     -0.0490 *    -2.2030 *     8.8118 *  0.0000     8          
    37  Cl    c     -2.2520 *     0.0000       8.8118 *  0.0000     4          
    38  Na    c     -4.4550 *     6.6089 *     4.4059 *  0.0000     8          
    39  Cl    c     -6.6579 *     4.4059 *     4.4059    0.0000     4          
    40  Na    c     -8.8609 *    -2.2030 *     0.0000    0.0000     4          
    41  O     c      8.7628 *    -2.2030 *    -2.2030    0.0000     4          
    42  O     c     -0.0490 *     6.6089 *     6.6089    0.0000     4          
    43  O     c     -8.8609 *    -2.2030 *    -2.2030    0.0000     4          
    44  Na    c      6.5598 *    -2.2030 *     6.6089 *  0.0000     8          
    45  Na    c      2.1539 *     6.6089 *     6.6089    0.0000     4          
    46  Na    c     -2.2520 *     6.6089 *     6.6089    0.0000     4          
    47  Na    c     -6.6579 *    -2.2030 *     6.6089 *  0.0000     8          
    48  Na    c      8.7628 *     4.4059 *    -2.2030 *  0.0000     8          
    49  Na    c      4.3569 *    -2.2030 *     8.8118 *  0.0000     8          
    50  Cl    c      2.1539 *     4.4059 *     8.8118 *  0.0000     8          
    51  Cl    c     -2.2520 *     4.4059 *     8.8118 *  0.0000     8          
    52  Na    c     -4.4550 *    -2.2030 *     8.8118 *  0.0000     8          
    53  Na    c     -8.8609 *    -2.2030 *     4.4059 *  0.0000     8          
    54  O     c      4.3569 *     6.6089 *     6.6089    0.0000     4          
    55  O     c     -4.4550 *     6.6089 *     6.6089    0.0000     4          
    56  Cl    c     10.9657 *     0.0000       0.0000    0.0000     1          
    57  Na    c      8.7628 *     6.6089 *     0.0000    0.0000     4          
    58  Cl    c      6.5598 *     0.0000       8.8118 *  0.0000     4          
    59  Na    c     -0.0490 *     6.6089 *     8.8118 *  0.0000     8          
    60  Na    c     -0.0490 *    11.0148 *     0.0000    0.0000     4          
    61  Cl    c     -6.6579 *     0.0000       8.8118 *  0.0000     4          
    62  Na    c     -8.8609 *     6.6089 *     0.0000    0.0000     4          
    63  Cl    c    -11.0638 *     0.0000       0.0000    0.0000     1          
    64  O     c      8.7628 *    -2.2030 *     6.6089 *  0.0000     8          
    65  O     c     -0.0490 *    -2.2030 *    11.0148 *  0.0000     8          
    66  O     c     -8.8609 *     6.6089 *    -2.2030 *  0.0000     8          
    67  Na    c     10.9657 *    -2.2030 *    -2.2030    0.0000     4          
    68  Na    c      6.5598 *     6.6089 *     6.6089    0.0000     4          
    69  Na    c      2.1539 *    -2.2030 *    11.0148 *  0.0000     8          
    70  Na    c     -2.2520 *    -2.2030 *    11.0148 *  0.0000     8          
    71  Na    c     -6.6579 *     6.6089 *     6.6089    0.0000     4          
    72  Na    c    -11.0638 *    -2.2030 *    -2.2030    0.0000     4          
    73  Cl    c     10.9657 *     0.0000       4.4059 *  0.0000     4          
    74  Na    c      8.7628 *     6.6089 *     4.4059 *  0.0000     8          
    75  Cl    c      6.5598 *     4.4059 *     8.8118 *  0.0000     8          
    76  Na    c      4.3569 *    11.0148 *     0.0000    0.0000     4          
    77  Na    c      4.3569 *     6.6089 *     8.8118 *  0.0000     8          
    78  Na    c     -0.0490 *    11.0148 *     4.4059 *  0.0000     8          
    79  Na    c     -4.4550 *    11.0148 *     0.0000    0.0000     4          
    80  Na    c     -4.4550 *     8.8118 *     6.6089 *  0.0000     8          
    81  Cl    c     -6.6579 *     4.4059 *     8.8118 *  0.0000     8          
    82  Na    c     -8.8609 *     6.6089 *     4.4059 *  0.0000     8          
    83  Cl    c    -11.0638 *     0.0000       4.4059 *  0.0000     4          
    84  Cl    s      2.2520       0.0000       0.0000    0.0000     1    Defect
    85  O     s     -0.0490 *    -2.2030 *    -2.2030    0.0000     4          
    86  Cl    s      2.1539 *     0.0000       4.4059 *  0.0000     4          
    87  Cl    s     -2.2520 *     0.0000       4.4059 *  0.0000     4          
    88  O     s      4.3569 *    -2.2030 *    -2.2030    0.0000     4          
    89  O     s     -4.4550 *    -2.2030 *    -2.2030    0.0000     4          
    90  Cl    s      6.5598 *     0.0000       0.0000    0.0000     1          
    91  Cl    s      2.1539 *     4.4059 *     4.4059    0.0000     4          
    92  Cl    s     -2.2520 *     4.4059 *     4.4059    0.0000     4          
    93  Cl    s     -6.6579 *     0.0000       0.0000    0.0000     1          
    94  O     s     -0.0490 *    -2.2030 *     6.6089 *  0.0000     8          
    95  Cl    s      6.5598 *     0.0000       4.4059 *  0.0000     4          
    96  Cl    s     -6.6579 *     0.0000       4.4059 *  0.0000     4          
    97  O     s      4.3569 *    -2.2030 *     6.6089 *  0.0000     8          
    98  O     s     -4.4550 *    -2.2030 *     6.6089 *  0.0000     8          
    99  Cl    s      6.5598 *     4.4059 *     4.4059    0.0000     4          
   100  Cl    s      2.1539 *     0.0000       8.8118 *  0.0000     4          
   101  Cl    s     -2.2520 *     0.0000       8.8118 *  0.0000     4          
   102  Cl    s     -6.6579 *     4.4059 *     4.4059    0.0000     4          
   103  O     s      8.7628 *    -2.2030 *    -2.2030    0.0000     4          
   104  O     s     -0.0490 *     6.6089 *     6.6089    0.0000     4          
   105  O     s     -8.8609 *    -2.2030 *    -2.2030    0.0000     4          
   106  Cl    s      2.1539 *     4.4059 *     8.8118 *  0.0000     8          
   107  Cl    s     -2.2520 *     4.4059 *     8.8118 *  0.0000     8          
   108  O     s      4.3569 *     6.6089 *     6.6089    0.0000     4          
   109  O     s     -4.4550 *     6.6089 *     6.6089    0.0000     4          
   110  Cl    s     10.9657 *     0.0000       0.0000    0.0000     1          
   111  Cl    s      6.5598 *     0.0000       8.8118 *  0.0000     4          
   112  Cl    s     -6.6579 *     0.0000       8.8118 *  0.0000     4          
   113  Cl    s    -11.0638 *     0.0000       0.0000    0.0000     1          
   114  O     s      8.7628 *    -2.2030 *     6.6089 *  0.0000     8          
   115  O     s     -0.0490 *    -2.2030 *    11.0148 *  0.0000     8          
   116  O     s     -8.8609 *     6.6089 *    -2.2030 *  0.0000     8          
   117  Cl    s     10.9657 *     0.0000       4.4059 *  0.0000     4          
   118  Cl    s      6.5598 *     4.4059 *     8.8118 *  0.0000     8          
   119  Cl    s     -6.6579 *     4.4059 *     8.8118 *  0.0000     8          
   120  Cl    s    -11.0638 *     0.0000       4.4059 *  0.0000     4          
--------------------------------------------------------------------------------


  Constraints on symmetry reduced coordinates :

--------------------------------------------------------------------------------
  Constraint no.      Unconstrained     Constrained    Coefficient    
                         Variable         Variable
--------------------------------------------------------------------------------
           1                 3 y             3 z         1.00000
           2                 4 y             4 z         1.00000
           3                 5 y             5 z         1.00000
           4                11 y            11 z         1.00000
           5                12 y            12 z         1.00000
           6                15 y            15 z         1.00000
           7                17 y            17 z         1.00000
           8                21 y            21 z         1.00000
           9                24 y            24 z         1.00000
          10                33 y            33 z         1.00000
          11                39 y            39 z         1.00000
          12                41 y            41 z         1.00000
          13                42 y            42 z         1.00000
          14                43 y            43 z         1.00000
          15                45 y            45 z         1.00000
          16                46 y            46 z         1.00000
          17                54 y            54 z         1.00000
          18                55 y            55 z         1.00000
          19                67 y            67 z         1.00000
          20                68 y            68 z         1.00000
          21                71 y            71 z         1.00000
          22                72 y            72 z         1.00000
          23                85 y            85 z         1.00000
          24                88 y            88 z         1.00000
          25                89 y            89 z         1.00000
          26                91 y            91 z         1.00000
          27                92 y            92 z         1.00000
          28                99 y            99 z         1.00000
          29               102 y           102 z         1.00000
          30               103 y           103 z         1.00000
          31               104 y           104 z         1.00000
          32               105 y           105 z         1.00000
          33               108 y           108 z         1.00000
          34               109 y           109 z         1.00000
--------------------------------------------------------------------------------


  Components of defect energy : 

--------------------------------------------------------------------------------
  Region 1 - region 1                   =     34.43381979 eV
  Region 1 - region 2a (unrelaxed)      =    -26.10686071 eV
  Region 1 - 2a (relaxed - correction)  =     -0.24999599 eV
  Region 1 (Total)                      =      8.07696309 eV
  Region 2a                             =      0.12504340 eV
  Region 2b                             =     -0.41818626 eV
--------------------------------------------------------------------------------
  Total defect energy                   =      7.78382022 eV
--------------------------------------------------------------------------------

  Largest displacement in region 2 =   0.0204 Angstroms


  Number of variables =      271

  Maximum number of calculations  =        1000
  Maximum Hessian update interval =          10
  Maximum step size               =   1.0000000
  Maximum parameter tolerance     =   0.0000100
  Maximum function  tolerance     =   0.0000100
  Maximum gradient  tolerance     =   0.0010000

  Symmetry adapted optimisation

  Symmetry to be used for second derivatives

  Newton-Raphson optimiser to be used

  BFGS hessian update to be used

  Lower half triangular hessian to be used

  Start of defect optimisation :

  Cycle:      0 Defect Energy:   7.783820  Gnorm:     0.103213  CPU:    1.864
  ** Hessian calculated **
  Cycle:      1 Defect Energy:   5.228255  Gnorm:     0.007354  CPU:    3.863
  Cycle:      2 Defect Energy:   5.216382  Gnorm:     0.005154  CPU:    4.253
  Cycle:      3 Defect Energy:   5.210403  Gnorm:     0.003334  CPU:    4.632
  Cycle:      4 Defect Energy:   5.207641  Gnorm:     0.002204  CPU:    5.007
  Cycle:      5 Defect Energy:   5.206671  Gnorm:     0.001486  CPU:    5.389
  Cycle:      6 Defect Energy:   5.206297  Gnorm:     0.001036  CPU:    5.765
  Cycle:      7 Defect Energy:   5.206149  Gnorm:     0.000725  CPU:    6.127
  Cycle:      8 Defect Energy:   5.206103  Gnorm:     0.000507  CPU:    6.499
  Cycle:      9 Defect Energy:   5.206096  Gnorm:     0.000356  CPU:    6.832
  Cycle:     10 Defect Energy:   5.206105  Gnorm:     0.000249  CPU:    7.123
  ** Hessian calculated **
  Cycle:     11 Defect Energy:   5.206117  Gnorm:     0.000174  CPU:    7.740
  Cycle:     12 Defect Energy:   5.206129  Gnorm:     0.000123  CPU:    7.941


  **** Optimisation achieved ****


  Final defect energy  =        5.20613879
  Final defect Gnorm   =        0.00008520

  Components of defect energy : 

--------------------------------------------------------------------------------
  Region 1 - region 1                   =     29.19197429 eV
  Region 1 - region 2a (unrelaxed)      =    -23.48059044 eV
  Region 1 - 2a (relaxed - correction)  =     -0.18582972 eV
  Region 1 (Total)                      =      5.52555413 eV
  Region 2a                             =      0.09288080 eV
  Region 2b                             =     -0.41229614 eV
--------------------------------------------------------------------------------
  Total defect energy                   =      5.20613879 eV
--------------------------------------------------------------------------------

  Largest displacement in region 2 =   0.0204 Angstroms

  Final coordinates of region 1 :

--------------------------------------------------------------------------------
   No.  Atomic        x           y           z          Radius      Charge
        Label       (Angs)      (Angs)      (Angs)       (Angs)       (e) 
--------------------------------------------------------------------------------
     1  Na    c     2.325093   -2.339964    0.000000    0.000000    1.000000
     2  Na    c     2.325093    2.339964    0.000000    0.000000    1.000000
     3  Na    c     2.325093    0.000000   -2.339964    0.000000    1.000000
     4  Na    c     2.325093    0.000000    2.339964    0.000000    1.000000
     5  Cl    c     4.504000    0.000000    0.000000    0.000000    1.485000
     6  O     c     2.191890   -2.176451   -2.176451    0.000000    0.183000
     7  O     c     2.191890   -2.176451    2.176451    0.000000    0.183000
     8  O     c     2.191890    2.176451   -2.176451    0.000000    0.183000
     9  O     c     2.191890    2.176451    2.176451    0.000000    0.183000
    10  Na    c     4.430391   -2.215079   -2.215079    0.000000    1.000000
    11  Na    c     4.430391   -2.215079    2.215079    0.000000    1.000000
    12  Na    c     4.430391    2.215079   -2.215079    0.000000    1.000000
    13  Na    c     4.430391    2.215079    2.215079    0.000000    1.000000
    14  Na    c     0.006924   -2.324092   -2.324092    0.000000    1.000000
    15  Na    c     0.006924   -2.324092    2.324092    0.000000    1.000000
    16  Na    c     0.006924    2.324092   -2.324092    0.000000    1.000000
    17  Na    c     0.006924    2.324092    2.324092    0.000000    1.000000
    18  Na    c     6.635694   -2.194451    0.000000    0.000000    1.000000
    19  Na    c     6.635694    2.194451    0.000000    0.000000    1.000000
    20  Na    c     6.635694    0.000000   -2.194451    0.000000    1.000000
    21  Na    c     6.635694    0.000000    2.194451    0.000000    1.000000
    22  Cl    c     4.374568    0.000000    4.378999    0.000000    1.485000
    23  Cl    c     4.374568    0.000000   -4.378999    0.000000    1.485000
    24  Cl    c     4.374568    4.378999    0.000000    0.000000    1.485000
    25  Cl    c     4.374568   -4.378999    0.000000    0.000000    1.485000
    26  Na    c     2.233707   -2.223778    4.416605    0.000000    1.000000
    27  Na    c     2.233707   -2.223778   -4.416605    0.000000    1.000000
    28  Na    c     2.233707    2.223778    4.416605    0.000000    1.000000
    29  Na    c     2.233707    2.223778   -4.416605    0.000000    1.000000
    30  Na    c     2.233707    4.416605   -2.223778    0.000000    1.000000
    31  Na    c     2.233707    4.416605    2.223778    0.000000    1.000000
    32  Na    c     2.233707   -4.416605   -2.223778    0.000000    1.000000
    33  Na    c     2.233707   -4.416605    2.223778    0.000000    1.000000
    34  Cl    c     0.003684    0.000000    4.340380    0.000000    1.485000
    35  Cl    c     0.003684    0.000000   -4.340380    0.000000    1.485000
    36  Cl    c     0.003684    4.340380    0.000000    0.000000    1.485000
    37  Cl    c     0.003684   -4.340380    0.000000    0.000000    1.485000
    38  Na    c    -2.313827   -2.326424    0.000000    0.000000    1.000000
    39  Na    c    -2.313827    2.326424    0.000000    0.000000    1.000000
    40  Na    c    -2.313827    0.000000   -2.326424    0.000000    1.000000
    41  Na    c    -2.313827    0.000000    2.326424    0.000000    1.000000
    42  O     c     6.617860   -2.207038   -2.207038    0.000000    0.183000
    43  O     c     6.617860   -2.207038    2.207038    0.000000    0.183000
    44  O     c     6.617860    2.207038   -2.207038    0.000000    0.183000
    45  O     c     6.617860    2.207038    2.207038    0.000000    0.183000
    46  O     c    -2.177470   -2.181879   -2.181879    0.000000    0.183000
    47  O     c    -2.177470   -2.181879    2.181879    0.000000    0.183000
    48  O     c    -2.177470    2.181879   -2.181879    0.000000    0.183000
    49  O     c    -2.177470    2.181879    2.181879    0.000000    0.183000
    50  Cl    c     8.810176    0.000000    0.000000    0.000000    1.485000
    51  Na    c     6.635670    4.409773   -2.207870    0.000000    1.000000
    52  Na    c     6.635670    4.409773    2.207870    0.000000    1.000000
    53  Na    c     6.635670   -4.409773   -2.207870    0.000000    1.000000
    54  Na    c     6.635670   -4.409773    2.207870    0.000000    1.000000
    55  Na    c     6.635670   -2.207870    4.409773    0.000000    1.000000
    56  Na    c     6.635670   -2.207870   -4.409773    0.000000    1.000000
    57  Na    c     6.635670    2.207870    4.409773    0.000000    1.000000
    58  Na    c     6.635670    2.207870   -4.409773    0.000000    1.000000
    59  Cl    c     4.370308    4.378036    4.378036    0.000000    1.485000
    60  Cl    c     4.370308    4.378036   -4.378036    0.000000    1.485000
    61  Cl    c     4.370308   -4.378036    4.378036    0.000000    1.485000
    62  Cl    c     4.370308   -4.378036   -4.378036    0.000000    1.485000
    63  Na    c     2.209710    6.628990    0.000000    0.000000    1.000000
    64  Na    c     2.209710   -6.628990    0.000000    0.000000    1.000000
    65  Na    c     2.209710    0.000000    6.628990    0.000000    1.000000
    66  Na    c     2.209710    0.000000   -6.628990    0.000000    1.000000
    67  Cl    c     0.002780    4.375917    4.375917    0.000000    1.485000
    68  Cl    c     0.002780    4.375917   -4.375917    0.000000    1.485000
    69  Cl    c     0.002780   -4.375917    4.375917    0.000000    1.485000
    70  Cl    c     0.002780   -4.375917   -4.375917    0.000000    1.485000
    71  Na    c    -2.217201   -2.223765    4.416350    0.000000    1.000000
    72  Na    c    -2.217201   -2.223765   -4.416350    0.000000    1.000000
    73  Na    c    -2.217201    2.223765    4.416350    0.000000    1.000000
    74  Na    c    -2.217201    2.223765   -4.416350    0.000000    1.000000
    75  Na    c    -2.217201    4.416350   -2.223765    0.000000    1.000000
    76  Na    c    -2.217201    4.416350    2.223765    0.000000    1.000000
    77  Na    c    -2.217201   -4.416350   -2.223765    0.000000    1.000000
    78  Na    c    -2.217201   -4.416350    2.223765    0.000000    1.000000
    79  Cl    c    -4.346415    0.000000    0.000000    0.000000    1.485000
    80  O     c     2.203817   -2.202875    6.607394    0.000000    0.183000
    81  O     c     2.203817   -2.202875   -6.607394    0.000000    0.183000
    82  O     c     2.203817    2.202875    6.607394    0.000000    0.183000
    83  O     c     2.203817    2.202875   -6.607394    0.000000    0.183000
    84  O     c     2.203817    6.607394   -2.202875    0.000000    0.183000
    85  O     c     2.203817    6.607394    2.202875    0.000000    0.183000
    86  O     c     2.203817   -6.607394   -2.202875    0.000000    0.183000
    87  O     c     2.203817   -6.607394    2.202875    0.000000    0.183000
    88  Na    c     8.822496   -2.205267   -2.205267    0.000000    1.000000
    89  Na    c     8.822496   -2.205267    2.205267    0.000000    1.000000
    90  Na    c     8.822496    2.205267   -2.205267    0.000000    1.000000
    91  Na    c     8.822496    2.205267    2.205267    0.000000    1.000000
    92  Na    c     4.411176   -2.205852    6.629498    0.000000    1.000000
    93  Na    c     4.411176   -2.205852   -6.629498    0.000000    1.000000
    94  Na    c     4.411176    2.205852    6.629498    0.000000    1.000000
    95  Na    c     4.411176    2.205852   -6.629498    0.000000    1.000000
    96  Na    c     4.411176    6.629498   -2.205852    0.000000    1.000000
    97  Na    c     4.411176    6.629498    2.205852    0.000000    1.000000
    98  Na    c     4.411176   -6.629498   -2.205852    0.000000    1.000000
    99  Na    c     4.411176   -6.629498    2.205852    0.000000    1.000000
   100  Na    c     0.003663    6.622310   -2.205917    0.000000    1.000000
   101  Na    c     0.003663    6.622310    2.205917    0.000000    1.000000
   102  Na    c     0.003663   -6.622310   -2.205917    0.000000    1.000000
   103  Na    c     0.003663   -6.622310    2.205917    0.000000    1.000000
   104  Na    c     0.003663   -2.205917    6.622310    0.000000    1.000000
   105  Na    c     0.003663   -2.205917   -6.622310    0.000000    1.000000
   106  Na    c     0.003663    2.205917    6.622310    0.000000    1.000000
   107  Na    c     0.003663    2.205917   -6.622310    0.000000    1.000000
   108  Na    c    -4.413091   -2.214637   -2.214637    0.000000    1.000000
   109  Na    c    -4.413091   -2.214637    2.214637    0.000000    1.000000
   110  Na    c    -4.413091    2.214637   -2.214637    0.000000    1.000000
   111  Na    c    -4.413091    2.214637    2.214637    0.000000    1.000000
   112  Cl    c     8.797336    0.000000    4.404213    0.000000    1.485000
   113  Cl    c     8.797336    0.000000   -4.404213    0.000000    1.485000
   114  Cl    c     8.797336    4.404213    0.000000    0.000000    1.485000
   115  Cl    c     8.797336   -4.404213    0.000000    0.000000    1.485000
   116  Na    c     6.631503    6.620584    0.000000    0.000000    1.000000
   117  Na    c     6.631503   -6.620584    0.000000    0.000000    1.000000
   118  Na    c     6.631503    0.000000    6.620584    0.000000    1.000000
   119  Na    c     6.631503    0.000000   -6.620584    0.000000    1.000000
   120  Na    c     2.212487    6.628933    4.410267    0.000000    1.000000
   121  Na    c     2.212487    6.628933   -4.410267    0.000000    1.000000
   122  Na    c     2.212487   -6.628933    4.410267    0.000000    1.000000
   123  Na    c     2.212487   -6.628933   -4.410267    0.000000    1.000000
   124  Na    c     2.212487    4.410267    6.628933    0.000000    1.000000
   125  Na    c     2.212487    4.410267   -6.628933    0.000000    1.000000
   126  Na    c     2.212487   -4.410267    6.628933    0.000000    1.000000
   127  Na    c     2.212487   -4.410267   -6.628933    0.000000    1.000000
   128  Na    c    -2.204535    6.622725    0.000000    0.000000    1.000000
   129  Na    c    -2.204535   -6.622725    0.000000    0.000000    1.000000
   130  Na    c    -2.204535    0.000000    6.622725    0.000000    1.000000
   131  Na    c    -2.204535    0.000000   -6.622725    0.000000    1.000000
   132  Cl    c    -4.376291    0.000000    4.374907    0.000000    1.485000
   133  Cl    c    -4.376291    0.000000   -4.374907    0.000000    1.485000
   134  Cl    c    -4.376291    4.374907    0.000000    0.000000    1.485000
   135  Cl    c    -4.376291   -4.374907    0.000000    0.000000    1.485000
   136  O     c     6.607463   -2.201762    6.608350    0.000000    0.183000
   137  O     c     6.607463   -2.201762   -6.608350    0.000000    0.183000
   138  O     c     6.607463    2.201762    6.608350    0.000000    0.183000
   139  O     c     6.607463    2.201762   -6.608350    0.000000    0.183000
   140  O     c     6.607463    6.608350   -2.201762    0.000000    0.183000
   141  O     c     6.607463    6.608350    2.201762    0.000000    0.183000
   142  O     c     6.607463   -6.608350   -2.201762    0.000000    0.183000
   143  O     c     6.607463   -6.608350    2.201762    0.000000    0.183000
   144  O     c    -2.199114   -2.202196    6.606263    0.000000    0.183000
   145  O     c    -2.199114   -2.202196   -6.606263    0.000000    0.183000
   146  O     c    -2.199114    2.202196    6.606263    0.000000    0.183000
   147  O     c    -2.199114    2.202196   -6.606263    0.000000    0.183000
   148  O     c    -2.199114    6.606263   -2.202196    0.000000    0.183000
   149  O     c    -2.199114    6.606263    2.202196    0.000000    0.183000
   150  O     c    -2.199114   -6.606263   -2.202196    0.000000    0.183000
   151  O     c    -2.199114   -6.606263    2.202196    0.000000    0.183000
   152  Na    c    11.031663   -2.203307    0.000000    0.000000    1.000000
   153  Na    c    11.031663    2.203307    0.000000    0.000000    1.000000
   154  Na    c    11.031663    0.000000   -2.203307    0.000000    1.000000
   155  Na    c    11.031663    0.000000    2.203307    0.000000    1.000000
   156  Cl    c     8.797333    4.403696    4.403696    0.000000    1.485000
   157  Cl    c     8.797333    4.403696   -4.403696    0.000000    1.485000
   158  Cl    c     8.797333   -4.403696    4.403696    0.000000    1.485000
   159  Cl    c     8.797333   -4.403696   -4.403696    0.000000    1.485000
   160  Na    c     6.620302    6.622997    4.407589    0.000000    1.000000
   161  Na    c     6.620302    6.622997   -4.407589    0.000000    1.000000
   162  Na    c     6.620302   -6.622997    4.407589    0.000000    1.000000
   163  Na    c     6.620302   -6.622997   -4.407589    0.000000    1.000000
   164  Na    c     6.620302    4.407589    6.622997    0.000000    1.000000
   165  Na    c     6.620302    4.407589   -6.622997    0.000000    1.000000
   166  Na    c     6.620302   -4.407589    6.622997    0.000000    1.000000
   167  Na    c     6.620302   -4.407589   -6.622997    0.000000    1.000000
   168  Cl    c     4.396931    0.000000    8.798854    0.000000    1.485000
   169  Cl    c     4.396931    0.000000   -8.798854    0.000000    1.485000
   170  Cl    c     4.396931    8.798854    0.000000    0.000000    1.485000
   171  Cl    c     4.396931   -8.798854    0.000000    0.000000    1.485000
   172  Na    c     2.206196   -2.207994    8.817056    0.000000    1.000000
   173  Na    c     2.206196   -2.207994   -8.817056    0.000000    1.000000
   174  Na    c     2.206196    2.207994    8.817056    0.000000    1.000000
   175  Na    c     2.206196    2.207994   -8.817056    0.000000    1.000000
   176  Na    c     2.206196    8.817056   -2.207994    0.000000    1.000000
   177  Na    c     2.206196    8.817056    2.207994    0.000000    1.000000
   178  Na    c     2.206196   -8.817056   -2.207994    0.000000    1.000000
   179  Na    c     2.206196   -8.817056    2.207994    0.000000    1.000000
   180  Cl    c    -0.003535    0.000000    8.792433    0.000000    1.485000
   181  Cl    c    -0.003535    0.000000   -8.792433    0.000000    1.485000
   182  Cl    c    -0.003535    8.792433    0.000000    0.000000    1.485000
   183  Cl    c    -0.003535   -8.792433    0.000000    0.000000    1.485000
   184  Na    c    -2.202742    6.633729    4.410249    0.000000    1.000000
   185  Na    c    -2.202742    6.633729   -4.410249    0.000000    1.000000
   186  Na    c    -2.202742   -6.633729    4.410249    0.000000    1.000000
   187  Na    c    -2.202742   -6.633729   -4.410249    0.000000    1.000000
   188  Na    c    -2.202742    4.410249    6.633729    0.000000    1.000000
   189  Na    c    -2.202742    4.410249   -6.633729    0.000000    1.000000
   190  Na    c    -2.202742   -4.410249    6.633729    0.000000    1.000000
   191  Na    c    -2.202742   -4.410249   -6.633729    0.000000    1.000000
   192  Cl    c    -4.378027    4.376414    4.376414    0.000000    1.485000
   193  Cl    c    -4.378027    4.376414   -4.376414    0.000000    1.485000
   194  Cl    c    -4.378027   -4.376414    4.376414    0.000000    1.485000
   195  Cl    c    -4.378027   -4.376414   -4.376414    0.000000    1.485000
   196  Na    c    -6.628090   -2.205960    0.000000    0.000000    1.000000
   197  Na    c    -6.628090    2.205960    0.000000    0.000000    1.000000
   198  Na    c    -6.628090    0.000000   -2.205960    0.000000    1.000000
   199  Na    c    -6.628090    0.000000    2.205960    0.000000    1.000000
   200  O     c    11.017465   -2.204166   -2.204166    0.000000    0.183000
   201  O     c    11.017465   -2.204166    2.204166    0.000000    0.183000
   202  O     c    11.017465    2.204166   -2.204166    0.000000    0.183000
   203  O     c    11.017465    2.204166    2.204166    0.000000    0.183000
   204  O     c     2.202182    6.610443    6.610443    0.000000    0.183000
   205  O     c     2.202182    6.610443   -6.610443    0.000000    0.183000
   206  O     c     2.202182   -6.610443    6.610443    0.000000    0.183000
   207  O     c     2.202182   -6.610443   -6.610443    0.000000    0.183000
   208  O     c    -6.606270   -2.202700   -2.202700    0.000000    0.183000
   209  O     c    -6.606270   -2.202700    2.202700    0.000000    0.183000
   210  O     c    -6.606270    2.202700   -2.202700    0.000000    0.183000
   211  O     c    -6.606270    2.202700    2.202700    0.000000    0.183000
   212  Na    c     8.815639   -2.211146    6.614166    0.000000    1.000000
   213  Na    c     8.815639   -2.211146   -6.614166    0.000000    1.000000
   214  Na    c     8.815639    2.211146    6.614166    0.000000    1.000000
   215  Na    c     8.815639    2.211146   -6.614166    0.000000    1.000000
   216  Na    c     8.815639    6.614166   -2.211146    0.000000    1.000000
   217  Na    c     8.815639    6.614166    2.211146    0.000000    1.000000
   218  Na    c     8.815639   -6.614166   -2.211146    0.000000    1.000000
   219  Na    c     8.815639   -6.614166    2.211146    0.000000    1.000000
   220  Na    c     4.408354    6.620468    6.620468    0.000000    1.000000
   221  Na    c     4.408354    6.620468   -6.620468    0.000000    1.000000
   222  Na    c     4.408354   -6.620468    6.620468    0.000000    1.000000
   223  Na    c     4.408354   -6.620468   -6.620468    0.000000    1.000000
   224  Na    c     0.001559    6.624958    6.624958    0.000000    1.000000
   225  Na    c     0.001559    6.624958   -6.624958    0.000000    1.000000
   226  Na    c     0.001559   -6.624958    6.624958    0.000000    1.000000
   227  Na    c     0.001559   -6.624958   -6.624958    0.000000    1.000000
   228  Na    c    -4.404816   -2.214198    6.628372    0.000000    1.000000
   229  Na    c    -4.404816   -2.214198   -6.628372    0.000000    1.000000
   230  Na    c    -4.404816    2.214198    6.628372    0.000000    1.000000
   231  Na    c    -4.404816    2.214198   -6.628372    0.000000    1.000000
   232  Na    c    -4.404816    6.628372   -2.214198    0.000000    1.000000
   233  Na    c    -4.404816    6.628372    2.214198    0.000000    1.000000
   234  Na    c    -4.404816   -6.628372   -2.214198    0.000000    1.000000
   235  Na    c    -4.404816   -6.628372    2.214198    0.000000    1.000000
   236  Na    c    11.023605    4.407078   -2.202148    0.000000    1.000000
   237  Na    c    11.023605    4.407078    2.202148    0.000000    1.000000
   238  Na    c    11.023605   -4.407078   -2.202148    0.000000    1.000000
   239  Na    c    11.023605   -4.407078    2.202148    0.000000    1.000000
   240  Na    c    11.023605   -2.202148    4.407078    0.000000    1.000000
   241  Na    c    11.023605   -2.202148   -4.407078    0.000000    1.000000
   242  Na    c    11.023605    2.202148    4.407078    0.000000    1.000000
   243  Na    c    11.023605    2.202148   -4.407078    0.000000    1.000000
   244  Na    c     6.616969   -2.199650    8.815581    0.000000    1.000000
   245  Na    c     6.616969   -2.199650   -8.815581    0.000000    1.000000
   246  Na    c     6.616969    2.199650    8.815581    0.000000    1.000000
   247  Na    c     6.616969    2.199650   -8.815581    0.000000    1.000000
   248  Na    c     6.616969    8.815581   -2.199650    0.000000    1.000000
   249  Na    c     6.616969    8.815581    2.199650    0.000000    1.000000
   250  Na    c     6.616969   -8.815581   -2.199650    0.000000    1.000000
   251  Na    c     6.616969   -8.815581    2.199650    0.000000    1.000000
   252  Cl    c     4.396900    4.401946    8.798947    0.000000    1.485000
   253  Cl    c     4.396900    4.401946   -8.798947    0.000000    1.485000
   254  Cl    c     4.396900    8.798947    4.401946    0.000000    1.485000
   255  Cl    c     4.396900    8.798947   -4.401946    0.000000    1.485000
   256  Cl    c     4.396900   -4.401946    8.798947    0.000000    1.485000
   257  Cl    c     4.396900   -4.401946   -8.798947    0.000000    1.485000
   258  Cl    c     4.396900   -8.798947    4.401946    0.000000    1.485000
   259  Cl    c     4.396900   -8.798947   -4.401946    0.000000    1.485000
   260  Cl    c    -0.003435    4.402048    8.796089    0.000000    1.485000
   261  Cl    c    -0.003435    4.402048   -8.796089    0.000000    1.485000
   262  Cl    c    -0.003435    8.796089    4.402048    0.000000    1.485000
   263  Cl    c    -0.003435    8.796089   -4.402048    0.000000    1.485000
   264  Cl    c    -0.003435   -4.402048    8.796089    0.000000    1.485000
   265  Cl    c    -0.003435   -4.402048   -8.796089    0.000000    1.485000
   266  Cl    c    -0.003435   -8.796089    4.402048    0.000000    1.485000
   267  Cl    c    -0.003435   -8.796089   -4.402048    0.000000    1.485000
   268  Na    c    -2.194411   -2.197196    8.816030    0.000000    1.000000
   269  Na    c    -2.194411   -2.197196   -8.816030    0.000000    1.000000
   270  Na    c    -2.194411    2.197196    8.816030    0.000000    1.000000
   271  Na    c    -2.194411    2.197196   -8.816030    0.000000    1.000000
   272  Na    c    -2.194411    8.816030   -2.197196    0.000000    1.000000
   273  Na    c    -2.194411    8.816030    2.197196    0.000000    1.000000
   274  Na    c    -2.194411   -8.816030   -2.197196    0.000000    1.000000
   275  Na    c    -2.194411   -8.816030    2.197196    0.000000    1.000000
   276  Na    c    -6.616628   -2.206354    4.408046    0.000000    1.000000
   277  Na    c    -6.616628   -2.206354   -4.408046    0.000000    1.000000
   278  Na    c    -6.616628    2.206354    4.408046    0.000000    1.000000
   279  Na    c    -6.616628    2.206354   -4.408046    0.000000    1.000000
   280  Na    c    -6.616628    4.408046   -2.206354    0.000000    1.000000
   281  Na    c    -6.616628    4.408046    2.206354    0.000000    1.000000
   282  Na    c    -6.616628   -4.408046   -2.206354    0.000000    1.000000
   283  Na    c    -6.616628   -4.408046    2.206354    0.000000    1.000000
   284  O     c     6.606219    6.608702    6.608702    0.000000    0.183000
   285  O     c     6.606219    6.608702   -6.608702    0.000000    0.183000
   286  O     c     6.606219   -6.608702    6.608702    0.000000    0.183000
   287  O     c     6.606219   -6.608702   -6.608702    0.000000    0.183000
   288  O     c    -2.201122    6.610438    6.610438    0.000000    0.183000
   289  O     c    -2.201122    6.610438   -6.610438    0.000000    0.183000
   290  O     c    -2.201122   -6.610438    6.610438    0.000000    0.183000
   291  O     c    -2.201122   -6.610438   -6.610438    0.000000    0.183000
   292  Cl    c    13.204694    0.000000    0.000000    0.000000    1.485000
   293  Na    c    11.021184    6.610721    0.000000    0.000000    1.000000
   294  Na    c    11.021184   -6.610721    0.000000    0.000000    1.000000
   295  Na    c    11.021184    0.000000    6.610721    0.000000    1.000000
   296  Na    c    11.021184    0.000000   -6.610721    0.000000    1.000000
   297  Cl    c     8.799936    0.000000    8.803977    0.000000    1.485000
   298  Cl    c     8.799936    0.000000   -8.803977    0.000000    1.485000
   299  Cl    c     8.799936    8.803977    0.000000    0.000000    1.485000
   300  Cl    c     8.799936   -8.803977    0.000000    0.000000    1.485000
   301  Na    c     2.207415    6.616095    8.817538    0.000000    1.000000
   302  Na    c     2.207415    6.616095   -8.817538    0.000000    1.000000
   303  Na    c     2.207415   -6.616095    8.817538    0.000000    1.000000
   304  Na    c     2.207415   -6.616095   -8.817538    0.000000    1.000000
   305  Na    c     2.207415    8.817538    6.616095    0.000000    1.000000
   306  Na    c     2.207415    8.817538   -6.616095    0.000000    1.000000
   307  Na    c     2.207415   -8.817538    6.616095    0.000000    1.000000
   308  Na    c     2.207415   -8.817538   -6.616095    0.000000    1.000000
   309  Na    c     2.205725   11.021717    0.000000    0.000000    1.000000
   310  Na    c     2.205725  -11.021717    0.000000    0.000000    1.000000
   311  Na    c     2.205725    0.000000   11.021717    0.000000    1.000000
   312  Na    c     2.205725    0.000000  -11.021717    0.000000    1.000000
   313  Cl    c    -4.402092    0.000000    8.793821    0.000000    1.485000
   314  Cl    c    -4.402092    0.000000   -8.793821    0.000000    1.485000
   315  Cl    c    -4.402092    8.793821    0.000000    0.000000    1.485000
   316  Cl    c    -4.402092   -8.793821    0.000000    0.000000    1.485000
   317  Na    c    -6.616270    6.621086    0.000000    0.000000    1.000000
   318  Na    c    -6.616270   -6.621086    0.000000    0.000000    1.000000
   319  Na    c    -6.616270    0.000000    6.621086    0.000000    1.000000
   320  Na    c    -6.616270    0.000000   -6.621086    0.000000    1.000000
   321  Cl    c    -8.790529    0.000000    0.000000    0.000000    1.485000
   322  O     c    11.012723   -2.203528    6.607751    0.000000    0.183000
   323  O     c    11.012723   -2.203528   -6.607751    0.000000    0.183000
   324  O     c    11.012723    2.203528    6.607751    0.000000    0.183000
   325  O     c    11.012723    2.203528   -6.607751    0.000000    0.183000
   326  O     c    11.012723    6.607751   -2.203528    0.000000    0.183000
   327  O     c    11.012723    6.607751    2.203528    0.000000    0.183000
   328  O     c    11.012723   -6.607751   -2.203528    0.000000    0.183000
   329  O     c    11.012723   -6.607751    2.203528    0.000000    0.183000
   330  O     c     2.202082   -2.203089   11.014080    0.000000    0.183000
   331  O     c     2.202082   -2.203089  -11.014080    0.000000    0.183000
   332  O     c     2.202082    2.203089   11.014080    0.000000    0.183000
   333  O     c     2.202082    2.203089  -11.014080    0.000000    0.183000
   334  O     c     2.202082   11.014080   -2.203089    0.000000    0.183000
   335  O     c     2.202082   11.014080    2.203089    0.000000    0.183000
   336  O     c     2.202082  -11.014080   -2.203089    0.000000    0.183000
   337  O     c     2.202082  -11.014080    2.203089    0.000000    0.183000
   338  O     c    -6.605071    6.605439   -2.202316    0.000000    0.183000
   339  O     c    -6.605071    6.605439    2.202316    0.000000    0.183000
   340  O     c    -6.605071   -6.605439   -2.202316    0.000000    0.183000
   341  O     c    -6.605071   -6.605439    2.202316    0.000000    0.183000
   342  O     c    -6.605071   -2.202316    6.605439    0.000000    0.183000
   343  O     c    -6.605071   -2.202316   -6.605439    0.000000    0.183000
   344  O     c    -6.605071    2.202316    6.605439    0.000000    0.183000
   345  O     c    -6.605071    2.202316   -6.605439    0.000000    0.183000
   346  Na    c    13.222425   -2.206998   -2.206998    0.000000    1.000000
   347  Na    c    13.222425   -2.206998    2.206998    0.000000    1.000000
   348  Na    c    13.222425    2.206998   -2.206998    0.000000    1.000000
   349  Na    c    13.222425    2.206998    2.206998    0.000000    1.000000
   350  Na    c     8.815187    6.608545    6.608545    0.000000    1.000000
   351  Na    c     8.815187    6.608545   -6.608545    0.000000    1.000000
   352  Na    c     8.815187   -6.608545    6.608545    0.000000    1.000000
   353  Na    c     8.815187   -6.608545   -6.608545    0.000000    1.000000
   354  Na    c     4.407776   -2.203256   11.025873    0.000000    1.000000
   355  Na    c     4.407776   -2.203256  -11.025873    0.000000    1.000000
   356  Na    c     4.407776    2.203256   11.025873    0.000000    1.000000
   357  Na    c     4.407776    2.203256  -11.025873    0.000000    1.000000
   358  Na    c     4.407776   11.025873   -2.203256    0.000000    1.000000
   359  Na    c     4.407776   11.025873    2.203256    0.000000    1.000000
   360  Na    c     4.407776  -11.025873   -2.203256    0.000000    1.000000
   361  Na    c     4.407776  -11.025873    2.203256    0.000000    1.000000
   362  Na    c     0.000342   -2.207545   11.029753    0.000000    1.000000
   363  Na    c     0.000342   -2.207545  -11.029753    0.000000    1.000000
   364  Na    c     0.000342    2.207545   11.029753    0.000000    1.000000
   365  Na    c     0.000342    2.207545  -11.029753    0.000000    1.000000
   366  Na    c     0.000342   11.029753   -2.207545    0.000000    1.000000
   367  Na    c     0.000342   11.029753    2.207545    0.000000    1.000000
   368  Na    c     0.000342  -11.029753   -2.207545    0.000000    1.000000
   369  Na    c     0.000342  -11.029753    2.207545    0.000000    1.000000
   370  Na    c    -4.406757    6.616942    6.616942    0.000000    1.000000
   371  Na    c    -4.406757    6.616942   -6.616942    0.000000    1.000000
   372  Na    c    -4.406757   -6.616942    6.616942    0.000000    1.000000
   373  Na    c    -4.406757   -6.616942   -6.616942    0.000000    1.000000
   374  Na    c    -8.815324   -2.207844   -2.207844    0.000000    1.000000
   375  Na    c    -8.815324   -2.207844    2.207844    0.000000    1.000000
   376  Na    c    -8.815324    2.207844   -2.207844    0.000000    1.000000
   377  Na    c    -8.815324    2.207844    2.207844    0.000000    1.000000
   378  Cl    c    13.199671    0.000000    4.401793    0.000000    1.485000
   379  Cl    c    13.199671    0.000000   -4.401793    0.000000    1.485000
   380  Cl    c    13.199671    4.401793    0.000000    0.000000    1.485000
   381  Cl    c    13.199671   -4.401793    0.000000    0.000000    1.485000
   382  Na    c    11.029031    6.614879    4.407530    0.000000    1.000000
   383  Na    c    11.029031    6.614879   -4.407530    0.000000    1.000000
   384  Na    c    11.029031   -6.614879    4.407530    0.000000    1.000000
   385  Na    c    11.029031   -6.614879   -4.407530    0.000000    1.000000
   386  Na    c    11.029031    4.407530    6.614879    0.000000    1.000000
   387  Na    c    11.029031    4.407530   -6.614879    0.000000    1.000000
   388  Na    c    11.029031   -4.407530    6.614879    0.000000    1.000000
   389  Na    c    11.029031   -4.407530   -6.614879    0.000000    1.000000
   390  Cl    c     8.798752    4.399884    8.798048    0.000000    1.485000
   391  Cl    c     8.798752    4.399884   -8.798048    0.000000    1.485000
   392  Cl    c     8.798752    8.798048    4.399884    0.000000    1.485000
   393  Cl    c     8.798752    8.798048   -4.399884    0.000000    1.485000
   394  Cl    c     8.798752   -4.399884    8.798048    0.000000    1.485000
   395  Cl    c     8.798752   -4.399884   -8.798048    0.000000    1.485000
   396  Cl    c     8.798752   -8.798048    4.399884    0.000000    1.485000
   397  Cl    c     8.798752   -8.798048   -4.399884    0.000000    1.485000
   398  Na    c     6.618687   11.032162    0.000000    0.000000    1.000000
   399  Na    c     6.618687  -11.032162    0.000000    0.000000    1.000000
   400  Na    c     6.618687    0.000000   11.032162    0.000000    1.000000
   401  Na    c     6.618687    0.000000  -11.032162    0.000000    1.000000
   402  Na    c     6.619057    6.618608    8.815680    0.000000    1.000000
   403  Na    c     6.619057    6.618608   -8.815680    0.000000    1.000000
   404  Na    c     6.619057   -6.618608    8.815680    0.000000    1.000000
   405  Na    c     6.619057   -6.618608   -8.815680    0.000000    1.000000
   406  Na    c     6.619057    8.815680    6.618608    0.000000    1.000000
   407  Na    c     6.619057    8.815680   -6.618608    0.000000    1.000000
   408  Na    c     6.619057   -8.815680    6.618608    0.000000    1.000000
   409  Na    c     6.619057   -8.815680   -6.618608    0.000000    1.000000
   410  Na    c     2.207382   11.031528    4.408224    0.000000    1.000000
   411  Na    c     2.207382   11.031528   -4.408224    0.000000    1.000000
   412  Na    c     2.207382  -11.031528    4.408224    0.000000    1.000000
   413  Na    c     2.207382  -11.031528   -4.408224    0.000000    1.000000
   414  Na    c     2.207382    4.408224   11.031528    0.000000    1.000000
   415  Na    c     2.207382    4.408224  -11.031528    0.000000    1.000000
   416  Na    c     2.207382   -4.408224   11.031528    0.000000    1.000000
   417  Na    c     2.207382   -4.408224  -11.031528    0.000000    1.000000
   418  Na    c    -2.206030   11.035319    0.000000    0.000000    1.000000
   419  Na    c    -2.206030  -11.035319    0.000000    0.000000    1.000000
   420  Na    c    -2.206030    0.000000   11.035319    0.000000    1.000000
   421  Na    c    -2.206030    0.000000  -11.035319    0.000000    1.000000
   422  Na    c    -2.205502    8.817560    6.620755    0.000000    1.000000
   423  Na    c    -2.205502    8.817560   -6.620755    0.000000    1.000000
   424  Na    c    -2.205502   -8.817560    6.620755    0.000000    1.000000
   425  Na    c    -2.205502   -8.817560   -6.620755    0.000000    1.000000
   426  Na    c    -2.205502    6.620755    8.817560    0.000000    1.000000
   427  Na    c    -2.205502    6.620755   -8.817560    0.000000    1.000000
   428  Na    c    -2.205502   -6.620755    8.817560    0.000000    1.000000
   429  Na    c    -2.205502   -6.620755   -8.817560    0.000000    1.000000
   430  Cl    c    -4.400177    4.398774    8.790502    0.000000    1.485000
   431  Cl    c    -4.400177    4.398774   -8.790502    0.000000    1.485000
   432  Cl    c    -4.400177    8.790502    4.398774    0.000000    1.485000
   433  Cl    c    -4.400177    8.790502   -4.398774    0.000000    1.485000
   434  Cl    c    -4.400177   -4.398774    8.790502    0.000000    1.485000
   435  Cl    c    -4.400177   -4.398774   -8.790502    0.000000    1.485000
   436  Cl    c    -4.400177   -8.790502    4.398774    0.000000    1.485000
   437  Cl    c    -4.400177   -8.790502   -4.398774    0.000000    1.485000
   438  Na    c    -6.622660    6.622128    4.407924    0.000000    1.000000
   439  Na    c    -6.622660    6.622128   -4.407924    0.000000    1.000000
   440  Na    c    -6.622660   -6.622128    4.407924    0.000000    1.000000
   441  Na    c    -6.622660   -6.622128   -4.407924    0.000000    1.000000
   442  Na    c    -6.622660    4.407924    6.622128    0.000000    1.000000
   443  Na    c    -6.622660    4.407924   -6.622128    0.000000    1.000000
   444  Na    c    -6.622660   -4.407924    6.622128    0.000000    1.000000
   445  Na    c    -6.622660   -4.407924   -6.622128    0.000000    1.000000
   446  Cl    c    -8.789452    0.000000    4.397857    0.000000    1.485000
   447  Cl    c    -8.789452    0.000000   -4.397857    0.000000    1.485000
   448  Cl    c    -8.789452    4.397857    0.000000    0.000000    1.485000
   449  Cl    c    -8.789452   -4.397857    0.000000    0.000000    1.485000
   450  Cl    s     4.504000    0.000000    0.000000    0.000000   -2.485000
   451  O     s     2.191904   -2.176461   -2.176461    0.000000   -2.183000
   452  O     s     2.191904   -2.176461    2.176461    0.000000   -2.183000
   453  O     s     2.191904    2.176461   -2.176461    0.000000   -2.183000
   454  O     s     2.191904    2.176461    2.176461    0.000000   -2.183000
   455  Cl    s     4.362854    0.000000    4.368890    0.000000   -2.485000
   456  Cl    s     4.362854    0.000000   -4.368890    0.000000   -2.485000
   457  Cl    s     4.362854    4.368890    0.000000    0.000000   -2.485000
   458  Cl    s     4.362854   -4.368890    0.000000    0.000000   -2.485000
   459  Cl    s     0.003598    0.000000    4.334795    0.000000   -2.485000
   460  Cl    s     0.003598    0.000000   -4.334795    0.000000   -2.485000
   461  Cl    s     0.003598    4.334795    0.000000    0.000000   -2.485000
   462  Cl    s     0.003598   -4.334795    0.000000    0.000000   -2.485000
   463  O     s     6.617852   -2.207042   -2.207042    0.000000   -2.183000
   464  O     s     6.617852   -2.207042    2.207042    0.000000   -2.183000
   465  O     s     6.617852    2.207042   -2.207042    0.000000   -2.183000
   466  O     s     6.617852    2.207042    2.207042    0.000000   -2.183000
   467  O     s    -2.177485   -2.181894   -2.181894    0.000000   -2.183000
[...]
     40 y         -2.202951     -2.205960    -0.003009    Cartesian    0.14
     40 z          0.000000      0.000000     0.000000    Cartesian    0.00
     41 x         11.014756     11.017465     0.002709    Cartesian    0.02
     41 y         -2.202951     -2.204166    -0.001215    Cartesian    0.06
     41 z         -2.202951     -2.204166    -0.001215    Cartesian    0.06
     42 x          2.202951      2.202182    -0.000769    Cartesian   -0.03
     42 y          6.608853      6.610443     0.001589    Cartesian    0.02
     42 z          6.608853      6.610443     0.001589    Cartesian    0.02
     43 x         -6.608853     -6.606270     0.002584    Cartesian   -0.04
     43 y         -2.202951     -2.202700     0.000251    Cartesian   -0.01
     43 z         -2.202951     -2.202700     0.000251    Cartesian   -0.01
     44 x          8.811805      8.815639     0.003835    Cartesian    0.04
     44 y         -2.202951     -2.211146    -0.008195    Cartesian    0.37
     44 z          6.608853      6.614166     0.005313    Cartesian    0.08
     45 x          4.405902      4.408354     0.002451    Cartesian    0.06
     45 y          6.608853      6.620468     0.011614    Cartesian    0.18
     45 z          6.608853      6.620468     0.011614    Cartesian    0.18
     46 x          0.000000      0.001559     0.001559    Cartesian    0.00
     46 y          6.608853      6.624958     0.016104    Cartesian    0.24
     46 z          6.608853      6.624958     0.016104    Cartesian    0.24
     47 x         -4.405902     -4.404816     0.001086    Cartesian   -0.02
     47 y         -2.202951     -2.214198    -0.011247    Cartesian    0.51
     47 z          6.608853      6.628372     0.019518    Cartesian    0.30
     48 x         11.014756     11.023605     0.008849    Cartesian    0.08
     48 y          4.405902      4.407078     0.001176    Cartesian    0.03
     48 z         -2.202951     -2.202148     0.000803    Cartesian   -0.04
     49 x          6.608853      6.616969     0.008116    Cartesian    0.12
     49 y         -2.202951     -2.199650     0.003301    Cartesian   -0.15
     49 z          8.811805      8.815581     0.003777    Cartesian    0.04
     50 x          4.405902      4.396900    -0.009003    Cartesian   -0.20
     50 y          4.405902      4.401946    -0.003956    Cartesian   -0.09
     50 z          8.811805      8.798947    -0.012858    Cartesian   -0.15
     51 x          0.000000     -0.003435    -0.003435    Cartesian    0.00
     51 y          4.405902      4.402048    -0.003854    Cartesian   -0.09
     51 z          8.811805      8.796089    -0.015715    Cartesian   -0.18
     52 x         -2.202951     -2.194411     0.008540    Cartesian   -0.39
     52 y         -2.202951     -2.197196     0.005755    Cartesian   -0.26
     52 z          8.811805      8.816030     0.004225    Cartesian    0.05
     53 x         -6.608853     -6.616628    -0.007774    Cartesian    0.12
     53 y         -2.202951     -2.206354    -0.003403    Cartesian    0.15
     53 z          4.405902      4.408046     0.002144    Cartesian    0.05
     54 x          6.608853      6.606219    -0.002635    Cartesian   -0.04
     54 y          6.608853      6.608702    -0.000151    Cartesian   -0.00
     54 z          6.608853      6.608702    -0.000151    Cartesian   -0.00
     55 x         -2.202951     -2.201122     0.001829    Cartesian   -0.08
     55 y          6.608853      6.610438     0.001585    Cartesian    0.02
     55 z          6.608853      6.610438     0.001585    Cartesian    0.02
     56 x         13.217707     13.204694    -0.013013    Cartesian   -0.10
     56 y          0.000000      0.000000     0.000000    Cartesian    0.00
     56 z          0.000000      0.000000     0.000000    Cartesian    0.00
     57 x         11.014756     11.021184     0.006428    Cartesian    0.06
     57 y          6.608853      6.610721     0.001868    Cartesian    0.03
     57 z          0.000000      0.000000     0.000000    Cartesian    0.00
     58 x          8.811805      8.799936    -0.011868    Cartesian   -0.13
     58 y          0.000000      0.000000     0.000000    Cartesian    0.00
     58 z          8.811805      8.803977    -0.007828    Cartesian   -0.09
     59 x          2.202951      2.207415     0.004464    Cartesian    0.20
     59 y          6.608853      6.616095     0.007242    Cartesian    0.11
     59 z          8.811805      8.817538     0.005733    Cartesian    0.07
     60 x          2.202951      2.205725     0.002773    Cartesian    0.13
     60 y         11.014756     11.021717     0.006961    Cartesian    0.06
     60 z          0.000000      0.000000     0.000000    Cartesian    0.00
     61 x         -4.405902     -4.402092     0.003811    Cartesian   -0.09
     61 y          0.000000      0.000000     0.000000    Cartesian    0.00
     61 z          8.811805      8.793821    -0.017984    Cartesian   -0.20
     62 x         -6.608853     -6.616270    -0.007416    Cartesian    0.11
     62 y          6.608853      6.621086     0.012233    Cartesian    0.19
     62 z          0.000000      0.000000     0.000000    Cartesian    0.00
     63 x         -8.811805     -8.790529     0.021275    Cartesian   -0.24
     63 y          0.000000      0.000000     0.000000    Cartesian    0.00
     63 z          0.000000      0.000000     0.000000    Cartesian    0.00
     64 x         11.014756     11.012723    -0.002033    Cartesian   -0.02
     64 y         -2.202951     -2.203528    -0.000577    Cartesian    0.03
     64 z          6.608853      6.607751    -0.001102    Cartesian   -0.02
     65 x          2.202951      2.202082    -0.000869    Cartesian   -0.04
     65 y         -2.202951     -2.203089    -0.000138    Cartesian    0.01
     65 z         11.014756     11.014080    -0.000676    Cartesian   -0.01
     66 x         -6.608853     -6.605071     0.003782    Cartesian   -0.06
     66 y          6.608853      6.605439    -0.003414    Cartesian   -0.05
     66 z         -2.202951     -2.202316     0.000635    Cartesian   -0.03
     67 x         13.217707     13.222425     0.004718    Cartesian    0.04
     67 y         -2.202951     -2.206998    -0.004047    Cartesian    0.18
     67 z         -2.202951     -2.206998    -0.004047    Cartesian    0.18
     68 x          8.811805      8.815187     0.003382    Cartesian    0.04
     68 y          6.608853      6.608545    -0.000309    Cartesian   -0.00
     68 z          6.608853      6.608545    -0.000309    Cartesian   -0.00
     69 x          4.405902      4.407776     0.001873    Cartesian    0.04
     69 y         -2.202951     -2.203256    -0.000305    Cartesian    0.01
     69 z         11.014756     11.025873     0.011118    Cartesian    0.10
     70 x          0.000000      0.000342     0.000342    Cartesian    0.00
     70 y         -2.202951     -2.207545    -0.004594    Cartesian    0.21
     70 z         11.014756     11.029753     0.014998    Cartesian    0.14
     71 x         -4.405902     -4.406757    -0.000855    Cartesian    0.02
     71 y          6.608853      6.616942     0.008088    Cartesian    0.12
     71 z          6.608853      6.616942     0.008088    Cartesian    0.12
     72 x         -8.811805     -8.815324    -0.003519    Cartesian    0.04
     72 y         -2.202951     -2.207844    -0.004893    Cartesian    0.22
     72 z         -2.202951     -2.207844    -0.004893    Cartesian    0.22
     73 x         13.217707     13.199671    -0.018036    Cartesian   -0.14
     73 y          0.000000      0.000000     0.000000    Cartesian    0.00
     73 z          4.405902      4.401793    -0.004109    Cartesian   -0.09
     74 x         11.014756     11.029031     0.014275    Cartesian    0.13
     74 y          6.608853      6.614879     0.006025    Cartesian    0.09
     74 z          4.405902      4.407530     0.001627    Cartesian    0.04
     75 x          8.811805      8.798752    -0.013053    Cartesian   -0.15
     75 y          4.405902      4.399884    -0.006018    Cartesian   -0.14
     75 z          8.811805      8.798048    -0.013757    Cartesian   -0.16
     76 x          6.608853      6.618687     0.009834    Cartesian    0.15
     76 y         11.014756     11.032162     0.017407    Cartesian    0.16
     76 z          0.000000      0.000000     0.000000    Cartesian    0.00
     77 x          6.608853      6.619057     0.010203    Cartesian    0.15
     77 y          6.608853      6.618608     0.009755    Cartesian    0.15
     77 z          8.811805      8.815680     0.003875    Cartesian    0.04
     78 x          2.202951      2.207382     0.004431    Cartesian    0.20
     78 y         11.014756     11.031528     0.016772    Cartesian    0.15
     78 z          4.405902      4.408224     0.002322    Cartesian    0.05
     79 x         -2.202951     -2.206030    -0.003079    Cartesian    0.14
     79 y         11.014756     11.035319     0.020563    Cartesian    0.19
     79 z          0.000000      0.000000     0.000000    Cartesian    0.00
     80 x         -2.202951     -2.205502    -0.002551    Cartesian    0.12
     80 y          8.811805      8.817560     0.005755    Cartesian    0.07
     80 z          6.608853      6.620755     0.011902    Cartesian    0.18
     81 x         -4.405902     -4.400177     0.005725    Cartesian   -0.13
     81 y          4.405902      4.398774    -0.007128    Cartesian   -0.16
     81 z          8.811805      8.790502    -0.021303    Cartesian   -0.24
     82 x         -6.608853     -6.622660    -0.013807    Cartesian    0.21
     82 y          6.608853      6.622128     0.013275    Cartesian    0.20
     82 z          4.405902      4.407924     0.002022    Cartesian    0.05
     83 x         -8.811805     -8.789452     0.022353    Cartesian   -0.25
     83 y          0.000000      0.000000     0.000000    Cartesian    0.00
     83 z          4.405902      4.397857    -0.008045    Cartesian   -0.18
     84 x          4.504000      4.504000     0.000000    Cartesian    0.00
     84 y          0.000000      0.000000     0.000000    Cartesian    0.00
     84 z          0.000000      0.000000     0.000000    Cartesian    0.00
     85 x          2.202951      2.191904    -0.011047    Cartesian   -0.50
     85 y         -2.202951     -2.176461     0.026490    Cartesian   -1.20
     85 z         -2.202951     -2.176461     0.026490    Cartesian   -1.20
     86 x          4.405902      4.362854    -0.043048    Cartesian   -0.98
     86 y          0.000000      0.000000     0.000000    Cartesian    0.00
     86 z          4.405902      4.368890    -0.037012    Cartesian   -0.84
     87 x          0.000000      0.003598     0.003598    Cartesian    0.00
     87 y          0.000000      0.000000     0.000000    Cartesian    0.00
     87 z          4.405902      4.334795    -0.071107    Cartesian   -1.61
     88 x          6.608853      6.617852     0.008998    Cartesian    0.14
     88 y         -2.202951     -2.207042    -0.004091    Cartesian    0.19
     88 z         -2.202951     -2.207042    -0.004091    Cartesian    0.19
     89 x         -2.202951     -2.177485     0.025466    Cartesian   -1.16
     89 y         -2.202951     -2.181894     0.021057    Cartesian   -0.96
     89 z         -2.202951     -2.181894     0.021057    Cartesian   -0.96
     90 x          8.811805      8.806717    -0.005087    Cartesian   -0.06
     90 y          0.000000      0.000000     0.000000    Cartesian    0.00
     90 z          0.000000      0.000000     0.000000    Cartesian    0.00
     91 x          4.405902      4.363661    -0.042241    Cartesian   -0.96
     91 y          4.405902      4.373240    -0.032663    Cartesian   -0.74
     91 z          4.405902      4.373240    -0.032663    Cartesian   -0.74
     92 x          0.000000      0.002493     0.002493    Cartesian    0.00
     92 y          4.405902      4.365690    -0.040212    Cartesian   -0.91
     92 z          4.405902      4.365690    -0.040212    Cartesian   -0.91
     93 x         -4.405902     -4.342436     0.063466    Cartesian   -1.44
     93 y          0.000000      0.000000     0.000000    Cartesian    0.00
     93 z          0.000000      0.000000     0.000000    Cartesian    0.00
     94 x          2.202951      2.203817     0.000866    Cartesian    0.04
     94 y         -2.202951     -2.202876     0.000076    Cartesian   -0.00
     94 z          6.608853      6.607387    -0.001467    Cartesian   -0.02
     95 x          8.811805      8.794278    -0.017526    Cartesian   -0.20
     95 y          0.000000      0.000000     0.000000    Cartesian    0.00
     95 z          4.405902      4.403646    -0.002256    Cartesian   -0.05
     96 x         -4.405902     -4.366943     0.038960    Cartesian   -0.88
     96 y          0.000000      0.000000     0.000000    Cartesian    0.00
     96 z          4.405902      4.364824    -0.041078    Cartesian   -0.93
     97 x          6.608853      6.607462    -0.001391    Cartesian   -0.02
     97 y         -2.202951     -2.201760     0.001191    Cartesian   -0.05
     97 z          6.608853      6.608350    -0.000504    Cartesian   -0.01
     98 x         -2.202951     -2.199114     0.003837    Cartesian   -0.17
     98 y         -2.202951     -2.202195     0.000756    Cartesian   -0.03
     98 z          6.608853      6.606254    -0.002600    Cartesian   -0.04
     99 x          8.811805      8.794096    -0.017709    Cartesian   -0.20
     99 y          4.405902      4.402694    -0.003209    Cartesian   -0.07
     99 z          4.405902      4.402694    -0.003209    Cartesian   -0.07
    100 x          4.405902      4.395000    -0.010903    Cartesian   -0.25
    100 y          0.000000      0.000000     0.000000    Cartesian    0.00
    100 z          8.811805      8.795990    -0.015814    Cartesian   -0.18
    101 x          0.000000     -0.004372    -0.004372    Cartesian    0.00
    101 y          0.000000      0.000000     0.000000    Cartesian    0.00
    101 z          8.811805      8.788688    -0.023116    Cartesian   -0.26
    102 x         -4.405902     -4.373652     0.032250    Cartesian   -0.73
    102 y          4.405902      4.371381    -0.034521    Cartesian   -0.78
    102 z          4.405902      4.371381    -0.034521    Cartesian   -0.78
    103 x         11.014756     11.017460     0.002704    Cartesian    0.02
    103 y         -2.202951     -2.204168    -0.001216    Cartesian    0.06
    103 z         -2.202951     -2.204168    -0.001216    Cartesian    0.06
    104 x          2.202951      2.202181    -0.000770    Cartesian   -0.03
    104 y          6.608853      6.610444     0.001590    Cartesian    0.02
    104 z          6.608853      6.610444     0.001590    Cartesian    0.02
    105 x         -6.608853     -6.606263     0.002591    Cartesian   -0.04
    105 y         -2.202951     -2.202701     0.000250    Cartesian   -0.01
    105 z         -2.202951     -2.202701     0.000250    Cartesian   -0.01
    106 x          4.405902      4.395162    -0.010741    Cartesian   -0.24
    106 y          4.405902      4.401034    -0.004868    Cartesian   -0.11
    106 z          8.811805      8.796453    -0.015352    Cartesian   -0.17
    107 x          0.000000     -0.004320    -0.004320    Cartesian    0.00
    107 y          4.405902      4.401112    -0.004790    Cartesian   -0.11
    107 z          8.811805      8.793290    -0.018514    Cartesian   -0.21
    108 x          6.608853      6.606216    -0.002638    Cartesian   -0.04
    108 y          6.608853      6.608702    -0.000152    Cartesian   -0.00
    108 z          6.608853      6.608702    -0.000152    Cartesian   -0.00
    109 x         -2.202951     -2.201121     0.001831    Cartesian   -0.08
    109 y          6.608853      6.610440     0.001587    Cartesian    0.02
    109 z          6.608853      6.610440     0.001587    Cartesian    0.02
    110 x         13.217707     13.202319    -0.015388    Cartesian   -0.12
    110 y          0.000000      0.000000     0.000000    Cartesian    0.00
    110 z          0.000000      0.000000     0.000000    Cartesian    0.00
    111 x          8.811805      8.797818    -0.013987    Cartesian   -0.16
    111 y          0.000000      0.000000     0.000000    Cartesian    0.00
    111 z          8.811805      8.802665    -0.009140    Cartesian   -0.10
    112 x         -4.405902     -4.401851     0.004051    Cartesian   -0.09
    112 y          0.000000      0.000000     0.000000    Cartesian    0.00
    112 z          8.811805      8.791214    -0.020591    Cartesian   -0.23
    113 x         -8.811805     -8.787327     0.024478    Cartesian   -0.28
    113 y          0.000000      0.000000     0.000000    Cartesian    0.00
    113 z          0.000000      0.000000     0.000000    Cartesian    0.00
    114 x         11.014756     11.012720    -0.002036    Cartesian   -0.02
    114 y         -2.202951     -2.203528    -0.000577    Cartesian    0.03
    114 z          6.608853      6.607750    -0.001103    Cartesian   -0.02
    115 x          2.202951      2.202080    -0.000871    Cartesian   -0.04
    115 y         -2.202951     -2.203088    -0.000137    Cartesian    0.01
    115 z         11.014756     11.014082    -0.000674    Cartesian   -0.01
    116 x         -6.608853     -6.605072     0.003781    Cartesian   -0.06
    116 y          6.608853      6.605439    -0.003414    Cartesian   -0.05
    116 z         -2.202951     -2.202315     0.000636    Cartesian   -0.03
    117 x         13.217707     13.197115    -0.020592    Cartesian   -0.16
    117 y          0.000000      0.000000     0.000000    Cartesian    0.00
    117 z          4.405902      4.401142    -0.004760    Cartesian   -0.11
    118 x          8.811805      8.796760    -0.015045    Cartesian   -0.17
    118 y          4.405902      4.398946    -0.006956    Cartesian   -0.16
    118 z          8.811805      8.796053    -0.015751    Cartesian   -0.18
    119 x         -4.405902     -4.399510     0.006392    Cartesian   -0.15
    119 y          4.405902      4.397582    -0.008320    Cartesian   -0.19
    119 z          8.811805      8.787391    -0.024414    Cartesian   -0.28
    120 x         -8.811805     -8.786716     0.025089    Cartesian   -0.28
    120 y          0.000000      0.000000     0.000000    Cartesian    0.00
    120 z          4.405902      4.396547    -0.009355    Cartesian   -0.21
--------------------------------------------------------------------------------


  Time to end of optimisation  =        8.1482 seconds


  Peak dynamic memory used =      76.10 MB 


  Timing analysis for GULP :

--------------------------------------------------------------------------------
  Task / Subroutine                                          Time (Seconds)
--------------------------------------------------------------------------------
  Calculation of reciprocal space energy and derivatives          0.0007
  Calculation of reciprocal space energy using symmetry           0.0014
  Calculation of real space energy and derivatives                0.0043
  Calculation of real space energy using symmetry                 0.0132
  Calculation for region 1 energy and derivatives (2-b)           4.9880
  Calculation for region 2a energy                                2.5593
  Calculation for region 2b energy                                0.0028
  Calculation and manipulation of Hessian matrix                  0.4519
  Calculation of matrix inversion                                 0.0231
  Symmetry generation of equivalent positions                     0.0048
--------------------------------------------------------------------------------
  Total CPU time                                                  8.1482
--------------------------------------------------------------------------------


  Dump file written as Na3OCl.grs


  Job Finished at 16:17.37  8th January    2021                               

