********************************************************************************
*                       GENERAL UTILITY LATTICE PROGRAM                        *
*                                 Julian Gale                                  *
*                       Curtin Institute for Computation                       *
*                    School of Molecular and Life Sciences                     *
*                    Curtin University, Western Australia                      *
********************************************************************************
* Version = 5.2.0 * Last modified =  10th September 2020                       *
********************************************************************************
*  optimise     - perform optimisation run                                     *
*  conp         - constant pressure calculation                                *
*  property     - calculate properties for final geometry                      *
*  defect       - perform defect calculation after bulk run                    *
*  compare      - compare initial and final structures                         *
********************************************************************************

  Job Started  at 13:22.19 26th September  2021                               

  Number of CPUs =     1


  Total number of configurations input =      1

********************************************************************************
*  Input for Configuration =   1                                               *
********************************************************************************

  Formula = ClONa3                                                      

  Number of irreducible atoms/shells =       5


  Total number atoms/shells =       7

  Dimensionality = 3               :  Bulk   


  Symmetry :

  Crystal family                   :  Cubic       
  Crystal class  (Groth - 1921)    :  Cubic Hexakisoctahedral              

  Space group (centrosymmetric)    :  P M 3 M         

  Patterson group                  :  P m -3 m 

  Cartesian lattice vectors (Angstroms) :

        4.504000    0.000000    0.000000
        0.000000    4.504000    0.000000
        0.000000    0.000000    4.504000

  Cell parameters (Angstroms/Degrees):

  a =       4.5040    alpha =  90.0000
  b =       4.5040    beta  =  90.0000
  c =       4.5040    gamma =  90.0000

  Initial cell volume =          91.368216 Angs**3

  Temperature of configuration =   0.00     K 

  Pressure of configuration =         0.000 GPa 

  Fractional coordinates of asymmetric unit :

--------------------------------------------------------------------------------
   No.  Atomic       x           y          z         Charge      Occupancy
        Label      (Frac)      (Frac)     (Frac)        (e)         (Frac)  
--------------------------------------------------------------------------------
      1 Cl    c    0.000000    0.000000    0.000000     1.48500    1.000000    
      2 O     c    0.500000    0.500000    0.500000     0.18300    1.000000    
      3 Na    c    0.500000    0.500000    0.000000     1.00000    1.000000    
      4 Cl    s    0.000000    0.000000    0.000000    -2.48500    1.000000    
      5 O     s    0.500000    0.500000    0.500000    -2.18300    1.000000    
--------------------------------------------------------------------------------


  Constraints : 

--------------------------------------------------------------------------------
  Constraint no.      Unconstrained     Constrained    Coefficient    Offset
                         Variable         Variable
--------------------------------------------------------------------------------
           1              Strain 1        Strain 2       1.00000      0.0000
           2              Strain 1        Strain 3       1.00000      0.0000
--------------------------------------------------------------------------------


********************************************************************************
*  General input information                                                   *
********************************************************************************

  Species output for all configurations : 

--------------------------------------------------------------------------------
  Species    Type    Atomic    Atomic    Charge       Radii (Angs)     Library
                     Number     Mass       (e)     Cova   Ionic  VDW   Symbol
--------------------------------------------------------------------------------
    Na       Core       11      22.99   1.000000   0.970  0.000  2.300          
    O        Core        8      16.00   0.183000   0.730  0.000  1.360          
    O        Shell       8       0.00  -2.183000   0.730  0.000  1.360          
    Cl       Core       17      35.45   1.485000   0.990  0.000  1.650          
    Cl       Shell      17       0.00  -2.485000   0.990  0.000  1.650          
    Mg       Core       12      24.31   0.415000   1.100  0.000  0.000          
    Mg       Shell      12       0.00   1.585000   1.100  0.000  0.000          
    Ca       Core       20      40.08  -1.135000   0.990  0.000  0.000          
    Ca       Shell      20       0.00   3.135000   0.990  0.000  0.000          
    Sr       Core       38      87.62  -1.251000   1.120  0.000  0.000          
    Sr       Shell      38       0.00   3.251000   1.120  0.000  0.000          
    Ba       Core       56     137.33  -7.203000   1.340  0.000  0.000          
    Ba       Shell      56       0.00   9.203000   1.340  0.000  0.000          
    Al       Core       13      26.98   3.000000   1.350  0.000  0.000          
    Ga       Core       31      69.72   3.000000   1.220  0.000  0.000          
--------------------------------------------------------------------------------


  Lattice summation method               =    Ewald          (3-D)
                                         =    Parry          (2-D)
                                         =    Saunders et al (1-D)
  Accuracy factor for lattice sums       =   12.000


  Analytic derivatives to be used

  Time limit = Infinity

  Maximum range for interatomic potentials =    100000.000000 Angstroms

  General interatomic potentials :

--------------------------------------------------------------------------------
Atom  Types   Potential      Parameter       Value         Units   Cutoffs(Ang)
  1     2                                                            Min /  Max 
--------------------------------------------------------------------------------
O    c O    s Spring (c-s)  Spring k 2       593.71600    eV*Ang^-2 0.000  0.800
                            Spring k 4       0.0000000    eV*Ang^-4 
--------------------------------------------------------------------------------
Cl   c Cl   s Spring (c-s)  Spring k 2       29.380000    eV*Ang^-2 0.000  0.800
                            Spring k 4       0.0000000    eV*Ang^-4 
--------------------------------------------------------------------------------
Mg   c Mg   s Spring (c-s)  Spring k 2       361.60000    eV*Ang^-2 0.000  0.800
                            Spring k 4       0.0000000    eV*Ang^-4 
--------------------------------------------------------------------------------
Ca   c Ca   s Spring (c-s)  Spring k 2       110.20000    eV*Ang^-2 0.000  0.800
                            Spring k 4       0.0000000    eV*Ang^-4 
--------------------------------------------------------------------------------
Sr   c Sr   s Spring (c-s)  Spring k 2       71.700000    eV*Ang^-2 0.000  0.800
                            Spring k 4       0.0000000    eV*Ang^-4 
--------------------------------------------------------------------------------
Ba   c Ba   s Spring (c-s)  Spring k 2       495.20000    eV*Ang^-2 0.000  0.800
                            Spring k 4       0.0000000    eV*Ang^-4 
--------------------------------------------------------------------------------
Na   c Na   c Buckingham    Buckingham A     1788.1900    eV        0.000 12.000
                            Buckingham rho  0.15900000    Ang       
                            Buckingham C     0.0000000    eV*Ang^6  
--------------------------------------------------------------------------------
Na   c O    s Buckingham    Buckingham A     588.38000    eV        0.000 12.000
                            Buckingham rho  0.33800000    Ang       
                            Buckingham C     0.0000000    eV*Ang^6  
--------------------------------------------------------------------------------
Na   c Cl   s Buckingham    Buckingham A     1170.4100    eV        0.000 12.000
                            Buckingham rho  0.31500000    Ang       
                            Buckingham C     0.0000000    eV*Ang^6  
--------------------------------------------------------------------------------
O    s O    s Buckingham    Buckingham A     22764.300    eV        0.000 12.000
                            Buckingham rho  0.14900000    Ang       
                            Buckingham C     13.190000    eV*Ang^6  
--------------------------------------------------------------------------------
O    s Cl   s Buckingham    Buckingham A     8286.9100    eV        0.000 12.000
                            Buckingham rho  0.25900000    Ang       
                            Buckingham C     62.200000    eV*Ang^6  
--------------------------------------------------------------------------------
Cl   s Cl   s Buckingham    Buckingham A     1227.2000    eV        0.000 12.000
                            Buckingham rho  0.32100000    Ang       
                            Buckingham C     14.530000    eV*Ang^6  
--------------------------------------------------------------------------------
O    s Mg   s Buckingham    Buckingham A     1428.5000    eV        0.000 12.000
                            Buckingham rho  0.29450000    Ang       
                            Buckingham C     0.0000000    eV*Ang^6  
--------------------------------------------------------------------------------
Mg   s Cl   s Buckingham    Buckingham A     4914.5400    eV        0.000 12.000
                            Buckingham rho  0.25700000    Ang       
                            Buckingham C     0.0000000    eV*Ang^6  
--------------------------------------------------------------------------------
O    s Ca   s Buckingham    Buckingham A     1090.4000    eV        0.000 12.000
                            Buckingham rho  0.34370000    Ang       
                            Buckingham C     0.0000000    eV*Ang^6  
--------------------------------------------------------------------------------
Cl   s Ca   s Buckingham    Buckingham A     2302.0000    eV        0.000 12.000
                            Buckingham rho  0.34020000    Ang       
                            Buckingham C     0.0000000    eV*Ang^6  
--------------------------------------------------------------------------------
O    s Sr   s Buckingham    Buckingham A     959.10000    eV        0.000 12.000
                            Buckingham rho  0.37210000    Ang       
                            Buckingham C     0.0000000    eV*Ang^6  
--------------------------------------------------------------------------------
Cl   s Sr   s Buckingham    Buckingham A     2191.0900    eV        0.000 12.000
                            Buckingham rho  0.34570000    Ang       
                            Buckingham C     0.0000000    eV*Ang^6  
--------------------------------------------------------------------------------
O    s Ba   s Buckingham    Buckingham A     905.70000    eV        0.000 12.000
                            Buckingham rho  0.39760000    Ang       
                            Buckingham C     0.0000000    eV*Ang^6  
--------------------------------------------------------------------------------
Cl   s Ba   s Buckingham    Buckingham A     2704.5500    eV        0.000 12.000
                            Buckingham rho  0.35280000    Ang       
                            Buckingham C     0.0000000    eV*Ang^6  
--------------------------------------------------------------------------------
Al   c O    s Buckingham    Buckingham A     1725.0000    eV        0.000 12.000
                            Buckingham rho  0.28970000    Ang       
                            Buckingham C     0.0000000    eV*Ang^6  
--------------------------------------------------------------------------------
Al   c Cl   s Buckingham    Buckingham A     1736.1200    eV        0.000 12.000
                            Buckingham rho  0.29170000    Ang       
                            Buckingham C     0.0000000    eV*Ang^6  
--------------------------------------------------------------------------------
Ga   c O    s Buckingham    Buckingham A     2901.1200    eV        0.000 12.000
                            Buckingham rho  0.27420000    Ang       
                            Buckingham C     0.0000000    eV*Ang^6  
--------------------------------------------------------------------------------
Ga   c Cl   s Buckingham    Buckingham A     924.20000    eV        0.000 12.000
                            Buckingham rho  0.34280000    Ang       
                            Buckingham C     0.0000000    eV*Ang^6  
--------------------------------------------------------------------------------

********************************************************************************
*  Output for configuration   1                                                *
********************************************************************************


  Components of energy : 

--------------------------------------------------------------------------------
  Interatomic potentials     =           4.94315381 eV    
  Monopole - monopole (real) =         -10.03624526 eV    
  Monopole - monopole (recip)=         -29.53581274 eV    
  Monopole - monopole (total)=         -39.57205800 eV    
--------------------------------------------------------------------------------
  Total lattice energy       =         -34.62890419 eV    
--------------------------------------------------------------------------------
  Total lattice energy       =           -3341.1599 kJ/(mole unit cells)
--------------------------------------------------------------------------------


  Number of variables =        1

  Maximum number of calculations  =          1000
  Maximum Hessian update interval =            10
  Maximum step size               =   1.000000000
  Maximum parameter tolerance     =   0.000010000
  Maximum function  tolerance     =   0.000010000
  Maximum gradient  tolerance     =   0.001000000
  Maximum gradient  component     =   0.010000000

  Symmetry constrained optimisation

  Symmetry used for second derivatives

  Cell parameters to be optimised using strains

  Newton-Raphson optimiser to be used

  BFGS hessian update to be used

  Lower half triangular hessian to be used

  Start of bulk optimisation :

  Cycle:      0 Energy:       -34.628904  Gnorm:      4.328237  CPU:    0.006
  ** Hessian calculated **
  Cycle:      1 Energy:       -34.677667  Gnorm:      0.044008  CPU:    0.007
  Cycle:      2 Energy:       -34.677671  Gnorm:      0.003653  CPU:    0.008


  **** Optimisation achieved ****


  Final energy =     -34.67767136 eV
  Final Gnorm  =       0.00000010

  Components of energy : 

--------------------------------------------------------------------------------
  Interatomic potentials     =           5.77546103 eV    
  Monopole - monopole (real) =         -10.25970290 eV    
  Monopole - monopole (recip)=         -30.19342950 eV    
  Monopole - monopole (total)=         -40.45313239 eV    
--------------------------------------------------------------------------------
  Total lattice energy       =         -34.67767136 eV    
--------------------------------------------------------------------------------
  Total lattice energy       =           -3345.8652 kJ/(mole unit cells)
--------------------------------------------------------------------------------

  Final asymmetric unit coordinates :

--------------------------------------------------------------------------------
   No.  Atomic        x           y           z         Radius
        Label       (Frac)      (Frac)      (Frac)       (Angs) 
--------------------------------------------------------------------------------
     1  Cl    c     0.000000    0.000000    0.000000    0.000000
     2  O     c     0.500000    0.500000    0.500000    0.000000
     3  Na    c     0.500000    0.500000    0.000000    0.000000
     4  Cl    s     0.000000    0.000000    0.000000    0.000000
     5  O     s     0.500000    0.500000    0.500000    0.000000
--------------------------------------------------------------------------------

  Final Cartesian lattice vectors (Angstroms) :

        4.405902    0.000000    0.000000
        0.000000    4.405902    0.000000
        0.000000    0.000000    4.405902


  Final cell parameters and derivatives :

--------------------------------------------------------------------------------
       a            4.405902 Angstrom     dE/de1(xx)     0.000000 eV/strain
       b            4.405902 Angstrom     dE/de2(yy)     0.000000 eV/strain
       c            4.405902 Angstrom     dE/de3(zz)     0.000000 eV/strain
       alpha       90.000000 Degrees      dE/de4(yz)     0.000000 eV/strain
       beta        90.000000 Degrees      dE/de5(xz)     0.000000 eV/strain
       gamma       90.000000 Degrees      dE/de6(xy)     0.000000 eV/strain
--------------------------------------------------------------------------------

  Primitive cell volume =            85.527266 Angs**3

  Density of cell =      2.338030 g/cm**3

  Non-primitive cell volume =            85.527266 Angs**3


  Final internal derivatives :

--------------------------------------------------------------------------------
   No.  Atomic          a             b             c           Radius
        Label          (eV)          (eV)          (eV)        (eV/Angs)
--------------------------------------------------------------------------------
      1 Cl    c       0.000000      0.000000      0.000000      0.000000
      2 O     c       0.000000      0.000000      0.000000      0.000000
      3 Na    c       0.000000      0.000000      0.000000      0.000000
      4 Cl    s       0.000000      0.000000      0.000000      0.000000
      5 O     s       0.000000      0.000000      0.000000      0.000000
--------------------------------------------------------------------------------
  Maximum abs         0.000000      0.000000      0.000000      0.000000
--------------------------------------------------------------------------------

  Comparison of initial and final structures : 

--------------------------------------------------------------------------------
  Parameter   Initial value   Final value   Difference    Units      Percent
--------------------------------------------------------------------------------
    Volume        91.368216     85.527266    -5.840950    Angs**3     -6.39
    a              4.504000      4.405902    -0.098098    Angstroms   -2.18
    b              4.504000      4.405902    -0.098098    Angstroms   -2.18
    c              4.504000      4.405902    -0.098098    Angstroms   -2.18
    alpha         90.000000     90.000000     0.000000    Degrees      0.00
    beta          90.000000     90.000000     0.000000    Degrees      0.00
    gamma         90.000000     90.000000     0.000000    Degrees      0.00
      1 x          0.000000      0.000000     0.000000    Fractional   0.00
      1 y          0.000000      0.000000     0.000000    Fractional   0.00
      1 z          0.000000      0.000000     0.000000    Fractional   0.00
      2 x          0.500000      0.500000     0.000000    Fractional   0.00
      2 y          0.500000      0.500000     0.000000    Fractional   0.00
      2 z          0.500000      0.500000     0.000000    Fractional   0.00
      3 x          0.500000      0.500000     0.000000    Fractional   0.00
      3 y          0.500000      0.500000     0.000000    Fractional   0.00
      3 z          0.000000      0.000000     0.000000    Fractional   0.00
      4 x          0.000000      0.000000     0.000000    Fractional   0.00
      4 y          0.000000      0.000000     0.000000    Fractional   0.00
      4 z          0.000000      0.000000     0.000000    Fractional   0.00
      5 x          0.500000      0.500000     0.000000    Fractional   0.00
      5 y          0.500000      0.500000     0.000000    Fractional   0.00
      5 z          0.500000      0.500000     0.000000    Fractional   0.00
--------------------------------------------------------------------------------


  Born effective charge tensors : 

-------------------------------------------------------------------------------
  Atom             x           y             z
-------------------------------------------------------------------------------
    1 Cl    x      -0.9918     -0.0000     -0.0000
            y      -0.0000     -0.9918     -0.0000
            z      -0.0000     -0.0000     -0.9918
-------------------------------------------------------------------------------
    2 O     x      -2.2939      0.0000      0.0000
            y       0.0000     -2.2939      0.0000
            z       0.0000      0.0000     -2.2939
-------------------------------------------------------------------------------
    3 Na    x       1.2243      0.0000      0.0000
            y       0.0000      1.2243     -0.0000
            z       0.0000      0.0000      0.8372
-------------------------------------------------------------------------------




  Elastic Constant Matrix: (Units=GPa)

-------------------------------------------------------------------------------
  Indices      1         2         3         4         5         6    
-------------------------------------------------------------------------------
       1     82.7680   24.3534   24.3534   -0.0000    0.0000   -0.0000
       2     24.3534   82.7680   24.3534    0.0000   -0.0000   -0.0000
       3     24.3534   24.3534   82.7680    0.0000   -0.0000    0.0000
       4     -0.0000    0.0000    0.0000   24.3534   -0.0000    0.0000
       5      0.0000   -0.0000   -0.0000   -0.0000   24.3534    0.0000
       6     -0.0000   -0.0000    0.0000    0.0000    0.0000   24.3534
-------------------------------------------------------------------------------


  Elastic Compliance Matrix: (Units=1/GPa)

-------------------------------------------------------------------------------
  Indices      1         2         3         4         5         6    
-------------------------------------------------------------------------------
       1    0.013948 -0.003171 -0.003171  0.000000 -0.000000  0.000000
       2   -0.003171  0.013948 -0.003171 -0.000000  0.000000 -0.000000
       3   -0.003171 -0.003171  0.013948 -0.000000  0.000000 -0.000000
       4    0.000000 -0.000000 -0.000000  0.041062  0.000000 -0.000000
       5   -0.000000  0.000000  0.000000  0.000000  0.041062 -0.000000
       6    0.000000 -0.000000 -0.000000 -0.000000 -0.000000  0.041062
-------------------------------------------------------------------------------

  Mechanical properties :

-------------------------------------------------------------------------------
  Convention :                    Reuss         Voigt         Hill
-------------------------------------------------------------------------------
  Bulk  Modulus (GPa)     =      43.82493      43.82493      43.82493
  Shear Modulus (GPa)     =      26.08758      26.29496      26.19127
-------------------------------------------------------------------------------
  Velocity S-wave (km/s)  =       3.34035       3.35360       3.34698
  Velocity P-wave (km/s)  =       5.79842       5.80861       5.80351
-------------------------------------------------------------------------------
  Compressibility (1/GPa) =    0.02281806
-------------------------------------------------------------------------------
  Stress axis :                     x             y             z
-------------------------------------------------------------------------------
  Youngs Moduli (GPa)     =      71.69479      71.69479      71.69479
-------------------------------------------------------------------------------
  Poissons Ratio (x)      =                     0.22734       0.22734
  Poissons Ratio (y)      =       0.22734                     0.22734
  Poissons Ratio (z)      =       0.22734       0.22734
-------------------------------------------------------------------------------


  Piezoelectric Strain Matrix: (Units=C/m**2)

-------------------------------------------------------------------------------
  Indices      1         2         3         4         5         6    
-------------------------------------------------------------------------------
       x    -0.00000  -0.00000  -0.00000  -0.00000   0.00000  -0.00000
       y     0.00000  -0.00000   0.00000   0.00000  -0.00000   0.00000
       z    -0.00000  -0.00000   0.00000  -0.00000   0.00000  -0.00000
-------------------------------------------------------------------------------


  Piezoelectric Stress Matrix: (Units=10**-11 C/N)

-------------------------------------------------------------------------------
  Indices      1         2         3         4         5         6    
-------------------------------------------------------------------------------
       x     0.00000  -0.00000  -0.00000  -0.00000   0.00000  -0.00000
       y     0.00000  -0.00000   0.00000   0.00000  -0.00000   0.00000
       z    -0.00000  -0.00000   0.00000  -0.00000   0.00000  -0.00000
-------------------------------------------------------------------------------


  Static dielectric constant tensor : 

-------------------------------------------------------------------------------
              x         y         z
-------------------------------------------------------------------------------
       x    11.08357   0.00000   0.00000
       y     0.00000  11.08357   0.00000
       z     0.00000   0.00000  11.08357
--------------------------------------------------------------------------------

  High frequency dielectric constant tensor : 

-------------------------------------------------------------------------------
              x         y         z
-------------------------------------------------------------------------------
       x     1.50771   0.00000   0.00000
       y     0.00000   1.50771   0.00000
       z     0.00000   0.00000   1.50771
-------------------------------------------------------------------------------

  Static refractive indices : 

-------------------------------------------------------------------------------
    1 =    3.32920      2 =    3.32920      3 =    3.32920
-------------------------------------------------------------------------------

  High frequency refractive indices : 

-------------------------------------------------------------------------------
    1 =    1.22789      2 =    1.22789      3 =    1.22789
-------------------------------------------------------------------------------


  Time to end of optimisation =       0.0131 seconds

********************************************************************************
*  Defect calculation for configuration   1 :                                  *
********************************************************************************

  Total number of defects =      3

  Total charge on defect  =  -1.00

  Defect centre is at   0.5000   0.2500   0.2500  Frac

  Region 1 radius =  12.0000      Number of ions =    593

  Number of symmetry inequivalent region 1 ions  =    340

  Region 2 radius =  16.0000      Number of ions =    832

  Number of symmetry inequivalent region 2a ions =    454

  Region 2a mode = 4 : screened electrostatics due to region 1 
                       neglect correction to region 1 forces from 2a
                       region 2a displacements based on defects only

  Region 2a ions will only interact with defects in region 1

  Vacancies:

--------------------------------------------------------------------------------
    Specification type     Symbol/Number         x          y          z
--------------------------------------------------------------------------------
    Fractional                               0.500000   0.500000   0.000000
    Fractional                               0.500000   0.000000   0.500000
--------------------------------------------------------------------------------

  Interstitials:

--------------------------------------------------------------------------------
    Specification type     Symbol/Number         x          y          z
--------------------------------------------------------------------------------
    Atom/Fractional         Na               0.500000   0.093600   0.353600
--------------------------------------------------------------------------------


  Symmetry reduced region 1 (Relative to defect centre) :

--------------------------------------------------------------------------------
   No.   Atomic       x            y             z       Radius  Multiplicity   
         Label      (Angs)       (Angs)        (Angs)    (Angs)     
--------------------------------------------------------------------------------
     1  Na    c      0.0000      -0.6891       0.4565    0.0000     1    Defect
     2  O     c      0.0000       1.1015 *     1.1015 *  0.0000     1          
     3  Cl    c      2.2030 *    -1.1015 *    -1.1015 *  0.0000     2          
     4  Na    c      2.2030 *     1.1015 *     1.1015 *  0.0000     2          
     5  O     c      0.0000       1.1015 *    -3.3044 *  0.0000     1          
     6  O     c      0.0000      -3.3044 *     1.1015 *  0.0000     1          
     7  Na    c      0.0000       1.1015 *     3.3044 *  0.0000     1          
     8  Na    c      0.0000      -3.3044 *    -1.1015 *  0.0000     1          
     9  Na    c      0.0000      -1.1015 *    -3.3044 *  0.0000     1          
    10  Na    c      0.0000       3.3044 *     1.1015 *  0.0000     1          
    11  Cl    c      2.2030 *    -1.1015 *     3.3044 *  0.0000     2          
    12  Na    c      2.2030 *     1.1015 *    -3.3044 *  0.0000     2          
    13  Cl    c      2.2030 *     3.3044 *    -1.1015 *  0.0000     2          
    14  Na    c      2.2030 *    -3.3044 *     1.1015 *  0.0000     2          
    15  O     c      0.0000      -3.3044 *    -3.3044 *  0.0000     1          
    16  Na    c      0.0000      -3.3044 *     3.3044 *  0.0000     1          
    17  Na    c      0.0000       3.3044 *    -3.3044 *  0.0000     1          
    18  O     c      4.4059 *     1.1015 *     1.1015 *  0.0000     2          
    19  Na    c      4.4059 *     1.1015 *    -1.1015 *  0.0000     2          
    20  Na    c      4.4059 *    -1.1015 *     1.1015 *  0.0000     2          
    21  Cl    c      2.2030 *     3.3044 *     3.3044 *  0.0000     2          
    22  Na    c      2.2030 *    -3.3044 *    -3.3044 *  0.0000     2          
    23  O     c      0.0000       1.1015 *     5.5074 *  0.0000     1          
    24  O     c      0.0000       5.5074 *     1.1015 *  0.0000     1          
    25  O     c      4.4059 *     1.1015 *    -3.3044 *  0.0000     2          
    26  Na    c      0.0000       1.1015 *    -5.5074 *  0.0000     1          
    27  Na    c      0.0000       5.5074 *    -1.1015 *  0.0000     1          
    28  Na    c      4.4059 *     1.1015 *     3.3044 *  0.0000     2          
    29  Na    c      0.0000      -1.1015 *     5.5074 *  0.0000     1          
    30  Na    c      0.0000      -5.5074 *     1.1015 *  0.0000     1          
    31  Na    c      4.4059 *    -1.1015 *    -3.3044 *  0.0000     2          
    32  O     c      4.4059 *    -3.3044 *     1.1015 *  0.0000     2          
    33  Na    c      4.4059 *    -3.3044 *    -1.1015 *  0.0000     2          
    34  Na    c      4.4059 *     3.3044 *     1.1015 *  0.0000     2          
    35  Cl    c      2.2030 *    -1.1015 *    -5.5074 *  0.0000     2          
    36  Cl    c      2.2030 *    -5.5074 *    -1.1015 *  0.0000     2          
    37  Na    c      2.2030 *     1.1015 *     5.5074 *  0.0000     2          
    38  Na    c      2.2030 *     5.5074 *     1.1015 *  0.0000     2          
    39  O     c      0.0000       5.5074 *    -3.3044 *  0.0000     1          
    40  O     c      0.0000      -3.3044 *     5.5074 *  0.0000     1          
    41  Na    c      0.0000       5.5074 *     3.3044 *  0.0000     1          
    42  Na    c      0.0000      -3.3044 *    -5.5074 *  0.0000     1          
    43  Na    c      0.0000       3.3044 *     5.5074 *  0.0000     1          
    44  Na    c      0.0000      -5.5074 *    -3.3044 *  0.0000     1          
    45  O     c      4.4059 *    -3.3044 *    -3.3044 *  0.0000     2          
    46  Na    c      4.4059 *    -3.3044 *     3.3044 *  0.0000     2          
    47  Na    c      4.4059 *     3.3044 *    -3.3044 *  0.0000     2          
    48  Cl    c      6.6089 *    -1.1015 *    -1.1015 *  0.0000     2          
    49  Na    c      6.6089 *     1.1015 *     1.1015 *  0.0000     2          
    50  Cl    c      2.2030 *     3.3044 *    -5.5074 *  0.0000     2          
    51  Cl    c      2.2030 *    -5.5074 *     3.3044 *  0.0000     2          
    52  Na    c      2.2030 *     5.5074 *    -3.3044 *  0.0000     2          
    53  Na    c      2.2030 *    -3.3044 *     5.5074 *  0.0000     2          
    54  O     c      4.4059 *     1.1015 *     5.5074 *  0.0000     2          
    55  O     c      4.4059 *     5.5074 *     1.1015 *  0.0000     2          
    56  Na    c      4.4059 *     1.1015 *    -5.5074 *  0.0000     2          
    57  Na    c      4.4059 *     5.5074 *    -1.1015 *  0.0000     2          
    58  Na    c      4.4059 *    -1.1015 *     5.5074 *  0.0000     2          
    59  Na    c      4.4059 *    -5.5074 *     1.1015 *  0.0000     2          
    60  Cl    c      6.6089 *    -1.1015 *     3.3044 *  0.0000     2          
    61  Cl    c      6.6089 *     3.3044 *    -1.1015 *  0.0000     2          
    62  Na    c      6.6089 *     1.1015 *    -3.3044 *  0.0000     2          
    63  Na    c      6.6089 *    -3.3044 *     1.1015 *  0.0000     2          
    64  O     c      0.0000       1.1015 *    -7.7103 *  0.0000     1          
    65  O     c      0.0000       5.5074 *     5.5074 *  0.0000     1          
    66  O     c      0.0000      -7.7103 *     1.1015 *  0.0000     1          
    67  Na    c      0.0000       1.1015 *     7.7103 *  0.0000     1          
    68  Na    c      0.0000       5.5074 *    -5.5074 *  0.0000     1          
    69  Na    c      0.0000      -7.7103 *    -1.1015 *  0.0000     1          
    70  Na    c      0.0000      -1.1015 *    -7.7103 *  0.0000     1          
    71  Na    c      0.0000       7.7103 *     1.1015 *  0.0000     1          
    72  Na    c      0.0000      -5.5074 *     5.5074 *  0.0000     1          
    73  O     c      4.4059 *     5.5074 *    -3.3044 *  0.0000     2          
    74  O     c      4.4059 *    -3.3044 *     5.5074 *  0.0000     2          
    75  Na    c      4.4059 *     5.5074 *     3.3044 *  0.0000     2          
    76  Na    c      4.4059 *    -3.3044 *    -5.5074 *  0.0000     2          
    77  Na    c      4.4059 *     3.3044 *     5.5074 *  0.0000     2          
    78  Na    c      4.4059 *    -5.5074 *    -3.3044 *  0.0000     2          
    79  Cl    c      2.2030 *    -1.1015 *     7.7103 *  0.0000     2          
    80  Cl    c      2.2030 *    -5.5074 *    -5.5074 *  0.0000     2          
    81  Cl    c      6.6089 *     3.3044 *     3.3044 *  0.0000     2          
    82  Na    c      2.2030 *     1.1015 *    -7.7103 *  0.0000     2          
    83  Na    c      2.2030 *     5.5074 *     5.5074 *  0.0000     2          
    84  Na    c      6.6089 *    -3.3044 *    -3.3044 *  0.0000     2          
    85  Cl    c      2.2030 *     7.7103 *    -1.1015 *  0.0000     2          
    86  Na    c      2.2030 *    -7.7103 *     1.1015 *  0.0000     2          
    87  O     c      0.0000      -3.3044 *    -7.7103 *  0.0000     1          
    88  O     c      0.0000      -7.7103 *    -3.3044 *  0.0000     1          
    89  Na    c      0.0000      -3.3044 *     7.7103 *  0.0000     1          
    90  Na    c      0.0000      -7.7103 *     3.3044 *  0.0000     1          
    91  Na    c      0.0000       3.3044 *    -7.7103 *  0.0000     1          
    92  Na    c      0.0000       7.7103 *    -3.3044 *  0.0000     1          
    93  Cl    c      2.2030 *     3.3044 *     7.7103 *  0.0000     2          
    94  Cl    c      6.6089 *    -1.1015 *    -5.5074 *  0.0000     2          
    95  Na    c      2.2030 *    -3.3044 *    -7.7103 *  0.0000     2          
    96  Na    c      6.6089 *     1.1015 *     5.5074 *  0.0000     2          
    97  Cl    c      2.2030 *     7.7103 *     3.3044 *  0.0000     2          
    98  Cl    c      6.6089 *    -5.5074 *    -1.1015 *  0.0000     2          
    99  Na    c      2.2030 *    -7.7103 *    -3.3044 *  0.0000     2          
   100  Na    c      6.6089 *     5.5074 *     1.1015 *  0.0000     2          
   101  O     c      4.4059 *     1.1015 *    -7.7103 *  0.0000     2          
   102  O     c      4.4059 *     5.5074 *     5.5074 *  0.0000     2          
   103  Na    c      4.4059 *     1.1015 *     7.7103 *  0.0000     2          
   104  Na    c      4.4059 *     5.5074 *    -5.5074 *  0.0000     2          
   105  Na    c      4.4059 *    -1.1015 *    -7.7103 *  0.0000     2          
   106  Na    c      4.4059 *    -5.5074 *     5.5074 *  0.0000     2          
   107  O     c      4.4059 *    -7.7103 *     1.1015 *  0.0000     2          
   108  O     c      8.8118 *     1.1015 *     1.1015 *  0.0000     2          
   109  Na    c      4.4059 *    -7.7103 *    -1.1015 *  0.0000     2          
   110  Na    c      8.8118 *     1.1015 *    -1.1015 *  0.0000     2          
   111  Na    c      4.4059 *     7.7103 *     1.1015 *  0.0000     2          
   112  Na    c      8.8118 *    -1.1015 *     1.1015 *  0.0000     2          
   113  Cl    c      6.6089 *     3.3044 *    -5.5074 *  0.0000     2          
   114  Cl    c      6.6089 *    -5.5074 *     3.3044 *  0.0000     2          
   115  Na    c      6.6089 *     5.5074 *    -3.3044 *  0.0000     2          
   116  Na    c      6.6089 *    -3.3044 *     5.5074 *  0.0000     2          
   117  O     c      0.0000       5.5074 *    -7.7103 *  0.0000     1          
   118  O     c      0.0000      -7.7103 *     5.5074 *  0.0000     1          
   119  O     c      4.4059 *    -3.3044 *    -7.7103 *  0.0000     2          
   120  Na    c      0.0000       5.5074 *     7.7103 *  0.0000     1          
   121  Na    c      0.0000      -7.7103 *    -5.5074 *  0.0000     1          
   122  Na    c      4.4059 *    -3.3044 *     7.7103 *  0.0000     2          
   123  Na    c      0.0000       7.7103 *     5.5074 *  0.0000     1          
   124  Na    c      0.0000      -5.5074 *    -7.7103 *  0.0000     1          
   125  Na    c      4.4059 *     3.3044 *    -7.7103 *  0.0000     2          
   126  O     c      4.4059 *    -7.7103 *    -3.3044 *  0.0000     2          
   127  O     c      8.8118 *     1.1015 *    -3.3044 *  0.0000     2          
   128  O     c      8.8118 *    -3.3044 *     1.1015 *  0.0000     2          
   129  Na    c      4.4059 *    -7.7103 *     3.3044 *  0.0000     2          
   130  Na    c      8.8118 *     1.1015 *     3.3044 *  0.0000     2          
   131  Na    c      8.8118 *    -3.3044 *    -1.1015 *  0.0000     2          
   132  Na    c      4.4059 *     7.7103 *    -3.3044 *  0.0000     2          
   133  Na    c      8.8118 *    -1.1015 *    -3.3044 *  0.0000     2          
   134  Na    c      8.8118 *     3.3044 *     1.1015 *  0.0000     2          
   135  Cl    c      2.2030 *     7.7103 *    -5.5074 *  0.0000     2          
   136  Cl    c      2.2030 *    -5.5074 *     7.7103 *  0.0000     2          
   137  Na    c      2.2030 *     5.5074 *    -7.7103 *  0.0000     2          
   138  Na    c      2.2030 *    -7.7103 *     5.5074 *  0.0000     2          
   139  O     c      0.0000       1.1015 *     9.9133 *  0.0000     1          
   140  O     c      0.0000       9.9133 *     1.1015 *  0.0000     1          
   141  O     c      8.8118 *    -3.3044 *    -3.3044 *  0.0000     2          
   142  Na    c      0.0000       1.1015 *    -9.9133 *  0.0000     1          
   143  Na    c      0.0000       9.9133 *    -1.1015 *  0.0000     1          
   144  Na    c      8.8118 *    -3.3044 *     3.3044 *  0.0000     2          
   145  Na    c      0.0000      -1.1015 *     9.9133 *  0.0000     1          
   146  Na    c      0.0000      -9.9133 *     1.1015 *  0.0000     1          
   147  Na    c      8.8118 *     3.3044 *    -3.3044 *  0.0000     2          
   148  Cl    c      2.2030 *    -1.1015 *    -9.9133 *  0.0000     2          
   149  Cl    c      6.6089 *    -1.1015 *     7.7103 *  0.0000     2          
   150  Cl    c      6.6089 *     7.7103 *    -1.1015 *  0.0000     2          
   151  Cl    c      6.6089 *    -5.5074 *    -5.5074 *  0.0000     2          
   152  Na    c      2.2030 *     1.1015 *     9.9133 *  0.0000     2          
   153  Na    c      6.6089 *     1.1015 *    -7.7103 *  0.0000     2          
   154  Na    c      6.6089 *     5.5074 *     5.5074 *  0.0000     2          
   155  Na    c      6.6089 *    -7.7103 *     1.1015 *  0.0000     2          
   156  Cl    c      2.2030 *    -9.9133 *    -1.1015 *  0.0000     2          
   157  Na    c      2.2030 *     9.9133 *     1.1015 *  0.0000     2          
   158  O     c      0.0000       9.9133 *    -3.3044 *  0.0000     1          
   159  O     c      0.0000      -3.3044 *     9.9133 *  0.0000     1          
   160  O     c      4.4059 *     5.5074 *    -7.7103 *  0.0000     2          
   161  O     c      4.4059 *    -7.7103 *     5.5074 *  0.0000     2          
   162  O     c      8.8118 *     1.1015 *     5.5074 *  0.0000     2          
   163  O     c      8.8118 *     5.5074 *     1.1015 *  0.0000     2          
   164  Na    c      0.0000       9.9133 *     3.3044 *  0.0000     1          
   165  Na    c      0.0000      -3.3044 *    -9.9133 *  0.0000     1          
   166  Na    c      4.4059 *     5.5074 *     7.7103 *  0.0000     2          
   167  Na    c      4.4059 *    -7.7103 *    -5.5074 *  0.0000     2          
   168  Na    c      8.8118 *     1.1015 *    -5.5074 *  0.0000     2          
   169  Na    c      8.8118 *     5.5074 *    -1.1015 *  0.0000     2          
   170  Na    c      0.0000       3.3044 *     9.9133 *  0.0000     1          
   171  Na    c      0.0000      -9.9133 *    -3.3044 *  0.0000     1          
   172  Na    c      4.4059 *     7.7103 *     5.5074 *  0.0000     2          
   173  Na    c      4.4059 *    -5.5074 *    -7.7103 *  0.0000     2          
   174  Na    c      8.8118 *    -1.1015 *     5.5074 *  0.0000     2          
   175  Na    c      8.8118 *    -5.5074 *     1.1015 *  0.0000     2          
   176  Cl    c      6.6089 *     7.7103 *     3.3044 *  0.0000     2          
   177  Na    c      6.6089 *    -7.7103 *    -3.3044 *  0.0000     2          
   178  Cl    c      2.2030 *     3.3044 *    -9.9133 *  0.0000     2          
   179  Cl    c      2.2030 *    -9.9133 *     3.3044 *  0.0000     2          
   180  Cl    c      6.6089 *     3.3044 *     7.7103 *  0.0000     2          
   181  Na    c      2.2030 *     9.9133 *    -3.3044 *  0.0000     2          
   182  Na    c      2.2030 *    -3.3044 *     9.9133 *  0.0000     2          
   183  Na    c      6.6089 *    -3.3044 *    -7.7103 *  0.0000     2          
   184  O     c      0.0000      -7.7103 *    -7.7103 *  0.0000     1          
   185  O     c      4.4059 *     1.1015 *     9.9133 *  0.0000     2          
   186  O     c      4.4059 *     9.9133 *     1.1015 *  0.0000     2          
   187  O     c      8.8118 *     5.5074 *    -3.3044 *  0.0000     2          
   188  O     c      8.8118 *    -3.3044 *     5.5074 *  0.0000     2          
   189  Na    c      0.0000      -7.7103 *     7.7103 *  0.0000     1          
   190  Na    c      4.4059 *     1.1015 *    -9.9133 *  0.0000     2          
   191  Na    c      4.4059 *     9.9133 *    -1.1015 *  0.0000     2          
   192  Na    c      8.8118 *     5.5074 *     3.3044 *  0.0000     2          
   193  Na    c      8.8118 *    -3.3044 *    -5.5074 *  0.0000     2          
   194  Na    c      0.0000       7.7103 *    -7.7103 *  0.0000     1          
   195  Na    c      4.4059 *    -1.1015 *     9.9133 *  0.0000     2          
   196  Na    c      4.4059 *    -9.9133 *     1.1015 *  0.0000     2          
   197  Na    c      8.8118 *     3.3044 *     5.5074 *  0.0000     2          
   198  Na    c      8.8118 *    -5.5074 *    -3.3044 *  0.0000     2          
   199  Cl    c      2.2030 *     7.7103 *     7.7103 *  0.0000     2          
   200  Cl    c     11.0148 *    -1.1015 *    -1.1015 *  0.0000     2          
   201  Na    c      2.2030 *    -7.7103 *    -7.7103 *  0.0000     2          
   202  Na    c     11.0148 *     1.1015 *     1.1015 *  0.0000     2          
   203  O     c      4.4059 *     9.9133 *    -3.3044 *  0.0000     2          
   204  Na    c      4.4059 *     9.9133 *     3.3044 *  0.0000     2          
   205  Na    c      4.4059 *    -9.9133 *    -3.3044 *  0.0000     2          
   206  O     c      0.0000       5.5074 *     9.9133 *  0.0000     1          
   207  O     c      0.0000       9.9133 *     5.5074 *  0.0000     1          
   208  O     c      4.4059 *    -3.3044 *     9.9133 *  0.0000     2          
   209  Na    c      0.0000       5.5074 *    -9.9133 *  0.0000     1          
   210  Na    c      0.0000       9.9133 *    -5.5074 *  0.0000     1          
   211  Na    c      4.4059 *    -3.3044 *    -9.9133 *  0.0000     2          
   212  Na    c      0.0000      -5.5074 *     9.9133 *  0.0000     1          
   213  Na    c      0.0000      -9.9133 *     5.5074 *  0.0000     1          
   214  Na    c      4.4059 *     3.3044 *     9.9133 *  0.0000     2          
   215  Cl    c      2.2030 *    -5.5074 *    -9.9133 *  0.0000     2          
   216  Cl    c      2.2030 *    -9.9133 *    -5.5074 *  0.0000     2          
   217  Cl    c      6.6089 *     7.7103 *    -5.5074 *  0.0000     2          
   218  Cl    c      6.6089 *    -5.5074 *     7.7103 *  0.0000     2          
   219  Cl    c     11.0148 *    -1.1015 *     3.3044 *  0.0000     2          
   220  Cl    c     11.0148 *     3.3044 *    -1.1015 *  0.0000     2          
   221  Na    c      2.2030 *     5.5074 *     9.9133 *  0.0000     2          
   222  Na    c      2.2030 *     9.9133 *     5.5074 *  0.0000     2          
   223  Na    c      6.6089 *     5.5074 *    -7.7103 *  0.0000     2          
   224  Na    c      6.6089 *    -7.7103 *     5.5074 *  0.0000     2          
   225  Na    c     11.0148 *     1.1015 *    -3.3044 *  0.0000     2          
   226  Na    c     11.0148 *    -3.3044 *     1.1015 *  0.0000     2          
   227  O     c      4.4059 *    -7.7103 *    -7.7103 *  0.0000     2          
   228  O     c      8.8118 *     1.1015 *    -7.7103 *  0.0000     2          
   229  O     c      8.8118 *     5.5074 *     5.5074 *  0.0000     2          
   230  Na    c      4.4059 *    -7.7103 *     7.7103 *  0.0000     2          
   231  Na    c      8.8118 *     1.1015 *     7.7103 *  0.0000     2          
   232  Na    c      8.8118 *     5.5074 *    -5.5074 *  0.0000     2          
   233  Na    c      4.4059 *     7.7103 *    -7.7103 *  0.0000     2          
   234  Na    c      8.8118 *    -1.1015 *    -7.7103 *  0.0000     2          
   235  Na    c      8.8118 *    -5.5074 *     5.5074 *  0.0000     2          
   236  O     c      8.8118 *    -7.7103 *     1.1015 *  0.0000     2          
   237  Na    c      8.8118 *    -7.7103 *    -1.1015 *  0.0000     2          
   238  Na    c      8.8118 *     7.7103 *     1.1015 *  0.0000     2          
   239  Cl    c     11.0148 *     3.3044 *     3.3044 *  0.0000     2          
   240  Na    c     11.0148 *    -3.3044 *    -3.3044 *  0.0000     2          
   241  Cl    c      6.6089 *    -1.1015 *    -9.9133 *  0.0000     2          
   242  Cl    c      6.6089 *    -9.9133 *    -1.1015 *  0.0000     2          
   243  Na    c      6.6089 *     1.1015 *     9.9133 *  0.0000     2          
   244  Na    c      6.6089 *     9.9133 *     1.1015 *  0.0000     2          
   245  O     s      0.0000       1.1015 *     1.1015 *  0.0000     1          
   246  Cl    s      2.2030 *    -1.1015 *    -1.1015 *  0.0000     2          
   247  O     s      0.0000       1.1015 *    -3.3044 *  0.0000     1          
   248  O     s      0.0000      -3.3044 *     1.1015 *  0.0000     1          
   249  Cl    s      2.2030 *    -1.1015 *     3.3044 *  0.0000     2          
   250  Cl    s      2.2030 *     3.3044 *    -1.1015 *  0.0000     2          
   251  O     s      0.0000      -3.3044 *    -3.3044 *  0.0000     1          
   252  O     s      4.4059 *     1.1015 *     1.1015 *  0.0000     2          
   253  Cl    s      2.2030 *     3.3044 *     3.3044 *  0.0000     2          
   254  O     s      0.0000       1.1015 *     5.5074 *  0.0000     1          
   255  O     s      0.0000       5.5074 *     1.1015 *  0.0000     1          
   256  O     s      4.4059 *     1.1015 *    -3.3044 *  0.0000     2          
   257  O     s      4.4059 *    -3.3044 *     1.1015 *  0.0000     2          
   258  Cl    s      2.2030 *    -1.1015 *    -5.5074 *  0.0000     2          
   259  Cl    s      2.2030 *    -5.5074 *    -1.1015 *  0.0000     2          
   260  O     s      0.0000       5.5074 *    -3.3044 *  0.0000     1          
   261  O     s      0.0000      -3.3044 *     5.5074 *  0.0000     1          
   262  O     s      4.4059 *    -3.3044 *    -3.3044 *  0.0000     2          
   263  Cl    s      6.6089 *    -1.1015 *    -1.1015 *  0.0000     2          
   264  Cl    s      2.2030 *     3.3044 *    -5.5074 *  0.0000     2          
   265  Cl    s      2.2030 *    -5.5074 *     3.3044 *  0.0000     2          
   266  O     s      4.4059 *     1.1015 *     5.5074 *  0.0000     2          
   267  O     s      4.4059 *     5.5074 *     1.1015 *  0.0000     2          
   268  Cl    s      6.6089 *    -1.1015 *     3.3044 *  0.0000     2          
   269  Cl    s      6.6089 *     3.3044 *    -1.1015 *  0.0000     2          
   270  O     s      0.0000       1.1015 *    -7.7103 *  0.0000     1          
   271  O     s      0.0000       5.5074 *     5.5074 *  0.0000     1          
   272  O     s      0.0000      -7.7103 *     1.1015 *  0.0000     1          
   273  O     s      4.4059 *     5.5074 *    -3.3044 *  0.0000     2          
   274  O     s      4.4059 *    -3.3044 *     5.5074 *  0.0000     2          
   275  Cl    s      2.2030 *    -1.1015 *     7.7103 *  0.0000     2          
   276  Cl    s      2.2030 *    -5.5074 *    -5.5074 *  0.0000     2          
   277  Cl    s      6.6089 *     3.3044 *     3.3044 *  0.0000     2          
   278  Cl    s      2.2030 *     7.7103 *    -1.1015 *  0.0000     2          
   279  O     s      0.0000      -3.3044 *    -7.7103 *  0.0000     1          
   280  O     s      0.0000      -7.7103 *    -3.3044 *  0.0000     1          
   281  Cl    s      2.2030 *     3.3044 *     7.7103 *  0.0000     2          
   282  Cl    s      6.6089 *    -1.1015 *    -5.5074 *  0.0000     2          
   283  Cl    s      2.2030 *     7.7103 *     3.3044 *  0.0000     2          
   284  Cl    s      6.6089 *    -5.5074 *    -1.1015 *  0.0000     2          
   285  O     s      4.4059 *     1.1015 *    -7.7103 *  0.0000     2          
   286  O     s      4.4059 *     5.5074 *     5.5074 *  0.0000     2          
   287  O     s      4.4059 *    -7.7103 *     1.1015 *  0.0000     2          
   288  O     s      8.8118 *     1.1015 *     1.1015 *  0.0000     2          
   289  Cl    s      6.6089 *     3.3044 *    -5.5074 *  0.0000     2          
   290  Cl    s      6.6089 *    -5.5074 *     3.3044 *  0.0000     2          
   291  O     s      0.0000       5.5074 *    -7.7103 *  0.0000     1          
   292  O     s      0.0000      -7.7103 *     5.5074 *  0.0000     1          
   293  O     s      4.4059 *    -3.3044 *    -7.7103 *  0.0000     2          
   294  O     s      4.4059 *    -7.7103 *    -3.3044 *  0.0000     2          
   295  O     s      8.8118 *     1.1015 *    -3.3044 *  0.0000     2          
   296  O     s      8.8118 *    -3.3044 *     1.1015 *  0.0000     2          
   297  Cl    s      2.2030 *     7.7103 *    -5.5074 *  0.0000     2          
   298  Cl    s      2.2030 *    -5.5074 *     7.7103 *  0.0000     2          
   299  O     s      0.0000       1.1015 *     9.9133 *  0.0000     1          
   300  O     s      0.0000       9.9133 *     1.1015 *  0.0000     1          
   301  O     s      8.8118 *    -3.3044 *    -3.3044 *  0.0000     2          
   302  Cl    s      2.2030 *    -1.1015 *    -9.9133 *  0.0000     2          
   303  Cl    s      6.6089 *    -1.1015 *     7.7103 *  0.0000     2          
   304  Cl    s      6.6089 *     7.7103 *    -1.1015 *  0.0000     2          
   305  Cl    s      6.6089 *    -5.5074 *    -5.5074 *  0.0000     2          
   306  Cl    s      2.2030 *    -9.9133 *    -1.1015 *  0.0000     2          
   307  O     s      0.0000       9.9133 *    -3.3044 *  0.0000     1          
   308  O     s      0.0000      -3.3044 *     9.9133 *  0.0000     1          
   309  O     s      4.4059 *     5.5074 *    -7.7103 *  0.0000     2          
   310  O     s      4.4059 *    -7.7103 *     5.5074 *  0.0000     2          
   311  O     s      8.8118 *     1.1015 *     5.5074 *  0.0000     2          
   312  O     s      8.8118 *     5.5074 *     1.1015 *  0.0000     2          
   313  Cl    s      6.6089 *     7.7103 *     3.3044 *  0.0000     2          
   314  Cl    s      2.2030 *     3.3044 *    -9.9133 *  0.0000     2          
   315  Cl    s      2.2030 *    -9.9133 *     3.3044 *  0.0000     2          
   316  Cl    s      6.6089 *     3.3044 *     7.7103 *  0.0000     2          
   317  O     s      0.0000      -7.7103 *    -7.7103 *  0.0000     1          
   318  O     s      4.4059 *     1.1015 *     9.9133 *  0.0000     2          
   319  O     s      4.4059 *     9.9133 *     1.1015 *  0.0000     2          
   320  O     s      8.8118 *     5.5074 *    -3.3044 *  0.0000     2          
   321  O     s      8.8118 *    -3.3044 *     5.5074 *  0.0000     2          
   322  Cl    s      2.2030 *     7.7103 *     7.7103 *  0.0000     2          
   323  Cl    s     11.0148 *    -1.1015 *    -1.1015 *  0.0000     2          
   324  O     s      4.4059 *     9.9133 *    -3.3044 *  0.0000     2          
   325  O     s      0.0000       5.5074 *     9.9133 *  0.0000     1          
   326  O     s      0.0000       9.9133 *     5.5074 *  0.0000     1          
   327  O     s      4.4059 *    -3.3044 *     9.9133 *  0.0000     2          
   328  Cl    s      2.2030 *    -5.5074 *    -9.9133 *  0.0000     2          
   329  Cl    s      2.2030 *    -9.9133 *    -5.5074 *  0.0000     2          
   330  Cl    s      6.6089 *     7.7103 *    -5.5074 *  0.0000     2          
   331  Cl    s      6.6089 *    -5.5074 *     7.7103 *  0.0000     2          
   332  Cl    s     11.0148 *    -1.1015 *     3.3044 *  0.0000     2          
   333  Cl    s     11.0148 *     3.3044 *    -1.1015 *  0.0000     2          
   334  O     s      4.4059 *    -7.7103 *    -7.7103 *  0.0000     2          
   335  O     s      8.8118 *     1.1015 *    -7.7103 *  0.0000     2          
   336  O     s      8.8118 *     5.5074 *     5.5074 *  0.0000     2          
   337  O     s      8.8118 *    -7.7103 *     1.1015 *  0.0000     2          
   338  Cl    s     11.0148 *     3.3044 *     3.3044 *  0.0000     2          
   339  Cl    s      6.6089 *    -1.1015 *    -9.9133 *  0.0000     2          
   340  Cl    s      6.6089 *    -9.9133 *    -1.1015 *  0.0000     2          
--------------------------------------------------------------------------------

  Components of defect energy : 

--------------------------------------------------------------------------------
  Region 1 - region 1                   =      8.22537543 eV
  Region 1 - region 2a (unrelaxed)      =     -0.02484329 eV
  Region 1 - 2a (relaxed - correction)  =     -0.27761248 eV
  Region 1 (Total)                      =      7.92291966 eV
  Region 2a                             =      0.13875559 eV
  Region 2b                             =     -0.40820170 eV
--------------------------------------------------------------------------------
  Total defect energy                   =      7.65347354 eV
--------------------------------------------------------------------------------

  Largest displacement in region 2 =   0.0177 Angstroms


  Number of variables =      931

  Maximum number of calculations  =        1000
  Maximum Hessian update interval =          10
  Maximum step size               =   1.0000000
  Maximum parameter tolerance     =   0.0000100
  Maximum function  tolerance     =   0.0000100
  Maximum gradient  tolerance     =   0.0010000

  Symmetry adapted optimisation

  Symmetry to be used for second derivatives

  Newton-Raphson optimiser to be used

  BFGS hessian update to be used

  Lower half triangular hessian to be used

  Start of defect optimisation :

  Cycle:      0 Defect Energy:   7.653474  Gnorm:     0.017689  CPU:    2.054
  ** Hessian calculated **
  Cycle:      1 Defect Energy:   6.128707  Gnorm:     0.011802  CPU:    8.802
  Cycle:      2 Defect Energy:   5.029809  Gnorm:     0.003478  CPU:   17.271
  Cycle:      3 Defect Energy:   4.975529  Gnorm:     0.002425  CPU:   18.705
  Cycle:      4 Defect Energy:   4.947590  Gnorm:     0.001623  CPU:   19.987
  Cycle:      5 Defect Energy:   4.932426  Gnorm:     0.000984  CPU:   21.286
  Cycle:      6 Defect Energy:   4.926228  Gnorm:     0.000591  CPU:   22.644
  Cycle:      7 Defect Energy:   4.924276  Gnorm:     0.000370  CPU:   23.879
  Cycle:      8 Defect Energy:   4.923597  Gnorm:     0.000243  CPU:   25.133
  Cycle:      9 Defect Energy:   4.923324  Gnorm:     0.000154  CPU:   26.352
  Cycle:     10 Defect Energy:   4.923224  Gnorm:     0.000095  CPU:   27.629
  ** Hessian calculated **
  Cycle:     11 Defect Energy:   4.923208  Gnorm:     0.000067  CPU:   30.937
  Cycle:     12 Defect Energy:   4.923209  Gnorm:     0.000047  CPU:   32.231


  **** Optimisation achieved ****


  Final defect energy  =        4.92321624
  Final defect Gnorm   =        0.00003260

  Components of defect energy : 

--------------------------------------------------------------------------------
  Region 1 - region 1                   =      6.33320964 eV
  Region 1 - region 2a (unrelaxed)      =     -0.89324827 eV
  Region 1 - 2a (relaxed - correction)  =     -0.21850711 eV
  Region 1 (Total)                      =      5.22145427 eV
  Region 2a                             =      0.10926980 eV
  Region 2b                             =     -0.40750783 eV
--------------------------------------------------------------------------------
  Total defect energy                   =      4.92321624 eV
--------------------------------------------------------------------------------

  Largest displacement in region 2 =   0.0177 Angstroms

  Final coordinates of region 1 :

--------------------------------------------------------------------------------
   No.  Atomic        x           y           z          Radius      Charge
        Label       (Angs)      (Angs)      (Angs)       (Angs)       (e) 
--------------------------------------------------------------------------------
     1  Na    c     2.202951    0.412392    1.557927    0.000000    1.000000
     2  O     c     2.202951    2.324754    2.360277    0.000000    0.183000
     3  Cl    c     4.514252   -0.051538   -0.026236    0.000000    1.485000
     4  Cl    c    -0.108350   -0.051538   -0.026236    0.000000    1.485000
     5  Na    c     4.349655    2.335628    2.102914    0.000000    1.000000
     6  Na    c     0.056248    2.335628    2.102914    0.000000    1.000000
     7  O     c     2.202951    2.215917   -2.354058    0.000000    0.183000
     8  O     c     2.202951   -2.097605    2.144366    0.000000    0.183000
     9  Na    c     2.202951    2.171841    4.444461    0.000000    1.000000
    10  Na    c     2.202951   -2.288072   -0.015634    0.000000    1.000000
    11  Na    c     2.202951    0.085571   -2.103908    0.000000    1.000000
    12  Na    c     2.202951    4.389557    1.904093    0.000000    1.000000
    13  Cl    c     4.503817   -0.003520    4.502226    0.000000    1.485000
    14  Cl    c    -0.097915   -0.003520    4.502226    0.000000    1.485000
    15  Na    c     4.307636    2.210902   -1.932641    0.000000    1.000000
    16  Na    c     0.098266    2.210902   -1.932641    0.000000    1.000000
    17  Cl    c     4.521138    4.531188    0.007338    0.000000    1.485000
    18  Cl    c    -0.115236    4.531188    0.007338    0.000000    1.485000
    19  Na    c     4.376662   -2.038982    2.187034    0.000000    1.000000
    20  Na    c     0.029240   -2.038982    2.187034    0.000000    1.000000
    21  O     c     2.202951   -2.172756   -2.207930    0.000000    0.183000
    22  Na    c     2.202951   -1.820603    4.324661    0.000000    1.000000
    23  Na    c     2.202951    4.322618   -1.914091    0.000000    1.000000
    24  O     c     6.595503    2.232596    2.205368    0.000000    0.183000
    25  O     c    -2.189601    2.232596    2.205368    0.000000    0.183000
    26  Na    c     6.676129    2.209933    0.009276    0.000000    1.000000
    27  Na    c    -2.270226    2.209933    0.009276    0.000000    1.000000
    28  Na    c     6.581641    0.033714    2.211200    0.000000    1.000000
    29  Na    c    -2.175739    0.033714    2.211200    0.000000    1.000000
    30  Cl    c     4.495366    4.479525    4.485395    0.000000    1.485000
    31  Cl    c    -0.089464    4.479525    4.485395    0.000000    1.485000
    32  Na    c     4.402166   -2.164633   -2.210398    0.000000    1.000000
    33  Na    c     0.003737   -2.164633   -2.210398    0.000000    1.000000
    34  O     c     2.202951    2.212775    6.659451    0.000000    0.183000
    35  O     c     2.202951    6.617437    2.182221    0.000000    0.183000
    36  O     c     6.575329    2.212893   -2.183357    0.000000    0.183000
    37  O     c    -2.169427    2.212893   -2.183357    0.000000    0.183000
    38  Na    c     2.202951    2.282395   -4.442368    0.000000    1.000000
    39  Na    c     2.202951    6.780520   -0.005326    0.000000    1.000000
    40  Na    c     6.503590    2.220008    4.405395    0.000000    1.000000
    41  Na    c    -2.097687    2.220008    4.405395    0.000000    1.000000
    42  Na    c     2.202951    0.022936    6.726912    0.000000    1.000000
    43  Na    c     2.202951   -4.323182    2.319740    0.000000    1.000000
    44  Na    c     6.566450    0.014162   -2.211217    0.000000    1.000000
    45  Na    c    -2.160547    0.014162   -2.211217    0.000000    1.000000
    46  O     c     6.599563   -2.177541    2.206754    0.000000    0.183000
    47  O     c    -2.193660   -2.177541    2.206754    0.000000    0.183000
    48  Na    c     6.586901   -2.173794   -0.000438    0.000000    1.000000
    49  Na    c    -2.180999   -2.173794   -0.000438    0.000000    1.000000
    50  Na    c     6.623051    4.429729    2.199946    0.000000    1.000000
    51  Na    c    -2.217149    4.429729    2.199946    0.000000    1.000000
    52  Cl    c     4.458571   -0.069014   -4.481755    0.000000    1.485000
    53  Cl    c    -0.052669   -0.069014   -4.481755    0.000000    1.485000
    54  Cl    c     4.407952   -4.417456   -0.019971    0.000000    1.485000
    55  Cl    c    -0.002050   -4.417456   -0.019971    0.000000    1.485000
    56  Na    c     4.407301    2.208505    6.633185    0.000000    1.000000
    57  Na    c    -0.001398    2.208505    6.633185    0.000000    1.000000
    58  Na    c     4.408760    6.590297    2.202837    0.000000    1.000000
    59  Na    c    -0.002858    6.590297    2.202837    0.000000    1.000000
    60  O     c     2.202951    6.586954   -2.185297    0.000000    0.183000
    61  O     c     2.202951   -2.161918    6.572837    0.000000    0.183000
    62  Na    c     2.202951    6.449418    4.377833    0.000000    1.000000
    63  Na    c     2.202951   -2.088846   -4.403412    0.000000    1.000000
    64  Na    c     2.202951    4.404689    6.623581    0.000000    1.000000
    65  Na    c     2.202951   -4.382917   -2.290277    0.000000    1.000000
    66  O     c     6.610907   -2.200459   -2.210318    0.000000    0.183000
    67  O     c    -2.205005   -2.200459   -2.210318    0.000000    0.183000
    68  Na    c     6.595031   -2.178651    4.404513    0.000000    1.000000
    69  Na    c    -2.189129   -2.178651    4.404513    0.000000    1.000000
    70  Na    c     6.570249    4.409410   -2.195029    0.000000    1.000000
    71  Na    c    -2.164346    4.409410   -2.195029    0.000000    1.000000
    72  Cl    c     8.831730    0.010272    0.007092    0.000000    1.485000
    73  Cl    c    -4.425828    0.010272    0.007092    0.000000    1.485000
    74  Na    c     8.800248    2.214138    2.274318    0.000000    1.000000
    75  Na    c    -4.394345    2.214138    2.274318    0.000000    1.000000
    76  Cl    c     4.469238    4.473879   -4.487666    0.000000    1.485000
    77  Cl    c    -0.063336    4.473879   -4.487666    0.000000    1.485000
    78  Cl    c     4.425177   -4.420611    4.403836    0.000000    1.485000
    79  Cl    c    -0.019275   -4.420611    4.403836    0.000000    1.485000
    80  Na    c     4.402136    6.573924   -2.206797    0.000000    1.000000
    81  Na    c     0.003766    6.573924   -2.206797    0.000000    1.000000
    82  Na    c     4.403524   -2.182052    6.553495    0.000000    1.000000
    83  Na    c     0.002378   -2.182052    6.553495    0.000000    1.000000
    84  O     c     6.611853    2.212806    6.618677    0.000000    0.183000
    85  O     c    -2.205950    2.212806    6.618677    0.000000    0.183000
    86  O     c     6.622148    6.631513    2.211450    0.000000    0.183000
    87  O     c    -2.216246    6.631513    2.211450    0.000000    0.183000
    88  Na    c     6.431638    2.218708   -4.380539    0.000000    1.000000
    89  Na    c    -2.025736    2.218708   -4.380539    0.000000    1.000000
    90  Na    c     6.590207    6.612410   -0.001693    0.000000    1.000000
    91  Na    c    -2.184305    6.612410   -0.001693    0.000000    1.000000
    92  Na    c     6.596806    0.004534    6.592287    0.000000    1.000000
    93  Na    c    -2.190904    0.004534    6.592287    0.000000    1.000000
    94  Na    c     6.548591   -4.377014    2.206051    0.000000    1.000000
    95  Na    c    -2.142689   -4.377014    2.206051    0.000000    1.000000
    96  Cl    c     8.836947    0.006191    4.409670    0.000000    1.485000
    97  Cl    c    -4.431045    0.006191    4.409670    0.000000    1.485000
    98  Cl    c     8.838875    4.415207    0.007811    0.000000    1.485000
    99  Cl    c    -4.432973    4.415207    0.007811    0.000000    1.485000
   100  Na    c     8.783537    2.210409   -2.279436    0.000000    1.000000
   101  Na    c    -4.377635    2.210409   -2.279436    0.000000    1.000000
   102  Na    c     8.797789   -2.191195    2.200110    0.000000    1.000000
   103  Na    c    -4.391886   -2.191195    2.200110    0.000000    1.000000
   104  O     c     2.202951    2.209243   -6.652221    0.000000    0.183000
   105  O     c     2.202951    6.601685    6.599027    0.000000    0.183000
   106  O     c     2.202951   -6.574013    2.204361    0.000000    0.183000
   107  Na    c     2.202951    2.250573    8.841204    0.000000    1.000000
   108  Na    c     2.202951    6.423197   -4.385009    0.000000    1.000000
   109  Na    c     2.202951   -6.491851    0.001527    0.000000    1.000000
   110  Na    c     2.202951    0.008989   -6.608598    0.000000    1.000000
   111  Na    c     2.202951    8.811892    2.301467    0.000000    1.000000
   112  Na    c     2.202951   -4.362550    6.430287    0.000000    1.000000
   113  O     c     6.615484    6.620315   -2.211794    0.000000    0.183000
   114  O     c    -2.209582    6.620315   -2.211794    0.000000    0.183000
   115  O     c     6.617255   -2.208021    6.614392    0.000000    0.183000
   116  O     c    -2.211353   -2.208021    6.614392    0.000000    0.183000
   117  Na    c     6.603912    6.603836    4.411765    0.000000    1.000000
   118  Na    c    -2.198010    6.603836    4.411765    0.000000    1.000000
   119  Na    c     6.596359   -2.194804   -4.410221    0.000000    1.000000
   120  Na    c    -2.190457   -2.194804   -4.410221    0.000000    1.000000
   121  Na    c     6.600480    4.415711    6.595338    0.000000    1.000000
   122  Na    c    -2.194578    4.415711    6.595338    0.000000    1.000000
   123  Na    c     6.595103   -4.396501   -2.199892    0.000000    1.000000
   124  Na    c    -2.189200   -4.396501   -2.199892    0.000000    1.000000
   125  Cl    c     4.408208    0.000494    8.841726    0.000000    1.485000
   126  Cl    c    -0.002306    0.000494    8.841726    0.000000    1.485000
   127  Cl    c     4.409462   -4.427272   -4.414742    0.000000    1.485000
   128  Cl    c    -0.003560   -4.427272   -4.414742    0.000000    1.485000
   129  Cl    c     8.842834    4.418158    4.411886    0.000000    1.485000
   130  Cl    c    -4.436932    4.418158    4.411886    0.000000    1.485000
   131  Na    c     4.399599    2.199451   -6.649337    0.000000    1.000000
   132  Na    c     0.006303    2.199451   -6.649337    0.000000    1.000000
   133  Na    c     4.410216    6.602736    6.580803    0.000000    1.000000
   134  Na    c    -0.004314    6.602736    6.580803    0.000000    1.000000
   135  Na    c     8.802764   -2.187841   -2.204219    0.000000    1.000000
   136  Na    c    -4.396862   -2.187841   -2.204219    0.000000    1.000000
   137  Cl    c     4.411438    8.845081   -0.002248    0.000000    1.485000
   138  Cl    c    -0.005535    8.845081   -0.002248    0.000000    1.485000
   139  Na    c     4.398007   -6.571839    2.188437    0.000000    1.000000
   140  Na    c     0.007895   -6.571839    2.188437    0.000000    1.000000
   141  O     c     2.202951   -2.197574   -6.612388    0.000000    0.183000
   142  O     c     2.202951   -6.596240   -2.207993    0.000000    0.183000
   143  Na    c     2.202951   -2.269223    8.787121    0.000000    1.000000
   144  Na    c     2.202951   -6.650504    4.393731    0.000000    1.000000
   145  Na    c     2.202951    4.405966   -6.681671    0.000000    1.000000
   146  Na    c     2.202951    8.796410   -2.312892    0.000000    1.000000
   147  Cl    c     4.406552    4.414691    8.841155    0.000000    1.485000
   148  Cl    c    -0.000649    4.414691    8.841155    0.000000    1.485000
   149  Cl    c     8.831879   -0.002969   -4.407923    0.000000    1.485000
   150  Cl    c    -4.425977   -0.002969   -4.407923    0.000000    1.485000
   151  Na    c     4.408778   -2.186945   -6.593387    0.000000    1.000000
   152  Na    c    -0.002876   -2.186945   -6.593387    0.000000    1.000000
   153  Na    c     8.806295    2.206684    6.560572    0.000000    1.000000
   154  Na    c    -4.400393    2.206684    6.560572    0.000000    1.000000
   155  Cl    c     4.412284    8.838308    4.413110    0.000000    1.485000
   156  Cl    c    -0.006381    8.838308    4.413110    0.000000    1.485000
   157  Cl    c     8.822259   -4.412370    0.001621    0.000000    1.485000
   158  Cl    c    -4.416357   -4.412370    0.001621    0.000000    1.485000
   159  Na    c     4.403865   -6.589579   -2.191930    0.000000    1.000000
   160  Na    c     0.002037   -6.589579   -2.191930    0.000000    1.000000
   161  Na    c     8.814445    6.627040    2.199720    0.000000    1.000000
   162  Na    c    -4.408542    6.627040    2.199720    0.000000    1.000000
   163  O     c     6.597699    2.203056   -6.601568    0.000000    0.183000
   164  O     c    -2.191796    2.203056   -6.601568    0.000000    0.183000
   165  O     c     6.622267    6.623151    6.619691    0.000000    0.183000
   166  O     c    -2.216365    6.623151    6.619691    0.000000    0.183000
   167  Na    c     6.626822    2.205162    8.810749    0.000000    1.000000
   168  Na    c    -2.220919    2.205162    8.810749    0.000000    1.000000
   169  Na    c     6.600659    6.592897   -4.409945    0.000000    1.000000
   170  Na    c    -2.194757    6.592897   -4.409945    0.000000    1.000000
   171  Na    c     6.604970    0.000492   -6.574416    0.000000    1.000000
   172  Na    c    -2.199067    0.000492   -6.574416    0.000000    1.000000
   173  Na    c     6.604762   -4.401386    6.595433    0.000000    1.000000
   174  Na    c    -2.198860   -4.401386    6.595433    0.000000    1.000000
   175  O     c     6.602543   -6.596487    2.199398    0.000000    0.183000
   176  O     c    -2.196641   -6.596487    2.199398    0.000000    0.183000
   177  O     c    11.010676    2.207288    2.206470    0.000000    0.183000
   178  O     c    -6.604774    2.207288    2.206470    0.000000    0.183000
   179  Na    c     6.615056   -6.584942    0.000303    0.000000    1.000000
   180  Na    c    -2.209153   -6.584942    0.000303    0.000000    1.000000
   181  Na    c    10.936545    2.209373   -0.000616    0.000000    1.000000
   182  Na    c    -6.530643    2.209373   -0.000616    0.000000    1.000000
   183  Na    c     6.595790    8.817697    2.205290    0.000000    1.000000
   184  Na    c    -2.189888    8.817697    2.205290    0.000000    1.000000
   185  Na    c    10.992128    0.004954    2.192221    0.000000    1.000000
   186  Na    c    -6.586225    0.004954    2.192221    0.000000    1.000000
   187  Cl    c     8.835061    4.414727   -4.404265    0.000000    1.485000
   188  Cl    c    -4.429159    4.414727   -4.404265    0.000000    1.485000
   189  Cl    c     8.825770   -4.410929    4.413609    0.000000    1.485000
   190  Cl    c    -4.419868   -4.410929    4.413609    0.000000    1.485000
   191  Na    c     8.808138    6.606231   -2.198914    0.000000    1.000000
   192  Na    c    -4.402236    6.606231   -2.198914    0.000000    1.000000
   193  Na    c     8.810590   -2.195678    6.610674    0.000000    1.000000
   194  Na    c    -4.404687   -2.195678    6.610674    0.000000    1.000000
   195  O     c     2.202951    6.598509   -6.605582    0.000000    0.183000
   196  O     c     2.202951   -6.591178    6.590092    0.000000    0.183000
   197  O     c     6.618469   -2.210928   -6.616743    0.000000    0.183000
   198  O     c    -2.212567   -2.210928   -6.616743    0.000000    0.183000
   199  Na    c     2.202951    6.625854    8.802193    0.000000    1.000000
   200  Na    c     2.202951   -6.633803   -4.406759    0.000000    1.000000
   201  Na    c     6.594298   -2.204373    8.809102    0.000000    1.000000
   202  Na    c    -2.188396   -2.204373    8.809102    0.000000    1.000000
   203  Na    c     2.202951    8.800095    6.545342    0.000000    1.000000
   204  Na    c     2.202951   -4.397547   -6.570604    0.000000    1.000000
   205  Na    c     6.590902    4.409201   -6.593788    0.000000    1.000000
   206  Na    c    -2.185000    4.409201   -6.593788    0.000000    1.000000
   207  O     c     6.609001   -6.606601   -2.202409    0.000000    0.183000
   208  O     c    -2.203099   -6.606601   -2.202409    0.000000    0.183000
   209  O     c    11.002291    2.205929   -2.204619    0.000000    0.183000
   210  O     c    -6.596388    2.205929   -2.204619    0.000000    0.183000
   211  O     c    11.010318   -2.199006    2.202933    0.000000    0.183000
   212  O     c    -6.604416   -2.199006    2.202933    0.000000    0.183000
   213  Na    c     6.590213   -6.598423    4.401958    0.000000    1.000000
   214  Na    c    -2.184311   -6.598423    4.401958    0.000000    1.000000
   215  Na    c    11.039225    2.202853    4.404913    0.000000    1.000000
   216  Na    c    -6.633323    2.202853    4.404913    0.000000    1.000000
   217  Na    c    10.997803   -2.207072    0.001139    0.000000    1.000000
   218  Na    c    -6.591901   -2.207072    0.001139    0.000000    1.000000
   219  Na    c     6.597481    8.813057   -2.215579    0.000000    1.000000
   220  Na    c    -2.191579    8.813057   -2.215579    0.000000    1.000000
   221  Na    c    10.991187    0.005443   -2.195697    0.000000    1.000000
   222  Na    c    -6.585285    0.005443   -2.195697    0.000000    1.000000
   223  Na    c    11.001330    4.409449    2.198192    0.000000    1.000000
   224  Na    c    -6.595428    4.409449    2.198192    0.000000    1.000000
   225  Cl    c     4.411838    8.837315   -4.404741    0.000000    1.485000
   226  Cl    c    -0.005935    8.837315   -4.404741    0.000000    1.485000
   227  Cl    c     4.409710   -4.406009    8.823649    0.000000    1.485000
   228  Cl    c    -0.003807   -4.406009    8.823649    0.000000    1.485000
   229  Na    c     4.407560    6.603361   -6.585117    0.000000    1.000000
   230  Na    c    -0.001657    6.603361   -6.585117    0.000000    1.000000
   231  Na    c     4.402163   -6.585199    6.605780    0.000000    1.000000
   232  Na    c     0.003740   -6.585199    6.605780    0.000000    1.000000
   233  O     c     2.202951    2.207070   11.027194    0.000000    0.183000
   234  O     c     2.202951   11.017346    2.211123    0.000000    0.183000
   235  O     c    11.010344   -2.199677   -2.200249    0.000000    0.183000
   236  O     c    -6.604442   -2.199677   -2.200249    0.000000    0.183000
   237  Na    c     2.202951    2.188633   -8.832967    0.000000    1.000000
   238  Na    c     2.202951   10.959631   -0.003438    0.000000    1.000000
   239  Na    c    11.003525   -2.191039    4.405117    0.000000    1.000000
   240  Na    c    -6.597622   -2.191039    4.405117    0.000000    1.000000
   241  Na    c     2.202951   -0.004584   10.986230    0.000000    1.000000
   242  Na    c     2.202951   -8.794643    2.161777    0.000000    1.000000
   243  Na    c    10.998713    4.406970   -2.201314    0.000000    1.000000
   244  Na    c    -6.592811    4.406970   -2.201314    0.000000    1.000000
   245  Cl    c     4.409929   -0.002876   -8.838087    0.000000    1.485000
   246  Cl    c    -0.004027   -0.002876   -8.838087    0.000000    1.485000
   247  Cl    c     8.822975   -0.000765    8.825205    0.000000    1.485000
   248  Cl    c    -4.417072   -0.000765    8.825205    0.000000    1.485000
   249  Cl    c     8.827165    8.826980    0.004028    0.000000    1.485000
   250  Cl    c    -4.421263    8.826980    0.004028    0.000000    1.485000
   251  Cl    c     8.823648   -4.420235   -4.412504    0.000000    1.485000
   252  Cl    c    -4.417746   -4.420235   -4.412504    0.000000    1.485000
   253  Na    c     4.408027    2.196128   11.013982    0.000000    1.000000
   254  Na    c    -0.002125    2.196128   11.013982    0.000000    1.000000
   255  Na    c     8.798276    2.219182   -6.543991    0.000000    1.000000
[...]
    260 y          6.608853      6.587027    -0.021826    Cartesian   -0.33
    260 z         -2.202951     -2.185269     0.017682    Cartesian   -0.80
    261 x          2.202951      2.202951     0.000000    Cartesian    0.00
    261 y         -2.202951     -2.161878     0.041073    Cartesian   -1.86
    261 z          6.608853      6.572896    -0.035958    Cartesian   -0.54
    262 x          6.608853      6.610910     0.002057    Cartesian    0.03
    262 y         -2.202951     -2.200467     0.002484    Cartesian   -0.11
    262 z         -2.202951     -2.210327    -0.007376    Cartesian    0.33
    263 x          8.811805      8.836255     0.024450    Cartesian    0.28
    263 y          0.000000      0.010812     0.010812    Cartesian    0.00
    263 z          0.000000      0.008151     0.008151    Cartesian    0.00
    264 x          4.405902      4.480145     0.074242    Cartesian    1.69
    264 y          4.405902      4.484766     0.078863    Cartesian    1.79
    264 z         -4.405902     -4.499989    -0.094087    Cartesian    2.14
    265 x          4.405902      4.427717     0.021814    Cartesian    0.50
    265 y         -4.405902     -4.427771    -0.021868    Cartesian    0.50
    265 z          4.405902      4.406594     0.000692    Cartesian    0.02
    266 x          6.608853      6.611843     0.002990    Cartesian    0.05
    266 y          2.202951      2.212810     0.009859    Cartesian    0.45
    266 z          6.608853      6.618688     0.009835    Cartesian    0.15
    267 x          6.608853      6.622160     0.013306    Cartesian    0.20
    267 y          6.608853      6.631516     0.022662    Cartesian    0.34
    267 z          2.202951      2.211458     0.008507    Cartesian    0.39
    268 x          8.811805      8.841297     0.029493    Cartesian    0.33
    268 y          0.000000      0.006120     0.006120    Cartesian    0.00
    268 z          4.405902      4.410026     0.004124    Cartesian    0.09
    269 x          8.811805      8.843079     0.031274    Cartesian    0.35
    269 y          4.405902      4.415040     0.009137    Cartesian    0.21
    269 z          0.000000      0.009210     0.009210    Cartesian    0.00
    270 x          2.202951      2.202951     0.000000    Cartesian    0.00
    270 y          2.202951      2.209253     0.006302    Cartesian    0.29
    270 z         -6.608853     -6.652253    -0.043400    Cartesian    0.66
    271 x          2.202951      2.202951     0.000000    Cartesian    0.00
    271 y          6.608853      6.601662    -0.007191    Cartesian   -0.11
    271 z          6.608853      6.599042    -0.009811    Cartesian   -0.15
    272 x          2.202951      2.202951     0.000000    Cartesian    0.00
    272 y         -6.608853     -6.574047     0.034807    Cartesian   -0.53
    272 z          2.202951      2.204382     0.001430    Cartesian    0.06
    273 x          6.608853      6.615491     0.006637    Cartesian    0.10
    273 y          6.608853      6.620320     0.011467    Cartesian    0.17
    273 z         -2.202951     -2.211803    -0.008852    Cartesian    0.40
    274 x          6.608853      6.617266     0.008413    Cartesian    0.13
    274 y         -2.202951     -2.208032    -0.005080    Cartesian    0.23
    274 z          6.608853      6.614391     0.005538    Cartesian    0.08
    275 x          4.405902      4.407518     0.001616    Cartesian    0.04
    275 y          0.000000      0.000985     0.000985    Cartesian    0.00
    275 z          8.811805      8.844461     0.032656    Cartesian    0.37
    276 x          4.405902      4.409955     0.004052    Cartesian    0.09
    276 y         -4.405902     -4.431306    -0.025403    Cartesian    0.58
    276 z         -4.405902     -4.415120    -0.009218    Cartesian    0.21
    277 x          8.811805      8.846946     0.035141    Cartesian    0.40
    277 y          4.405902      4.418629     0.012727    Cartesian    0.29
    277 z          4.405902      4.412122     0.006220    Cartesian    0.14
    278 x          4.405902      4.411296     0.005393    Cartesian    0.12
    278 y          8.811805      8.848039     0.036235    Cartesian    0.41
    278 z          0.000000     -0.001944    -0.001944    Cartesian    0.00
    279 x          2.202951      2.202951     0.000000    Cartesian    0.00
    279 y         -2.202951     -2.197559     0.005392    Cartesian   -0.24
    279 z         -6.608853     -6.612393    -0.003539    Cartesian    0.05
    280 x          2.202951      2.202951     0.000000    Cartesian    0.00
    280 y         -6.608853     -6.596238     0.012615    Cartesian   -0.19
    280 z         -2.202951     -2.208009    -0.005058    Cartesian    0.23
    281 x          4.405902      4.405951     0.000049    Cartesian    0.00
    281 y          4.405902      4.414614     0.008711    Cartesian    0.20
    281 z          8.811805      8.844585     0.032780    Cartesian    0.37
    282 x          8.811805      8.836854     0.025049    Cartesian    0.28
    282 y          0.000000     -0.004389    -0.004389    Cartesian    0.00
    282 z         -4.405902     -4.408514    -0.002612    Cartesian    0.06
    283 x          4.405902      4.413089     0.007187    Cartesian    0.16
    283 y          8.811805      8.843005     0.031200    Cartesian    0.35
    283 z          4.405902      4.414214     0.008312    Cartesian    0.19
    284 x          8.811805      8.825542     0.013737    Cartesian    0.16
    284 y         -4.405902     -4.414886    -0.008984    Cartesian    0.20
    284 z          0.000000      0.001216     0.001216    Cartesian    0.00
    285 x          6.608853      6.597673    -0.011180    Cartesian   -0.17
    285 y          2.202951      2.203056     0.000105    Cartesian    0.00
    285 z         -6.608853     -6.601589     0.007264    Cartesian   -0.11
    286 x          6.608853      6.622278     0.013424    Cartesian    0.20
    286 y          6.608853      6.623161     0.014307    Cartesian    0.22
    286 z          6.608853      6.619696     0.010843    Cartesian    0.16
    287 x          6.608853      6.602536    -0.006317    Cartesian   -0.10
    287 y         -6.608853     -6.596495     0.012359    Cartesian   -0.19
    287 z          2.202951      2.199396    -0.003556    Cartesian   -0.16
    288 x         11.014756     11.010676    -0.004080    Cartesian   -0.04
    288 y          2.202951      2.207288     0.004337    Cartesian    0.20
    288 z          2.202951      2.206484     0.003533    Cartesian    0.16
    289 x          8.811805      8.840161     0.028356    Cartesian    0.32
    289 y          4.405902      4.415890     0.009988    Cartesian    0.23
    289 z         -4.405902     -4.404515     0.001388    Cartesian   -0.03
    290 x          8.811805      8.829041     0.017237    Cartesian    0.20
    290 y         -4.405902     -4.413073    -0.007170    Cartesian    0.16
    290 z          4.405902      4.415405     0.009503    Cartesian    0.22
    291 x          2.202951      2.202951     0.000000    Cartesian    0.00
    291 y          6.608853      6.598482    -0.010372    Cartesian   -0.16
    291 z         -6.608853     -6.605611     0.003243    Cartesian   -0.05
    292 x          2.202951      2.202951     0.000000    Cartesian    0.00
    292 y         -6.608853     -6.591207     0.017646    Cartesian   -0.27
    292 z          6.608853      6.590067    -0.018786    Cartesian   -0.28
    293 x          6.608853      6.618479     0.009626    Cartesian    0.15
    293 y         -2.202951     -2.210936    -0.007985    Cartesian    0.36
    293 z         -6.608853     -6.616746    -0.007892    Cartesian    0.12
    294 x          6.608853      6.609003     0.000150    Cartesian    0.00
    294 y         -6.608853     -6.606603     0.002250    Cartesian   -0.03
    294 z         -2.202951     -2.202406     0.000545    Cartesian   -0.02
    295 x         11.014756     11.002300    -0.012456    Cartesian   -0.11
    295 y          2.202951      2.205929     0.002978    Cartesian    0.14
    295 z         -2.202951     -2.204631    -0.001679    Cartesian    0.08
    296 x         11.014756     11.010325    -0.004431    Cartesian   -0.04
    296 y         -2.202951     -2.199005     0.003946    Cartesian   -0.18
    296 z          2.202951      2.202931    -0.000020    Cartesian   -0.00
    297 x          4.405902      4.412355     0.006452    Cartesian    0.15
    297 y          8.811805      8.842106     0.030302    Cartesian    0.34
    297 z         -4.405902     -4.404217     0.001685    Cartesian   -0.04
    298 x          4.405902      4.410575     0.004673    Cartesian    0.11
    298 y         -4.405902     -4.407227    -0.001325    Cartesian    0.03
    298 z          8.811805      8.827841     0.016037    Cartesian    0.18
    299 x          2.202951      2.202951     0.000000    Cartesian    0.00
    299 y          2.202951      2.207082     0.004131    Cartesian    0.19
    299 z         11.014756     11.027176     0.012420    Cartesian    0.11
    300 x          2.202951      2.202951     0.000000    Cartesian    0.00
    300 y         11.014756     11.017347     0.002591    Cartesian    0.02
    300 z          2.202951      2.211150     0.008199    Cartesian    0.37
    301 x         11.014756     11.010346    -0.004410    Cartesian   -0.04
    301 y         -2.202951     -2.199677     0.003274    Cartesian   -0.15
    301 z         -2.202951     -2.200247     0.002704    Cartesian   -0.12
    302 x          4.405902      4.409687     0.003785    Cartesian    0.09
    302 y          0.000000     -0.002660    -0.002660    Cartesian    0.00
    302 z         -8.811805     -8.840616    -0.028811    Cartesian    0.33
    303 x          8.811805      8.824906     0.013101    Cartesian    0.15
    303 y          0.000000     -0.000694    -0.000694    Cartesian    0.00
    303 z          8.811805      8.827712     0.015907    Cartesian    0.18
    304 x          8.811805      8.829638     0.017833    Cartesian    0.20
    304 y          8.811805      8.828798     0.016993    Cartesian    0.19
    304 z          0.000000      0.005327     0.005327    Cartesian    0.00
    305 x          8.811805      8.825652     0.013847    Cartesian    0.16
    305 y         -4.405902     -4.422484    -0.016582    Cartesian    0.38
    305 z         -4.405902     -4.413192    -0.007290    Cartesian    0.17
    306 x          4.405902      4.405609    -0.000294    Cartesian   -0.01
    306 y         -8.811805     -8.830881    -0.019076    Cartesian    0.22
    306 z          0.000000      0.001286     0.001286    Cartesian    0.00
    307 x          2.202951      2.202951     0.000000    Cartesian    0.00
    307 y         11.014756     11.010703    -0.004053    Cartesian   -0.04
    307 z         -2.202951     -2.214194    -0.011243    Cartesian    0.51
    308 x          2.202951      2.202951     0.000000    Cartesian    0.00
    308 y         -2.202951     -2.211715    -0.008763    Cartesian    0.40
    308 z         11.014756     11.008975    -0.005781    Cartesian   -0.05
    309 x          6.608853      6.618534     0.009680    Cartesian    0.15
    309 y          6.608853      6.618823     0.009970    Cartesian    0.15
    309 z         -6.608853     -6.616055    -0.007202    Cartesian    0.11
    310 x          6.608853      6.608151    -0.000703    Cartesian   -0.01
    310 y         -6.608853     -6.607589     0.001264    Cartesian   -0.02
    310 z          6.608853      6.608991     0.000137    Cartesian    0.00
    311 x         11.014756     11.017877     0.003121    Cartesian    0.03
    311 y          2.202951      2.204767     0.001816    Cartesian    0.08
    311 z          6.608853      6.605323    -0.003530    Cartesian   -0.05
    312 x         11.014756     11.020221     0.005465    Cartesian    0.05
    312 y          6.608853      6.612761     0.003908    Cartesian    0.06
    312 z          2.202951      2.203746     0.000795    Cartesian    0.04
    313 x          8.811805      8.834147     0.022343    Cartesian    0.25
    313 y          8.811805      8.830169     0.018364    Cartesian    0.21
    313 z          4.405902      4.414277     0.008374    Cartesian    0.19
    314 x          4.405902      4.408515     0.002612    Cartesian    0.06
    314 y          4.405902      4.407569     0.001666    Cartesian    0.04
    314 z         -8.811805     -8.841717    -0.029912    Cartesian    0.34
    315 x          4.405902      4.405087    -0.000816    Cartesian   -0.02
    315 y         -8.811805     -8.825067    -0.013262    Cartesian    0.15
    315 z          4.405902      4.407013     0.001111    Cartesian    0.03
    316 x          8.811805      8.829825     0.018021    Cartesian    0.20
    316 y          4.405902      4.411442     0.005540    Cartesian    0.13
    316 z          8.811805      8.830609     0.018804    Cartesian    0.21
    317 x          2.202951      2.202951     0.000000    Cartesian    0.00
    317 y         -6.608853     -6.612372    -0.003519    Cartesian    0.05
    317 z         -6.608853     -6.609265    -0.000412    Cartesian    0.01
    318 x          6.608853      6.613098     0.004244    Cartesian    0.06
    318 y          2.202951      2.202580    -0.000371    Cartesian   -0.02
    318 z         11.014756     11.018365     0.003609    Cartesian    0.03
    319 x          6.608853      6.609462     0.000609    Cartesian    0.01
    319 y         11.014756     11.020570     0.005814    Cartesian    0.05
    319 z          2.202951      2.202150    -0.000802    Cartesian   -0.04
    320 x         11.014756     11.017631     0.002875    Cartesian    0.03
    320 y          6.608853      6.611972     0.003118    Cartesian    0.05
    320 z         -2.202951     -2.201284     0.001667    Cartesian   -0.08
    321 x         11.014756     11.016841     0.002086    Cartesian    0.02
    321 y         -2.202951     -2.201749     0.001202    Cartesian   -0.05
    321 z          6.608853      6.611689     0.002835    Cartesian    0.04
    322 x          4.405902      4.412719     0.006816    Cartesian    0.15
    322 y          8.811805      8.825267     0.013462    Cartesian    0.15
    322 z          8.811805      8.829047     0.017243    Cartesian    0.20
    323 x         13.217707     13.242033     0.024326    Cartesian    0.18
    323 y          0.000000     -0.001473    -0.001473    Cartesian    0.00
    323 z          0.000000     -0.000569    -0.000569    Cartesian    0.00
    324 x          6.608853      6.613263     0.004409    Cartesian    0.07
    324 y         11.014756     11.021901     0.007146    Cartesian    0.06
    324 z         -2.202951     -2.204974    -0.002023    Cartesian    0.09
    325 x          2.202951      2.202951     0.000000    Cartesian    0.00
    325 y          6.608853      6.614797     0.005944    Cartesian    0.09
    325 z         11.014756     11.017059     0.002304    Cartesian    0.02
    326 x          2.202951      2.202951     0.000000    Cartesian    0.00
    326 y         11.014756     11.018060     0.003304    Cartesian    0.03
    326 z          6.608853      6.608421    -0.000433    Cartesian   -0.01
    327 x          6.608853      6.611471     0.002618    Cartesian    0.04
    327 y         -2.202951     -2.205485    -0.002534    Cartesian    0.12
    327 z         11.014756     11.019877     0.005121    Cartesian    0.05
    328 x          4.405902      4.412968     0.007066    Cartesian    0.16
    328 y         -4.405902     -4.423108    -0.017206    Cartesian    0.39
    328 z         -8.811805     -8.832894    -0.021089    Cartesian    0.24
    329 x          4.405902      4.409837     0.003935    Cartesian    0.09
    329 y         -8.811805     -8.830521    -0.018717    Cartesian    0.21
    329 z         -4.405902     -4.415436    -0.009534    Cartesian    0.22
    330 x          8.811805      8.832015     0.020210    Cartesian    0.23
    330 y          8.811805      8.834219     0.022415    Cartesian    0.25
    330 z         -4.405902     -4.415134    -0.009231    Cartesian    0.21
    331 x          8.811805      8.826680     0.014875    Cartesian    0.17
    331 y         -4.405902     -4.419455    -0.013553    Cartesian    0.31
    331 z          8.811805      8.829016     0.017211    Cartesian    0.20
    332 x         13.217707     13.238873     0.021166    Cartesian    0.16
    332 y          0.000000     -0.002169    -0.002169    Cartesian    0.00
    332 z          4.405902      4.412509     0.006607    Cartesian    0.15
    333 x         13.217707     13.244680     0.026973    Cartesian    0.20
    333 y          4.405902      4.409248     0.003346    Cartesian    0.08
    333 z          0.000000     -0.001064    -0.001064    Cartesian    0.00
    334 x          6.608853      6.612027     0.003173    Cartesian    0.05
    334 y         -6.608853     -6.614010    -0.005157    Cartesian    0.08
    334 z         -6.608853     -6.614231    -0.005378    Cartesian    0.08
    335 x         11.014756     11.019098     0.004342    Cartesian    0.04
    335 y          2.202951      2.205846     0.002895    Cartesian    0.13
    335 z         -6.608853     -6.608216     0.000638    Cartesian   -0.01
    336 x         11.014756     11.021899     0.007143    Cartesian    0.06
    336 y          6.608853      6.613248     0.004395    Cartesian    0.07
    336 z          6.608853      6.614174     0.005321    Cartesian    0.08
    337 x         11.014756     11.017532     0.002777    Cartesian    0.03
    337 y         -6.608853     -6.610368    -0.001514    Cartesian    0.02
    337 z          2.202951      2.206403     0.003452    Cartesian    0.16
    338 x         13.217707     13.241015     0.023309    Cartesian    0.18
    338 y          4.405902      4.412022     0.006120    Cartesian    0.14
    338 z          4.405902      4.415126     0.009224    Cartesian    0.21
    339 x          8.811805      8.828403     0.016598    Cartesian    0.19
    339 y          0.000000     -0.005654    -0.005654    Cartesian    0.00
    339 z         -8.811805     -8.837610    -0.025806    Cartesian    0.29
    340 x          8.811805      8.821842     0.010037    Cartesian    0.11
    340 y         -8.811805     -8.832701    -0.020896    Cartesian    0.24
    340 z          0.000000     -0.002711    -0.002711    Cartesian    0.00
--------------------------------------------------------------------------------


  Time to end of optimisation  =       33.4683 seconds


  Peak dynamic memory used =     107.84 MB 


  Timing analysis for GULP :

--------------------------------------------------------------------------------
  Task / Subroutine                                          Time (Seconds)
--------------------------------------------------------------------------------
  Calculation of reciprocal space energy and derivatives          0.0003
  Calculation of reciprocal space energy using symmetry           0.0005
  Calculation of real space energy and derivatives                0.0019
  Calculation of real space energy using symmetry                 0.0049
  Calculation for region 1 energy and derivatives (2-b)          17.0989
  Calculation for region 2a energy                               15.1449
  Calculation for region 2b energy                                0.0040
  Calculation and manipulation of Hessian matrix                  0.0869
  Calculation of matrix inversion                                 0.9807
  Symmetry generation of equivalent positions                     0.0016
--------------------------------------------------------------------------------
  Total CPU time                                                 33.4684
--------------------------------------------------------------------------------


  Dump file written as Na3OCl.grs


  Job Finished at 13:22.53 26th September  2021                               

