********************************************************************************
*                       GENERAL UTILITY LATTICE PROGRAM                        *
*                                 Julian Gale                                  *
*                       Curtin Institute for Computation                       *
*                    School of Molecular and Life Sciences                     *
*                    Curtin University, Western Australia                      *
********************************************************************************
* Version = 5.2.0 * Last modified =  10th September 2020                       *
********************************************************************************
*  optimise     - perform optimisation run                                     *
*  conp         - constant pressure calculation                                *
*  property     - calculate properties for final geometry                      *
*  defect       - perform defect calculation after bulk run                    *
*  compare      - compare initial and final structures                         *
********************************************************************************

  Job Started  at 13:22.53 26th September  2021                               

  Number of CPUs =     1


  Total number of configurations input =      1

********************************************************************************
*  Input for Configuration =   1                                               *
********************************************************************************

  Formula = ClONa3                                                      

  Number of irreducible atoms/shells =       5


  Total number atoms/shells =       7

  Dimensionality = 3               :  Bulk   


  Symmetry :

  Crystal family                   :  Cubic       
  Crystal class  (Groth - 1921)    :  Cubic Hexakisoctahedral              

  Space group (centrosymmetric)    :  P M 3 M         

  Patterson group                  :  P m -3 m 

  Cartesian lattice vectors (Angstroms) :

        4.504000    0.000000    0.000000
        0.000000    4.504000    0.000000
        0.000000    0.000000    4.504000

  Cell parameters (Angstroms/Degrees):

  a =       4.5040    alpha =  90.0000
  b =       4.5040    beta  =  90.0000
  c =       4.5040    gamma =  90.0000

  Initial cell volume =          91.368216 Angs**3

  Temperature of configuration =   0.00     K 

  Pressure of configuration =         0.000 GPa 

  Fractional coordinates of asymmetric unit :

--------------------------------------------------------------------------------
   No.  Atomic       x           y          z         Charge      Occupancy
        Label      (Frac)      (Frac)     (Frac)        (e)         (Frac)  
--------------------------------------------------------------------------------
      1 Cl    c    0.000000    0.000000    0.000000     1.48500    1.000000    
      2 O     c    0.500000    0.500000    0.500000     0.18300    1.000000    
      3 Na    c    0.500000    0.500000    0.000000     1.00000    1.000000    
      4 Cl    s    0.000000    0.000000    0.000000    -2.48500    1.000000    
      5 O     s    0.500000    0.500000    0.500000    -2.18300    1.000000    
--------------------------------------------------------------------------------


  Constraints : 

--------------------------------------------------------------------------------
  Constraint no.      Unconstrained     Constrained    Coefficient    Offset
                         Variable         Variable
--------------------------------------------------------------------------------
           1              Strain 1        Strain 2       1.00000      0.0000
           2              Strain 1        Strain 3       1.00000      0.0000
--------------------------------------------------------------------------------


********************************************************************************
*  General input information                                                   *
********************************************************************************

  Species output for all configurations : 

--------------------------------------------------------------------------------
  Species    Type    Atomic    Atomic    Charge       Radii (Angs)     Library
                     Number     Mass       (e)     Cova   Ionic  VDW   Symbol
--------------------------------------------------------------------------------
    Na       Core       11      22.99   1.000000   0.970  0.000  2.300          
    O        Core        8      16.00   0.183000   0.730  0.000  1.360          
    O        Shell       8       0.00  -2.183000   0.730  0.000  1.360          
    Cl       Core       17      35.45   1.485000   0.990  0.000  1.650          
    Cl       Shell      17       0.00  -2.485000   0.990  0.000  1.650          
    Mg       Core       12      24.31   0.415000   1.100  0.000  0.000          
    Mg       Shell      12       0.00   1.585000   1.100  0.000  0.000          
    Ca       Core       20      40.08  -1.135000   0.990  0.000  0.000          
    Ca       Shell      20       0.00   3.135000   0.990  0.000  0.000          
    Sr       Core       38      87.62  -1.251000   1.120  0.000  0.000          
    Sr       Shell      38       0.00   3.251000   1.120  0.000  0.000          
    Ba       Core       56     137.33  -7.203000   1.340  0.000  0.000          
    Ba       Shell      56       0.00   9.203000   1.340  0.000  0.000          
    Al       Core       13      26.98   3.000000   1.350  0.000  0.000          
    Ga       Core       31      69.72   3.000000   1.220  0.000  0.000          
--------------------------------------------------------------------------------


  Lattice summation method               =    Ewald          (3-D)
                                         =    Parry          (2-D)
                                         =    Saunders et al (1-D)
  Accuracy factor for lattice sums       =   12.000


  Analytic derivatives to be used

  Time limit = Infinity

  Maximum range for interatomic potentials =    100000.000000 Angstroms

  General interatomic potentials :

--------------------------------------------------------------------------------
Atom  Types   Potential      Parameter       Value         Units   Cutoffs(Ang)
  1     2                                                            Min /  Max 
--------------------------------------------------------------------------------
O    c O    s Spring (c-s)  Spring k 2       593.71600    eV*Ang^-2 0.000  0.800
                            Spring k 4       0.0000000    eV*Ang^-4 
--------------------------------------------------------------------------------
Cl   c Cl   s Spring (c-s)  Spring k 2       29.380000    eV*Ang^-2 0.000  0.800
                            Spring k 4       0.0000000    eV*Ang^-4 
--------------------------------------------------------------------------------
Mg   c Mg   s Spring (c-s)  Spring k 2       361.60000    eV*Ang^-2 0.000  0.800
                            Spring k 4       0.0000000    eV*Ang^-4 
--------------------------------------------------------------------------------
Ca   c Ca   s Spring (c-s)  Spring k 2       110.20000    eV*Ang^-2 0.000  0.800
                            Spring k 4       0.0000000    eV*Ang^-4 
--------------------------------------------------------------------------------
Sr   c Sr   s Spring (c-s)  Spring k 2       71.700000    eV*Ang^-2 0.000  0.800
                            Spring k 4       0.0000000    eV*Ang^-4 
--------------------------------------------------------------------------------
Ba   c Ba   s Spring (c-s)  Spring k 2       495.20000    eV*Ang^-2 0.000  0.800
                            Spring k 4       0.0000000    eV*Ang^-4 
--------------------------------------------------------------------------------
Na   c Na   c Buckingham    Buckingham A     1788.1900    eV        0.000 12.000
                            Buckingham rho  0.15900000    Ang       
                            Buckingham C     0.0000000    eV*Ang^6  
--------------------------------------------------------------------------------
Na   c O    s Buckingham    Buckingham A     588.38000    eV        0.000 12.000
                            Buckingham rho  0.33800000    Ang       
                            Buckingham C     0.0000000    eV*Ang^6  
--------------------------------------------------------------------------------
Na   c Cl   s Buckingham    Buckingham A     1170.4100    eV        0.000 12.000
                            Buckingham rho  0.31500000    Ang       
                            Buckingham C     0.0000000    eV*Ang^6  
--------------------------------------------------------------------------------
O    s O    s Buckingham    Buckingham A     22764.300    eV        0.000 12.000
                            Buckingham rho  0.14900000    Ang       
                            Buckingham C     13.190000    eV*Ang^6  
--------------------------------------------------------------------------------
O    s Cl   s Buckingham    Buckingham A     8286.9100    eV        0.000 12.000
                            Buckingham rho  0.25900000    Ang       
                            Buckingham C     62.200000    eV*Ang^6  
--------------------------------------------------------------------------------
Cl   s Cl   s Buckingham    Buckingham A     1227.2000    eV        0.000 12.000
                            Buckingham rho  0.32100000    Ang       
                            Buckingham C     14.530000    eV*Ang^6  
--------------------------------------------------------------------------------
O    s Mg   s Buckingham    Buckingham A     1428.5000    eV        0.000 12.000
                            Buckingham rho  0.29450000    Ang       
                            Buckingham C     0.0000000    eV*Ang^6  
--------------------------------------------------------------------------------
Mg   s Cl   s Buckingham    Buckingham A     4914.5400    eV        0.000 12.000
                            Buckingham rho  0.25700000    Ang       
                            Buckingham C     0.0000000    eV*Ang^6  
--------------------------------------------------------------------------------
O    s Ca   s Buckingham    Buckingham A     1090.4000    eV        0.000 12.000
                            Buckingham rho  0.34370000    Ang       
                            Buckingham C     0.0000000    eV*Ang^6  
--------------------------------------------------------------------------------
Cl   s Ca   s Buckingham    Buckingham A     2302.0000    eV        0.000 12.000
                            Buckingham rho  0.34020000    Ang       
                            Buckingham C     0.0000000    eV*Ang^6  
--------------------------------------------------------------------------------
O    s Sr   s Buckingham    Buckingham A     959.10000    eV        0.000 12.000
                            Buckingham rho  0.37210000    Ang       
                            Buckingham C     0.0000000    eV*Ang^6  
--------------------------------------------------------------------------------
Cl   s Sr   s Buckingham    Buckingham A     2191.0900    eV        0.000 12.000
                            Buckingham rho  0.34570000    Ang       
                            Buckingham C     0.0000000    eV*Ang^6  
--------------------------------------------------------------------------------
O    s Ba   s Buckingham    Buckingham A     905.70000    eV        0.000 12.000
                            Buckingham rho  0.39760000    Ang       
                            Buckingham C     0.0000000    eV*Ang^6  
--------------------------------------------------------------------------------
Cl   s Ba   s Buckingham    Buckingham A     2704.5500    eV        0.000 12.000
                            Buckingham rho  0.35280000    Ang       
                            Buckingham C     0.0000000    eV*Ang^6  
--------------------------------------------------------------------------------
Al   c O    s Buckingham    Buckingham A     1725.0000    eV        0.000 12.000
                            Buckingham rho  0.28970000    Ang       
                            Buckingham C     0.0000000    eV*Ang^6  
--------------------------------------------------------------------------------
Al   c Cl   s Buckingham    Buckingham A     1736.1200    eV        0.000 12.000
                            Buckingham rho  0.29170000    Ang       
                            Buckingham C     0.0000000    eV*Ang^6  
--------------------------------------------------------------------------------
Ga   c O    s Buckingham    Buckingham A     2901.1200    eV        0.000 12.000
                            Buckingham rho  0.27420000    Ang       
                            Buckingham C     0.0000000    eV*Ang^6  
--------------------------------------------------------------------------------
Ga   c Cl   s Buckingham    Buckingham A     924.20000    eV        0.000 12.000
                            Buckingham rho  0.34280000    Ang       
                            Buckingham C     0.0000000    eV*Ang^6  
--------------------------------------------------------------------------------

********************************************************************************
*  Output for configuration   1                                                *
********************************************************************************


  Components of energy : 

--------------------------------------------------------------------------------
  Interatomic potentials     =           4.94315381 eV    
  Monopole - monopole (real) =         -10.03624526 eV    
  Monopole - monopole (recip)=         -29.53581274 eV    
  Monopole - monopole (total)=         -39.57205800 eV    
--------------------------------------------------------------------------------
  Total lattice energy       =         -34.62890419 eV    
--------------------------------------------------------------------------------
  Total lattice energy       =           -3341.1599 kJ/(mole unit cells)
--------------------------------------------------------------------------------


  Number of variables =        1

  Maximum number of calculations  =          1000
  Maximum Hessian update interval =            10
  Maximum step size               =   1.000000000
  Maximum parameter tolerance     =   0.000010000
  Maximum function  tolerance     =   0.000010000
  Maximum gradient  tolerance     =   0.001000000
  Maximum gradient  component     =   0.010000000

  Symmetry constrained optimisation

  Symmetry used for second derivatives

  Cell parameters to be optimised using strains

  Newton-Raphson optimiser to be used

  BFGS hessian update to be used

  Lower half triangular hessian to be used

  Start of bulk optimisation :

  Cycle:      0 Energy:       -34.628904  Gnorm:      4.328237  CPU:    0.016
  ** Hessian calculated **
  Cycle:      1 Energy:       -34.677667  Gnorm:      0.044008  CPU:    0.020
  Cycle:      2 Energy:       -34.677671  Gnorm:      0.003653  CPU:    0.023


  **** Optimisation achieved ****


  Final energy =     -34.67767136 eV
  Final Gnorm  =       0.00000010

  Components of energy : 

--------------------------------------------------------------------------------
  Interatomic potentials     =           5.77546103 eV    
  Monopole - monopole (real) =         -10.25970290 eV    
  Monopole - monopole (recip)=         -30.19342950 eV    
  Monopole - monopole (total)=         -40.45313239 eV    
--------------------------------------------------------------------------------
  Total lattice energy       =         -34.67767136 eV    
--------------------------------------------------------------------------------
  Total lattice energy       =           -3345.8652 kJ/(mole unit cells)
--------------------------------------------------------------------------------

  Final asymmetric unit coordinates :

--------------------------------------------------------------------------------
   No.  Atomic        x           y           z         Radius
        Label       (Frac)      (Frac)      (Frac)       (Angs) 
--------------------------------------------------------------------------------
     1  Cl    c     0.000000    0.000000    0.000000    0.000000
     2  O     c     0.500000    0.500000    0.500000    0.000000
     3  Na    c     0.500000    0.500000    0.000000    0.000000
     4  Cl    s     0.000000    0.000000    0.000000    0.000000
     5  O     s     0.500000    0.500000    0.500000    0.000000
--------------------------------------------------------------------------------

  Final Cartesian lattice vectors (Angstroms) :

        4.405902    0.000000    0.000000
        0.000000    4.405902    0.000000
        0.000000    0.000000    4.405902


  Final cell parameters and derivatives :

--------------------------------------------------------------------------------
       a            4.405902 Angstrom     dE/de1(xx)     0.000000 eV/strain
       b            4.405902 Angstrom     dE/de2(yy)     0.000000 eV/strain
       c            4.405902 Angstrom     dE/de3(zz)     0.000000 eV/strain
       alpha       90.000000 Degrees      dE/de4(yz)     0.000000 eV/strain
       beta        90.000000 Degrees      dE/de5(xz)     0.000000 eV/strain
       gamma       90.000000 Degrees      dE/de6(xy)     0.000000 eV/strain
--------------------------------------------------------------------------------

  Primitive cell volume =            85.527266 Angs**3

  Density of cell =      2.338030 g/cm**3

  Non-primitive cell volume =            85.527266 Angs**3


  Final internal derivatives :

--------------------------------------------------------------------------------
   No.  Atomic          a             b             c           Radius
        Label          (eV)          (eV)          (eV)        (eV/Angs)
--------------------------------------------------------------------------------
      1 Cl    c       0.000000      0.000000      0.000000      0.000000
      2 O     c       0.000000      0.000000      0.000000      0.000000
      3 Na    c       0.000000      0.000000      0.000000      0.000000
      4 Cl    s       0.000000      0.000000      0.000000      0.000000
      5 O     s       0.000000      0.000000      0.000000      0.000000
--------------------------------------------------------------------------------
  Maximum abs         0.000000      0.000000      0.000000      0.000000
--------------------------------------------------------------------------------

  Comparison of initial and final structures : 

--------------------------------------------------------------------------------
  Parameter   Initial value   Final value   Difference    Units      Percent
--------------------------------------------------------------------------------
    Volume        91.368216     85.527266    -5.840950    Angs**3     -6.39
    a              4.504000      4.405902    -0.098098    Angstroms   -2.18
    b              4.504000      4.405902    -0.098098    Angstroms   -2.18
    c              4.504000      4.405902    -0.098098    Angstroms   -2.18
    alpha         90.000000     90.000000     0.000000    Degrees      0.00
    beta          90.000000     90.000000     0.000000    Degrees      0.00
    gamma         90.000000     90.000000     0.000000    Degrees      0.00
      1 x          0.000000      0.000000     0.000000    Fractional   0.00
      1 y          0.000000      0.000000     0.000000    Fractional   0.00
      1 z          0.000000      0.000000     0.000000    Fractional   0.00
      2 x          0.500000      0.500000     0.000000    Fractional   0.00
      2 y          0.500000      0.500000     0.000000    Fractional   0.00
      2 z          0.500000      0.500000     0.000000    Fractional   0.00
      3 x          0.500000      0.500000     0.000000    Fractional   0.00
      3 y          0.500000      0.500000     0.000000    Fractional   0.00
      3 z          0.000000      0.000000     0.000000    Fractional   0.00
      4 x          0.000000      0.000000     0.000000    Fractional   0.00
      4 y          0.000000      0.000000     0.000000    Fractional   0.00
      4 z          0.000000      0.000000     0.000000    Fractional   0.00
      5 x          0.500000      0.500000     0.000000    Fractional   0.00
      5 y          0.500000      0.500000     0.000000    Fractional   0.00
      5 z          0.500000      0.500000     0.000000    Fractional   0.00
--------------------------------------------------------------------------------


  Born effective charge tensors : 

-------------------------------------------------------------------------------
  Atom             x           y             z
-------------------------------------------------------------------------------
    1 Cl    x      -0.9918     -0.0000     -0.0000
            y      -0.0000     -0.9918     -0.0000
            z      -0.0000     -0.0000     -0.9918
-------------------------------------------------------------------------------
    2 O     x      -2.2939      0.0000      0.0000
            y       0.0000     -2.2939      0.0000
            z       0.0000      0.0000     -2.2939
-------------------------------------------------------------------------------
    3 Na    x       1.2243      0.0000      0.0000
            y       0.0000      1.2243     -0.0000
            z       0.0000      0.0000      0.8372
-------------------------------------------------------------------------------




  Elastic Constant Matrix: (Units=GPa)

-------------------------------------------------------------------------------
  Indices      1         2         3         4         5         6    
-------------------------------------------------------------------------------
       1     82.7680   24.3534   24.3534   -0.0000    0.0000   -0.0000
       2     24.3534   82.7680   24.3534    0.0000   -0.0000   -0.0000
       3     24.3534   24.3534   82.7680    0.0000   -0.0000    0.0000
       4     -0.0000    0.0000    0.0000   24.3534   -0.0000    0.0000
       5      0.0000   -0.0000   -0.0000   -0.0000   24.3534    0.0000
       6     -0.0000   -0.0000    0.0000    0.0000    0.0000   24.3534
-------------------------------------------------------------------------------


  Elastic Compliance Matrix: (Units=1/GPa)

-------------------------------------------------------------------------------
  Indices      1         2         3         4         5         6    
-------------------------------------------------------------------------------
       1    0.013948 -0.003171 -0.003171  0.000000 -0.000000  0.000000
       2   -0.003171  0.013948 -0.003171 -0.000000  0.000000 -0.000000
       3   -0.003171 -0.003171  0.013948 -0.000000  0.000000 -0.000000
       4    0.000000 -0.000000 -0.000000  0.041062  0.000000 -0.000000
       5   -0.000000  0.000000  0.000000  0.000000  0.041062 -0.000000
       6    0.000000 -0.000000 -0.000000 -0.000000 -0.000000  0.041062
-------------------------------------------------------------------------------

  Mechanical properties :

-------------------------------------------------------------------------------
  Convention :                    Reuss         Voigt         Hill
-------------------------------------------------------------------------------
  Bulk  Modulus (GPa)     =      43.82493      43.82493      43.82493
  Shear Modulus (GPa)     =      26.08758      26.29496      26.19127
-------------------------------------------------------------------------------
  Velocity S-wave (km/s)  =       3.34035       3.35360       3.34698
  Velocity P-wave (km/s)  =       5.79842       5.80861       5.80351
-------------------------------------------------------------------------------
  Compressibility (1/GPa) =    0.02281806
-------------------------------------------------------------------------------
  Stress axis :                     x             y             z
-------------------------------------------------------------------------------
  Youngs Moduli (GPa)     =      71.69479      71.69479      71.69479
-------------------------------------------------------------------------------
  Poissons Ratio (x)      =                     0.22734       0.22734
  Poissons Ratio (y)      =       0.22734                     0.22734
  Poissons Ratio (z)      =       0.22734       0.22734
-------------------------------------------------------------------------------


  Piezoelectric Strain Matrix: (Units=C/m**2)

-------------------------------------------------------------------------------
  Indices      1         2         3         4         5         6    
-------------------------------------------------------------------------------
       x    -0.00000  -0.00000  -0.00000  -0.00000   0.00000  -0.00000
       y     0.00000  -0.00000   0.00000   0.00000  -0.00000   0.00000
       z    -0.00000  -0.00000   0.00000  -0.00000   0.00000  -0.00000
-------------------------------------------------------------------------------


  Piezoelectric Stress Matrix: (Units=10**-11 C/N)

-------------------------------------------------------------------------------
  Indices      1         2         3         4         5         6    
-------------------------------------------------------------------------------
       x     0.00000  -0.00000  -0.00000  -0.00000   0.00000  -0.00000
       y     0.00000  -0.00000   0.00000   0.00000  -0.00000   0.00000
       z    -0.00000  -0.00000   0.00000  -0.00000   0.00000  -0.00000
-------------------------------------------------------------------------------


  Static dielectric constant tensor : 

-------------------------------------------------------------------------------
              x         y         z
-------------------------------------------------------------------------------
       x    11.08357   0.00000   0.00000
       y     0.00000  11.08357   0.00000
       z     0.00000   0.00000  11.08357
--------------------------------------------------------------------------------

  High frequency dielectric constant tensor : 

-------------------------------------------------------------------------------
              x         y         z
-------------------------------------------------------------------------------
       x     1.50771   0.00000   0.00000
       y     0.00000   1.50771   0.00000
       z     0.00000   0.00000   1.50771
-------------------------------------------------------------------------------

  Static refractive indices : 

-------------------------------------------------------------------------------
    1 =    3.32920      2 =    3.32920      3 =    3.32920
-------------------------------------------------------------------------------

  High frequency refractive indices : 

-------------------------------------------------------------------------------
    1 =    1.22789      2 =    1.22789      3 =    1.22789
-------------------------------------------------------------------------------


  Time to end of optimisation =       0.0320 seconds

********************************************************************************
*  Defect calculation for configuration   1 :                                  *
********************************************************************************

  Total number of defects =      3

  Total charge on defect  =  -1.00

  Defect centre is at   0.5000   0.2500   0.2500  Frac

  Region 1 radius =  12.0000      Number of ions =    593

  Number of symmetry inequivalent region 1 ions  =    340

  Region 2 radius =  16.0000      Number of ions =    832

  Number of symmetry inequivalent region 2a ions =    454

  Region 2a mode = 4 : screened electrostatics due to region 1 
                       neglect correction to region 1 forces from 2a
                       region 2a displacements based on defects only

  Region 2a ions will only interact with defects in region 1

  Vacancies:

--------------------------------------------------------------------------------
    Specification type     Symbol/Number         x          y          z
--------------------------------------------------------------------------------
    Fractional                               0.500000   0.500000   0.000000
    Fractional                               0.500000   0.000000   0.500000
--------------------------------------------------------------------------------

  Interstitials:

--------------------------------------------------------------------------------
    Specification type     Symbol/Number         x          y          z
--------------------------------------------------------------------------------
    Atom/Fractional         Na               0.500000   0.124800   0.304800
--------------------------------------------------------------------------------


  Symmetry reduced region 1 (Relative to defect centre) :

--------------------------------------------------------------------------------
   No.   Atomic       x            y             z       Radius  Multiplicity   
         Label      (Angs)       (Angs)        (Angs)    (Angs)     
--------------------------------------------------------------------------------
     1  Na    c      0.0000      -0.5516       0.2414    0.0000     1    Defect
     2  O     c      0.0000       1.1015 *     1.1015 *  0.0000     1          
     3  Cl    c      2.2030 *    -1.1015 *    -1.1015 *  0.0000     2          
     4  Na    c      2.2030 *     1.1015 *     1.1015 *  0.0000     2          
     5  O     c      0.0000       1.1015 *    -3.3044 *  0.0000     1          
     6  O     c      0.0000      -3.3044 *     1.1015 *  0.0000     1          
     7  Na    c      0.0000       1.1015 *     3.3044 *  0.0000     1          
     8  Na    c      0.0000      -3.3044 *    -1.1015 *  0.0000     1          
     9  Na    c      0.0000      -1.1015 *    -3.3044 *  0.0000     1          
    10  Na    c      0.0000       3.3044 *     1.1015 *  0.0000     1          
    11  Cl    c      2.2030 *    -1.1015 *     3.3044 *  0.0000     2          
    12  Na    c      2.2030 *     1.1015 *    -3.3044 *  0.0000     2          
    13  Cl    c      2.2030 *     3.3044 *    -1.1015 *  0.0000     2          
    14  Na    c      2.2030 *    -3.3044 *     1.1015 *  0.0000     2          
    15  O     c      0.0000      -3.3044 *    -3.3044 *  0.0000     1          
    16  Na    c      0.0000      -3.3044 *     3.3044 *  0.0000     1          
    17  Na    c      0.0000       3.3044 *    -3.3044 *  0.0000     1          
    18  O     c      4.4059 *     1.1015 *     1.1015 *  0.0000     2          
    19  Na    c      4.4059 *     1.1015 *    -1.1015 *  0.0000     2          
    20  Na    c      4.4059 *    -1.1015 *     1.1015 *  0.0000     2          
    21  Cl    c      2.2030 *     3.3044 *     3.3044 *  0.0000     2          
    22  Na    c      2.2030 *    -3.3044 *    -3.3044 *  0.0000     2          
    23  O     c      0.0000       1.1015 *     5.5074 *  0.0000     1          
    24  O     c      0.0000       5.5074 *     1.1015 *  0.0000     1          
    25  O     c      4.4059 *     1.1015 *    -3.3044 *  0.0000     2          
    26  Na    c      0.0000       1.1015 *    -5.5074 *  0.0000     1          
    27  Na    c      0.0000       5.5074 *    -1.1015 *  0.0000     1          
    28  Na    c      4.4059 *     1.1015 *     3.3044 *  0.0000     2          
    29  Na    c      0.0000      -1.1015 *     5.5074 *  0.0000     1          
    30  Na    c      0.0000      -5.5074 *     1.1015 *  0.0000     1          
    31  Na    c      4.4059 *    -1.1015 *    -3.3044 *  0.0000     2          
    32  O     c      4.4059 *    -3.3044 *     1.1015 *  0.0000     2          
    33  Na    c      4.4059 *    -3.3044 *    -1.1015 *  0.0000     2          
    34  Na    c      4.4059 *     3.3044 *     1.1015 *  0.0000     2          
    35  Cl    c      2.2030 *    -1.1015 *    -5.5074 *  0.0000     2          
    36  Cl    c      2.2030 *    -5.5074 *    -1.1015 *  0.0000     2          
    37  Na    c      2.2030 *     1.1015 *     5.5074 *  0.0000     2          
    38  Na    c      2.2030 *     5.5074 *     1.1015 *  0.0000     2          
    39  O     c      0.0000       5.5074 *    -3.3044 *  0.0000     1          
    40  O     c      0.0000      -3.3044 *     5.5074 *  0.0000     1          
    41  Na    c      0.0000       5.5074 *     3.3044 *  0.0000     1          
    42  Na    c      0.0000      -3.3044 *    -5.5074 *  0.0000     1          
    43  Na    c      0.0000       3.3044 *     5.5074 *  0.0000     1          
    44  Na    c      0.0000      -5.5074 *    -3.3044 *  0.0000     1          
    45  O     c      4.4059 *    -3.3044 *    -3.3044 *  0.0000     2          
    46  Na    c      4.4059 *    -3.3044 *     3.3044 *  0.0000     2          
    47  Na    c      4.4059 *     3.3044 *    -3.3044 *  0.0000     2          
    48  Cl    c      6.6089 *    -1.1015 *    -1.1015 *  0.0000     2          
    49  Na    c      6.6089 *     1.1015 *     1.1015 *  0.0000     2          
    50  Cl    c      2.2030 *     3.3044 *    -5.5074 *  0.0000     2          
    51  Cl    c      2.2030 *    -5.5074 *     3.3044 *  0.0000     2          
    52  Na    c      2.2030 *     5.5074 *    -3.3044 *  0.0000     2          
    53  Na    c      2.2030 *    -3.3044 *     5.5074 *  0.0000     2          
    54  O     c      4.4059 *     1.1015 *     5.5074 *  0.0000     2          
    55  O     c      4.4059 *     5.5074 *     1.1015 *  0.0000     2          
    56  Na    c      4.4059 *     1.1015 *    -5.5074 *  0.0000     2          
    57  Na    c      4.4059 *     5.5074 *    -1.1015 *  0.0000     2          
    58  Na    c      4.4059 *    -1.1015 *     5.5074 *  0.0000     2          
    59  Na    c      4.4059 *    -5.5074 *     1.1015 *  0.0000     2          
    60  Cl    c      6.6089 *    -1.1015 *     3.3044 *  0.0000     2          
    61  Cl    c      6.6089 *     3.3044 *    -1.1015 *  0.0000     2          
    62  Na    c      6.6089 *     1.1015 *    -3.3044 *  0.0000     2          
    63  Na    c      6.6089 *    -3.3044 *     1.1015 *  0.0000     2          
    64  O     c      0.0000       1.1015 *    -7.7103 *  0.0000     1          
    65  O     c      0.0000       5.5074 *     5.5074 *  0.0000     1          
    66  O     c      0.0000      -7.7103 *     1.1015 *  0.0000     1          
    67  Na    c      0.0000       1.1015 *     7.7103 *  0.0000     1          
    68  Na    c      0.0000       5.5074 *    -5.5074 *  0.0000     1          
    69  Na    c      0.0000      -7.7103 *    -1.1015 *  0.0000     1          
    70  Na    c      0.0000      -1.1015 *    -7.7103 *  0.0000     1          
    71  Na    c      0.0000       7.7103 *     1.1015 *  0.0000     1          
    72  Na    c      0.0000      -5.5074 *     5.5074 *  0.0000     1          
    73  O     c      4.4059 *     5.5074 *    -3.3044 *  0.0000     2          
    74  O     c      4.4059 *    -3.3044 *     5.5074 *  0.0000     2          
    75  Na    c      4.4059 *     5.5074 *     3.3044 *  0.0000     2          
    76  Na    c      4.4059 *    -3.3044 *    -5.5074 *  0.0000     2          
    77  Na    c      4.4059 *     3.3044 *     5.5074 *  0.0000     2          
    78  Na    c      4.4059 *    -5.5074 *    -3.3044 *  0.0000     2          
    79  Cl    c      2.2030 *    -1.1015 *     7.7103 *  0.0000     2          
    80  Cl    c      2.2030 *    -5.5074 *    -5.5074 *  0.0000     2          
    81  Cl    c      6.6089 *     3.3044 *     3.3044 *  0.0000     2          
    82  Na    c      2.2030 *     1.1015 *    -7.7103 *  0.0000     2          
    83  Na    c      2.2030 *     5.5074 *     5.5074 *  0.0000     2          
    84  Na    c      6.6089 *    -3.3044 *    -3.3044 *  0.0000     2          
    85  Cl    c      2.2030 *     7.7103 *    -1.1015 *  0.0000     2          
    86  Na    c      2.2030 *    -7.7103 *     1.1015 *  0.0000     2          
    87  O     c      0.0000      -3.3044 *    -7.7103 *  0.0000     1          
    88  O     c      0.0000      -7.7103 *    -3.3044 *  0.0000     1          
    89  Na    c      0.0000      -3.3044 *     7.7103 *  0.0000     1          
    90  Na    c      0.0000      -7.7103 *     3.3044 *  0.0000     1          
    91  Na    c      0.0000       3.3044 *    -7.7103 *  0.0000     1          
    92  Na    c      0.0000       7.7103 *    -3.3044 *  0.0000     1          
    93  Cl    c      2.2030 *     3.3044 *     7.7103 *  0.0000     2          
    94  Cl    c      6.6089 *    -1.1015 *    -5.5074 *  0.0000     2          
    95  Na    c      2.2030 *    -3.3044 *    -7.7103 *  0.0000     2          
    96  Na    c      6.6089 *     1.1015 *     5.5074 *  0.0000     2          
    97  Cl    c      2.2030 *     7.7103 *     3.3044 *  0.0000     2          
    98  Cl    c      6.6089 *    -5.5074 *    -1.1015 *  0.0000     2          
    99  Na    c      2.2030 *    -7.7103 *    -3.3044 *  0.0000     2          
   100  Na    c      6.6089 *     5.5074 *     1.1015 *  0.0000     2          
   101  O     c      4.4059 *     1.1015 *    -7.7103 *  0.0000     2          
   102  O     c      4.4059 *     5.5074 *     5.5074 *  0.0000     2          
   103  Na    c      4.4059 *     1.1015 *     7.7103 *  0.0000     2          
   104  Na    c      4.4059 *     5.5074 *    -5.5074 *  0.0000     2          
   105  Na    c      4.4059 *    -1.1015 *    -7.7103 *  0.0000     2          
   106  Na    c      4.4059 *    -5.5074 *     5.5074 *  0.0000     2          
   107  O     c      4.4059 *    -7.7103 *     1.1015 *  0.0000     2          
   108  O     c      8.8118 *     1.1015 *     1.1015 *  0.0000     2          
   109  Na    c      4.4059 *    -7.7103 *    -1.1015 *  0.0000     2          
   110  Na    c      8.8118 *     1.1015 *    -1.1015 *  0.0000     2          
   111  Na    c      4.4059 *     7.7103 *     1.1015 *  0.0000     2          
   112  Na    c      8.8118 *    -1.1015 *     1.1015 *  0.0000     2          
   113  Cl    c      6.6089 *     3.3044 *    -5.5074 *  0.0000     2          
   114  Cl    c      6.6089 *    -5.5074 *     3.3044 *  0.0000     2          
   115  Na    c      6.6089 *     5.5074 *    -3.3044 *  0.0000     2          
   116  Na    c      6.6089 *    -3.3044 *     5.5074 *  0.0000     2          
   117  O     c      0.0000       5.5074 *    -7.7103 *  0.0000     1          
   118  O     c      0.0000      -7.7103 *     5.5074 *  0.0000     1          
   119  O     c      4.4059 *    -3.3044 *    -7.7103 *  0.0000     2          
   120  Na    c      0.0000       5.5074 *     7.7103 *  0.0000     1          
   121  Na    c      0.0000      -7.7103 *    -5.5074 *  0.0000     1          
   122  Na    c      4.4059 *    -3.3044 *     7.7103 *  0.0000     2          
   123  Na    c      0.0000       7.7103 *     5.5074 *  0.0000     1          
   124  Na    c      0.0000      -5.5074 *    -7.7103 *  0.0000     1          
   125  Na    c      4.4059 *     3.3044 *    -7.7103 *  0.0000     2          
   126  O     c      4.4059 *    -7.7103 *    -3.3044 *  0.0000     2          
   127  O     c      8.8118 *     1.1015 *    -3.3044 *  0.0000     2          
   128  O     c      8.8118 *    -3.3044 *     1.1015 *  0.0000     2          
   129  Na    c      4.4059 *    -7.7103 *     3.3044 *  0.0000     2          
   130  Na    c      8.8118 *     1.1015 *     3.3044 *  0.0000     2          
   131  Na    c      8.8118 *    -3.3044 *    -1.1015 *  0.0000     2          
   132  Na    c      4.4059 *     7.7103 *    -3.3044 *  0.0000     2          
   133  Na    c      8.8118 *    -1.1015 *    -3.3044 *  0.0000     2          
   134  Na    c      8.8118 *     3.3044 *     1.1015 *  0.0000     2          
   135  Cl    c      2.2030 *     7.7103 *    -5.5074 *  0.0000     2          
   136  Cl    c      2.2030 *    -5.5074 *     7.7103 *  0.0000     2          
   137  Na    c      2.2030 *     5.5074 *    -7.7103 *  0.0000     2          
   138  Na    c      2.2030 *    -7.7103 *     5.5074 *  0.0000     2          
   139  O     c      0.0000       1.1015 *     9.9133 *  0.0000     1          
   140  O     c      0.0000       9.9133 *     1.1015 *  0.0000     1          
   141  O     c      8.8118 *    -3.3044 *    -3.3044 *  0.0000     2          
   142  Na    c      0.0000       1.1015 *    -9.9133 *  0.0000     1          
   143  Na    c      0.0000       9.9133 *    -1.1015 *  0.0000     1          
   144  Na    c      8.8118 *    -3.3044 *     3.3044 *  0.0000     2          
   145  Na    c      0.0000      -1.1015 *     9.9133 *  0.0000     1          
   146  Na    c      0.0000      -9.9133 *     1.1015 *  0.0000     1          
   147  Na    c      8.8118 *     3.3044 *    -3.3044 *  0.0000     2          
   148  Cl    c      2.2030 *    -1.1015 *    -9.9133 *  0.0000     2          
   149  Cl    c      6.6089 *    -1.1015 *     7.7103 *  0.0000     2          
   150  Cl    c      6.6089 *     7.7103 *    -1.1015 *  0.0000     2          
   151  Cl    c      6.6089 *    -5.5074 *    -5.5074 *  0.0000     2          
   152  Na    c      2.2030 *     1.1015 *     9.9133 *  0.0000     2          
   153  Na    c      6.6089 *     1.1015 *    -7.7103 *  0.0000     2          
   154  Na    c      6.6089 *     5.5074 *     5.5074 *  0.0000     2          
   155  Na    c      6.6089 *    -7.7103 *     1.1015 *  0.0000     2          
   156  Cl    c      2.2030 *    -9.9133 *    -1.1015 *  0.0000     2          
   157  Na    c      2.2030 *     9.9133 *     1.1015 *  0.0000     2          
   158  O     c      0.0000       9.9133 *    -3.3044 *  0.0000     1          
   159  O     c      0.0000      -3.3044 *     9.9133 *  0.0000     1          
   160  O     c      4.4059 *     5.5074 *    -7.7103 *  0.0000     2          
   161  O     c      4.4059 *    -7.7103 *     5.5074 *  0.0000     2          
   162  O     c      8.8118 *     1.1015 *     5.5074 *  0.0000     2          
   163  O     c      8.8118 *     5.5074 *     1.1015 *  0.0000     2          
   164  Na    c      0.0000       9.9133 *     3.3044 *  0.0000     1          
   165  Na    c      0.0000      -3.3044 *    -9.9133 *  0.0000     1          
   166  Na    c      4.4059 *     5.5074 *     7.7103 *  0.0000     2          
   167  Na    c      4.4059 *    -7.7103 *    -5.5074 *  0.0000     2          
   168  Na    c      8.8118 *     1.1015 *    -5.5074 *  0.0000     2          
   169  Na    c      8.8118 *     5.5074 *    -1.1015 *  0.0000     2          
   170  Na    c      0.0000       3.3044 *     9.9133 *  0.0000     1          
   171  Na    c      0.0000      -9.9133 *    -3.3044 *  0.0000     1          
   172  Na    c      4.4059 *     7.7103 *     5.5074 *  0.0000     2          
   173  Na    c      4.4059 *    -5.5074 *    -7.7103 *  0.0000     2          
   174  Na    c      8.8118 *    -1.1015 *     5.5074 *  0.0000     2          
   175  Na    c      8.8118 *    -5.5074 *     1.1015 *  0.0000     2          
   176  Cl    c      6.6089 *     7.7103 *     3.3044 *  0.0000     2          
   177  Na    c      6.6089 *    -7.7103 *    -3.3044 *  0.0000     2          
   178  Cl    c      2.2030 *     3.3044 *    -9.9133 *  0.0000     2          
   179  Cl    c      2.2030 *    -9.9133 *     3.3044 *  0.0000     2          
   180  Cl    c      6.6089 *     3.3044 *     7.7103 *  0.0000     2          
   181  Na    c      2.2030 *     9.9133 *    -3.3044 *  0.0000     2          
   182  Na    c      2.2030 *    -3.3044 *     9.9133 *  0.0000     2          
   183  Na    c      6.6089 *    -3.3044 *    -7.7103 *  0.0000     2          
   184  O     c      0.0000      -7.7103 *    -7.7103 *  0.0000     1          
   185  O     c      4.4059 *     1.1015 *     9.9133 *  0.0000     2          
   186  O     c      4.4059 *     9.9133 *     1.1015 *  0.0000     2          
   187  O     c      8.8118 *     5.5074 *    -3.3044 *  0.0000     2          
   188  O     c      8.8118 *    -3.3044 *     5.5074 *  0.0000     2          
   189  Na    c      0.0000      -7.7103 *     7.7103 *  0.0000     1          
   190  Na    c      4.4059 *     1.1015 *    -9.9133 *  0.0000     2          
   191  Na    c      4.4059 *     9.9133 *    -1.1015 *  0.0000     2          
   192  Na    c      8.8118 *     5.5074 *     3.3044 *  0.0000     2          
   193  Na    c      8.8118 *    -3.3044 *    -5.5074 *  0.0000     2          
   194  Na    c      0.0000       7.7103 *    -7.7103 *  0.0000     1          
   195  Na    c      4.4059 *    -1.1015 *     9.9133 *  0.0000     2          
   196  Na    c      4.4059 *    -9.9133 *     1.1015 *  0.0000     2          
   197  Na    c      8.8118 *     3.3044 *     5.5074 *  0.0000     2          
   198  Na    c      8.8118 *    -5.5074 *    -3.3044 *  0.0000     2          
   199  Cl    c      2.2030 *     7.7103 *     7.7103 *  0.0000     2          
   200  Cl    c     11.0148 *    -1.1015 *    -1.1015 *  0.0000     2          
   201  Na    c      2.2030 *    -7.7103 *    -7.7103 *  0.0000     2          
   202  Na    c     11.0148 *     1.1015 *     1.1015 *  0.0000     2          
   203  O     c      4.4059 *     9.9133 *    -3.3044 *  0.0000     2          
   204  Na    c      4.4059 *     9.9133 *     3.3044 *  0.0000     2          
   205  Na    c      4.4059 *    -9.9133 *    -3.3044 *  0.0000     2          
   206  O     c      0.0000       5.5074 *     9.9133 *  0.0000     1          
   207  O     c      0.0000       9.9133 *     5.5074 *  0.0000     1          
   208  O     c      4.4059 *    -3.3044 *     9.9133 *  0.0000     2          
   209  Na    c      0.0000       5.5074 *    -9.9133 *  0.0000     1          
   210  Na    c      0.0000       9.9133 *    -5.5074 *  0.0000     1          
   211  Na    c      4.4059 *    -3.3044 *    -9.9133 *  0.0000     2          
   212  Na    c      0.0000      -5.5074 *     9.9133 *  0.0000     1          
   213  Na    c      0.0000      -9.9133 *     5.5074 *  0.0000     1          
   214  Na    c      4.4059 *     3.3044 *     9.9133 *  0.0000     2          
   215  Cl    c      2.2030 *    -5.5074 *    -9.9133 *  0.0000     2          
   216  Cl    c      2.2030 *    -9.9133 *    -5.5074 *  0.0000     2          
   217  Cl    c      6.6089 *     7.7103 *    -5.5074 *  0.0000     2          
   218  Cl    c      6.6089 *    -5.5074 *     7.7103 *  0.0000     2          
   219  Cl    c     11.0148 *    -1.1015 *     3.3044 *  0.0000     2          
   220  Cl    c     11.0148 *     3.3044 *    -1.1015 *  0.0000     2          
   221  Na    c      2.2030 *     5.5074 *     9.9133 *  0.0000     2          
   222  Na    c      2.2030 *     9.9133 *     5.5074 *  0.0000     2          
   223  Na    c      6.6089 *     5.5074 *    -7.7103 *  0.0000     2          
   224  Na    c      6.6089 *    -7.7103 *     5.5074 *  0.0000     2          
   225  Na    c     11.0148 *     1.1015 *    -3.3044 *  0.0000     2          
   226  Na    c     11.0148 *    -3.3044 *     1.1015 *  0.0000     2          
   227  O     c      4.4059 *    -7.7103 *    -7.7103 *  0.0000     2          
   228  O     c      8.8118 *     1.1015 *    -7.7103 *  0.0000     2          
   229  O     c      8.8118 *     5.5074 *     5.5074 *  0.0000     2          
   230  Na    c      4.4059 *    -7.7103 *     7.7103 *  0.0000     2          
   231  Na    c      8.8118 *     1.1015 *     7.7103 *  0.0000     2          
   232  Na    c      8.8118 *     5.5074 *    -5.5074 *  0.0000     2          
   233  Na    c      4.4059 *     7.7103 *    -7.7103 *  0.0000     2          
   234  Na    c      8.8118 *    -1.1015 *    -7.7103 *  0.0000     2          
   235  Na    c      8.8118 *    -5.5074 *     5.5074 *  0.0000     2          
   236  O     c      8.8118 *    -7.7103 *     1.1015 *  0.0000     2          
   237  Na    c      8.8118 *    -7.7103 *    -1.1015 *  0.0000     2          
   238  Na    c      8.8118 *     7.7103 *     1.1015 *  0.0000     2          
   239  Cl    c     11.0148 *     3.3044 *     3.3044 *  0.0000     2          
   240  Na    c     11.0148 *    -3.3044 *    -3.3044 *  0.0000     2          
   241  Cl    c      6.6089 *    -1.1015 *    -9.9133 *  0.0000     2          
   242  Cl    c      6.6089 *    -9.9133 *    -1.1015 *  0.0000     2          
   243  Na    c      6.6089 *     1.1015 *     9.9133 *  0.0000     2          
   244  Na    c      6.6089 *     9.9133 *     1.1015 *  0.0000     2          
   245  O     s      0.0000       1.1015 *     1.1015 *  0.0000     1          
   246  Cl    s      2.2030 *    -1.1015 *    -1.1015 *  0.0000     2          
   247  O     s      0.0000       1.1015 *    -3.3044 *  0.0000     1          
   248  O     s      0.0000      -3.3044 *     1.1015 *  0.0000     1          
   249  Cl    s      2.2030 *    -1.1015 *     3.3044 *  0.0000     2          
   250  Cl    s      2.2030 *     3.3044 *    -1.1015 *  0.0000     2          
   251  O     s      0.0000      -3.3044 *    -3.3044 *  0.0000     1          
   252  O     s      4.4059 *     1.1015 *     1.1015 *  0.0000     2          
   253  Cl    s      2.2030 *     3.3044 *     3.3044 *  0.0000     2          
   254  O     s      0.0000       1.1015 *     5.5074 *  0.0000     1          
   255  O     s      0.0000       5.5074 *     1.1015 *  0.0000     1          
   256  O     s      4.4059 *     1.1015 *    -3.3044 *  0.0000     2          
   257  O     s      4.4059 *    -3.3044 *     1.1015 *  0.0000     2          
   258  Cl    s      2.2030 *    -1.1015 *    -5.5074 *  0.0000     2          
   259  Cl    s      2.2030 *    -5.5074 *    -1.1015 *  0.0000     2          
   260  O     s      0.0000       5.5074 *    -3.3044 *  0.0000     1          
   261  O     s      0.0000      -3.3044 *     5.5074 *  0.0000     1          
   262  O     s      4.4059 *    -3.3044 *    -3.3044 *  0.0000     2          
   263  Cl    s      6.6089 *    -1.1015 *    -1.1015 *  0.0000     2          
   264  Cl    s      2.2030 *     3.3044 *    -5.5074 *  0.0000     2          
   265  Cl    s      2.2030 *    -5.5074 *     3.3044 *  0.0000     2          
   266  O     s      4.4059 *     1.1015 *     5.5074 *  0.0000     2          
   267  O     s      4.4059 *     5.5074 *     1.1015 *  0.0000     2          
   268  Cl    s      6.6089 *    -1.1015 *     3.3044 *  0.0000     2          
   269  Cl    s      6.6089 *     3.3044 *    -1.1015 *  0.0000     2          
   270  O     s      0.0000       1.1015 *    -7.7103 *  0.0000     1          
   271  O     s      0.0000       5.5074 *     5.5074 *  0.0000     1          
   272  O     s      0.0000      -7.7103 *     1.1015 *  0.0000     1          
   273  O     s      4.4059 *     5.5074 *    -3.3044 *  0.0000     2          
   274  O     s      4.4059 *    -3.3044 *     5.5074 *  0.0000     2          
   275  Cl    s      2.2030 *    -1.1015 *     7.7103 *  0.0000     2          
   276  Cl    s      2.2030 *    -5.5074 *    -5.5074 *  0.0000     2          
   277  Cl    s      6.6089 *     3.3044 *     3.3044 *  0.0000     2          
   278  Cl    s      2.2030 *     7.7103 *    -1.1015 *  0.0000     2          
   279  O     s      0.0000      -3.3044 *    -7.7103 *  0.0000     1          
   280  O     s      0.0000      -7.7103 *    -3.3044 *  0.0000     1          
   281  Cl    s      2.2030 *     3.3044 *     7.7103 *  0.0000     2          
   282  Cl    s      6.6089 *    -1.1015 *    -5.5074 *  0.0000     2          
   283  Cl    s      2.2030 *     7.7103 *     3.3044 *  0.0000     2          
   284  Cl    s      6.6089 *    -5.5074 *    -1.1015 *  0.0000     2          
   285  O     s      4.4059 *     1.1015 *    -7.7103 *  0.0000     2          
   286  O     s      4.4059 *     5.5074 *     5.5074 *  0.0000     2          
   287  O     s      4.4059 *    -7.7103 *     1.1015 *  0.0000     2          
   288  O     s      8.8118 *     1.1015 *     1.1015 *  0.0000     2          
   289  Cl    s      6.6089 *     3.3044 *    -5.5074 *  0.0000     2          
   290  Cl    s      6.6089 *    -5.5074 *     3.3044 *  0.0000     2          
   291  O     s      0.0000       5.5074 *    -7.7103 *  0.0000     1          
   292  O     s      0.0000      -7.7103 *     5.5074 *  0.0000     1          
   293  O     s      4.4059 *    -3.3044 *    -7.7103 *  0.0000     2          
   294  O     s      4.4059 *    -7.7103 *    -3.3044 *  0.0000     2          
   295  O     s      8.8118 *     1.1015 *    -3.3044 *  0.0000     2          
   296  O     s      8.8118 *    -3.3044 *     1.1015 *  0.0000     2          
   297  Cl    s      2.2030 *     7.7103 *    -5.5074 *  0.0000     2          
   298  Cl    s      2.2030 *    -5.5074 *     7.7103 *  0.0000     2          
   299  O     s      0.0000       1.1015 *     9.9133 *  0.0000     1          
   300  O     s      0.0000       9.9133 *     1.1015 *  0.0000     1          
   301  O     s      8.8118 *    -3.3044 *    -3.3044 *  0.0000     2          
   302  Cl    s      2.2030 *    -1.1015 *    -9.9133 *  0.0000     2          
   303  Cl    s      6.6089 *    -1.1015 *     7.7103 *  0.0000     2          
   304  Cl    s      6.6089 *     7.7103 *    -1.1015 *  0.0000     2          
   305  Cl    s      6.6089 *    -5.5074 *    -5.5074 *  0.0000     2          
   306  Cl    s      2.2030 *    -9.9133 *    -1.1015 *  0.0000     2          
   307  O     s      0.0000       9.9133 *    -3.3044 *  0.0000     1          
   308  O     s      0.0000      -3.3044 *     9.9133 *  0.0000     1          
   309  O     s      4.4059 *     5.5074 *    -7.7103 *  0.0000     2          
   310  O     s      4.4059 *    -7.7103 *     5.5074 *  0.0000     2          
   311  O     s      8.8118 *     1.1015 *     5.5074 *  0.0000     2          
   312  O     s      8.8118 *     5.5074 *     1.1015 *  0.0000     2          
   313  Cl    s      6.6089 *     7.7103 *     3.3044 *  0.0000     2          
   314  Cl    s      2.2030 *     3.3044 *    -9.9133 *  0.0000     2          
   315  Cl    s      2.2030 *    -9.9133 *     3.3044 *  0.0000     2          
   316  Cl    s      6.6089 *     3.3044 *     7.7103 *  0.0000     2          
   317  O     s      0.0000      -7.7103 *    -7.7103 *  0.0000     1          
   318  O     s      4.4059 *     1.1015 *     9.9133 *  0.0000     2          
   319  O     s      4.4059 *     9.9133 *     1.1015 *  0.0000     2          
   320  O     s      8.8118 *     5.5074 *    -3.3044 *  0.0000     2          
   321  O     s      8.8118 *    -3.3044 *     5.5074 *  0.0000     2          
   322  Cl    s      2.2030 *     7.7103 *     7.7103 *  0.0000     2          
   323  Cl    s     11.0148 *    -1.1015 *    -1.1015 *  0.0000     2          
   324  O     s      4.4059 *     9.9133 *    -3.3044 *  0.0000     2          
   325  O     s      0.0000       5.5074 *     9.9133 *  0.0000     1          
   326  O     s      0.0000       9.9133 *     5.5074 *  0.0000     1          
   327  O     s      4.4059 *    -3.3044 *     9.9133 *  0.0000     2          
   328  Cl    s      2.2030 *    -5.5074 *    -9.9133 *  0.0000     2          
   329  Cl    s      2.2030 *    -9.9133 *    -5.5074 *  0.0000     2          
   330  Cl    s      6.6089 *     7.7103 *    -5.5074 *  0.0000     2          
   331  Cl    s      6.6089 *    -5.5074 *     7.7103 *  0.0000     2          
   332  Cl    s     11.0148 *    -1.1015 *     3.3044 *  0.0000     2          
   333  Cl    s     11.0148 *     3.3044 *    -1.1015 *  0.0000     2          
   334  O     s      4.4059 *    -7.7103 *    -7.7103 *  0.0000     2          
   335  O     s      8.8118 *     1.1015 *    -7.7103 *  0.0000     2          
   336  O     s      8.8118 *     5.5074 *     5.5074 *  0.0000     2          
   337  O     s      8.8118 *    -7.7103 *     1.1015 *  0.0000     2          
   338  Cl    s     11.0148 *     3.3044 *     3.3044 *  0.0000     2          
   339  Cl    s      6.6089 *    -1.1015 *    -9.9133 *  0.0000     2          
   340  Cl    s      6.6089 *    -9.9133 *    -1.1015 *  0.0000     2          
--------------------------------------------------------------------------------

  Components of defect energy : 

--------------------------------------------------------------------------------
  Region 1 - region 1                   =      8.28095513 eV
  Region 1 - region 2a (unrelaxed)      =     -0.02755529 eV
  Region 1 - 2a (relaxed - correction)  =     -0.27676724 eV
  Region 1 (Total)                      =      7.97663260 eV
  Region 2a                             =      0.13833339 eV
  Region 2b                             =     -0.40786145 eV
--------------------------------------------------------------------------------
  Total defect energy                   =      7.70710454 eV
--------------------------------------------------------------------------------

  Largest displacement in region 2 =   0.0173 Angstroms


  Number of variables =      931

  Maximum number of calculations  =        1000
  Maximum Hessian update interval =          10
  Maximum step size               =   1.0000000
  Maximum parameter tolerance     =   0.0000100
  Maximum function  tolerance     =   0.0000100
  Maximum gradient  tolerance     =   0.0010000

  Symmetry adapted optimisation

  Symmetry to be used for second derivatives

  Newton-Raphson optimiser to be used

  BFGS hessian update to be used

  Lower half triangular hessian to be used

  Start of defect optimisation :

  Cycle:      0 Defect Energy:   7.707105  Gnorm:     0.017376  CPU:    3.177
  ** Hessian calculated **
  Cycle:      1 Defect Energy:   6.188953  Gnorm:     0.011473  CPU:    9.399
  Cycle:      2 Defect Energy:   5.119225  Gnorm:     0.003270  CPU:   17.798
  Cycle:      3 Defect Energy:   5.067239  Gnorm:     0.002275  CPU:   19.094
  Cycle:      4 Defect Energy:   5.039440  Gnorm:     0.001522  CPU:   20.384
  Cycle:      5 Defect Energy:   5.026344  Gnorm:     0.001015  CPU:   21.658
  Cycle:      6 Defect Energy:   5.017978  Gnorm:     0.000534  CPU:   22.990
  Cycle:      7 Defect Energy:   5.015619  Gnorm:     0.000313  CPU:   24.189
  Cycle:      8 Defect Energy:   5.014980  Gnorm:     0.000207  CPU:   25.403
  Cycle:      9 Defect Energy:   5.014692  Gnorm:     0.000136  CPU:   26.607
  Cycle:     10 Defect Energy:   5.014561  Gnorm:     0.000084  CPU:   27.891
  ** Hessian calculated **
  Cycle:     11 Defect Energy:   5.014527  Gnorm:     0.000059  CPU:   30.984
  Cycle:     12 Defect Energy:   5.014517  Gnorm:     0.000041  CPU:   32.244


  **** Optimisation achieved ****


  Final defect energy  =        5.01451724
  Final defect Gnorm   =        0.00002877

  Components of defect energy : 

--------------------------------------------------------------------------------
  Region 1 - region 1                   =      6.45091179 eV
  Region 1 - region 2a (unrelaxed)      =     -0.91956170 eV
  Region 1 - 2a (relaxed - correction)  =     -0.21874318 eV
  Region 1 (Total)                      =      5.31260690 eV
  Region 2a                             =      0.10938785 eV
  Region 2b                             =     -0.40747752 eV
--------------------------------------------------------------------------------
  Total defect energy                   =      5.01451724 eV
--------------------------------------------------------------------------------

  Largest displacement in region 2 =   0.0173 Angstroms

  Final coordinates of region 1 :

--------------------------------------------------------------------------------
   No.  Atomic        x           y           z          Radius      Charge
        Label       (Angs)      (Angs)      (Angs)       (Angs)       (e) 
--------------------------------------------------------------------------------
     1  Na    c     2.202951    0.549857    1.342919    0.000000    1.000000
     2  O     c     2.202951    2.342102    2.358448    0.000000    0.183000
     3  Cl    c     4.519884   -0.050092   -0.044202    0.000000    1.485000
     4  Cl    c    -0.113981   -0.050092   -0.044202    0.000000    1.485000
     5  Na    c     4.361326    2.353298    2.185726    0.000000    1.000000
     6  Na    c     0.044577    2.353298    2.185726    0.000000    1.000000
     7  O     c     2.202951    2.208532   -2.346528    0.000000    0.183000
     8  O     c     2.202951   -2.140501    2.136691    0.000000    0.183000
     9  Na    c     2.202951    2.111845    4.438482    0.000000    1.000000
    10  Na    c     2.202951   -2.306744   -0.016091    0.000000    1.000000
    11  Na    c     2.202951    0.068202   -2.183295    0.000000    1.000000
    12  Na    c     2.202951    4.401894    1.904094    0.000000    1.000000
    13  Cl    c     4.512114    0.008650    4.505447    0.000000    1.485000
    14  Cl    c    -0.106212    0.008650    4.505447    0.000000    1.485000
    15  Na    c     4.311071    2.204580   -1.944756    0.000000    1.000000
    16  Na    c     0.094831    2.204580   -1.944756    0.000000    1.000000
    17  Cl    c     4.522424    4.529133    0.009647    0.000000    1.485000
    18  Cl    c    -0.116522    4.529133    0.009647    0.000000    1.485000
    19  Na    c     4.363295   -2.016029    2.179121    0.000000    1.000000
    20  Na    c     0.042608   -2.016029    2.179121    0.000000    1.000000
    21  O     c     2.202951   -2.183077   -2.213971    0.000000    0.183000
    22  Na    c     2.202951   -1.794310    4.303246    0.000000    1.000000
    23  Na    c     2.202951    4.317773   -1.893264    0.000000    1.000000
    24  O     c     6.600052    2.234559    2.213262    0.000000    0.183000
    25  O     c    -2.194149    2.234559    2.213262    0.000000    0.183000
    26  Na    c     6.647252    2.211947    0.014597    0.000000    1.000000
    27  Na    c    -2.241350    2.211947    0.014597    0.000000    1.000000
    28  Na    c     6.585398    0.035039    2.213770    0.000000    1.000000
    29  Na    c    -2.179495    0.035039    2.213770    0.000000    1.000000
    30  Cl    c     4.503410    4.477130    4.481871    0.000000    1.485000
    31  Cl    c    -0.097507    4.477130    4.481871    0.000000    1.485000
    32  Na    c     4.403387   -2.171441   -2.208688    0.000000    1.000000
    33  Na    c     0.002515   -2.171441   -2.208688    0.000000    1.000000
    34  O     c     2.202951    2.206178    6.653505    0.000000    0.183000
    35  O     c     2.202951    6.623968    2.181226    0.000000    0.183000
    36  O     c     6.575582    2.212591   -2.181937    0.000000    0.183000
    37  O     c    -2.169679    2.212591   -2.181937    0.000000    0.183000
    38  Na    c     2.202951    2.314884   -4.439447    0.000000    1.000000
    39  Na    c     2.202951    6.790389   -0.005644    0.000000    1.000000
    40  Na    c     6.546978    2.218585    4.414590    0.000000    1.000000
    41  Na    c    -2.141076    2.218585    4.414590    0.000000    1.000000
    42  Na    c     2.202951    0.018037    6.750197    0.000000    1.000000
    43  Na    c     2.202951   -4.336391    2.330172    0.000000    1.000000
    44  Na    c     6.572202    0.012602   -2.210868    0.000000    1.000000
    45  Na    c    -2.166300    0.012602   -2.210868    0.000000    1.000000
    46  O     c     6.593503   -2.174459    2.205119    0.000000    0.183000
    47  O     c    -2.187600   -2.174459    2.205119    0.000000    0.183000
    48  Na    c     6.588654   -2.178904   -0.000868    0.000000    1.000000
    49  Na    c    -2.182751   -2.178904   -0.000868    0.000000    1.000000
    50  Na    c     6.633630    4.432578    2.200780    0.000000    1.000000
    51  Na    c    -2.227728    4.432578    2.200780    0.000000    1.000000
    52  Cl    c     4.451481   -0.069580   -4.477775    0.000000    1.485000
    53  Cl    c    -0.045579   -0.069580   -4.477775    0.000000    1.485000
    54  Cl    c     4.416411   -4.429208   -0.035945    0.000000    1.485000
    55  Cl    c    -0.010509   -4.429208   -0.035945    0.000000    1.485000
    56  Na    c     4.409769    2.206396    6.621515    0.000000    1.000000
    57  Na    c    -0.003866    2.206396    6.621515    0.000000    1.000000
    58  Na    c     4.410518    6.592373    2.201136    0.000000    1.000000
    59  Na    c    -0.004616    6.592373    2.201136    0.000000    1.000000
    60  O     c     2.202951    6.583577   -2.183603    0.000000    0.183000
    61  O     c     2.202951   -2.161185    6.565072    0.000000    0.183000
    62  Na    c     2.202951    6.459061    4.375348    0.000000    1.000000
    63  Na    c     2.202951   -2.132636   -4.409951    0.000000    1.000000
    64  Na    c     2.202951    4.397312    6.592867    0.000000    1.000000
    65  Na    c     2.202951   -4.391748   -2.283604    0.000000    1.000000
    66  O     c     6.612095   -2.202112   -2.211209    0.000000    0.183000
    67  O     c    -2.206193   -2.202112   -2.211209    0.000000    0.183000
    68  Na    c     6.590943   -2.179367    4.402787    0.000000    1.000000
    69  Na    c    -2.185041   -2.179367    4.402787    0.000000    1.000000
    70  Na    c     6.572552    4.408789   -2.192419    0.000000    1.000000
    71  Na    c    -2.166650    4.408789   -2.192419    0.000000    1.000000
    72  Cl    c     8.831373    0.011728    0.008462    0.000000    1.485000
    73  Cl    c    -4.425471    0.011728    0.008462    0.000000    1.485000
    74  Na    c     8.803886    2.213124    2.253841    0.000000    1.000000
    75  Na    c    -4.397984    2.213124    2.253841    0.000000    1.000000
    76  Cl    c     4.466914    4.468801   -4.485529    0.000000    1.485000
    77  Cl    c    -0.061011    4.468801   -4.485529    0.000000    1.485000
    78  Cl    c     4.435699   -4.433164    4.412457    0.000000    1.485000
    79  Cl    c    -0.029797   -4.433164    4.412457    0.000000    1.485000
    80  Na    c     4.401907    6.569061   -2.205559    0.000000    1.000000
    81  Na    c     0.003996    6.569061   -2.205559    0.000000    1.000000
    82  Na    c     4.401715   -2.185037    6.545769    0.000000    1.000000
    83  Na    c     0.004187   -2.185037    6.545769    0.000000    1.000000
    84  O     c     6.616776    2.213239    6.624366    0.000000    0.183000
    85  O     c    -2.210874    2.213239    6.624366    0.000000    0.183000
    86  O     c     6.623855    6.633385    2.211277    0.000000    0.183000
    87  O     c    -2.217953    6.633385    2.211277    0.000000    0.183000
    88  Na    c     6.444227    2.219299   -4.379714    0.000000    1.000000
    89  Na    c    -2.038325    2.219299   -4.379714    0.000000    1.000000
    90  Na    c     6.590549    6.613173   -0.001742    0.000000    1.000000
    91  Na    c    -2.184647    6.613173   -0.001742    0.000000    1.000000
    92  Na    c     6.595486    0.003732    6.597268    0.000000    1.000000
    93  Na    c    -2.189584    0.003732    6.597268    0.000000    1.000000
    94  Na    c     6.530860   -4.375042    2.207583    0.000000    1.000000
    95  Na    c    -2.124958   -4.375042    2.207583    0.000000    1.000000
    96  Cl    c     8.836861    0.008932    4.410049    0.000000    1.485000
    97  Cl    c    -4.430958    0.008932    4.410049    0.000000    1.485000
    98  Cl    c     8.838811    4.415260    0.009097    0.000000    1.485000
    99  Cl    c    -4.432909    4.415260    0.009097    0.000000    1.485000
   100  Na    c     8.783622    2.210148   -2.260657    0.000000    1.000000
   101  Na    c    -4.377719    2.210148   -2.260657    0.000000    1.000000
   102  Na    c     8.794563   -2.196578    2.200698    0.000000    1.000000
   103  Na    c    -4.388661   -2.196578    2.200698    0.000000    1.000000
   104  O     c     2.202951    2.211049   -6.648411    0.000000    0.183000
   105  O     c     2.202951    6.597759    6.594745    0.000000    0.183000
   106  O     c     2.202951   -6.583036    2.204745    0.000000    0.183000
   107  Na    c     2.202951    2.264508    8.836896    0.000000    1.000000
   108  Na    c     2.202951    6.413797   -4.383887    0.000000    1.000000
   109  Na    c     2.202951   -6.498081    0.001664    0.000000    1.000000
   110  Na    c     2.202951    0.008851   -6.584440    0.000000    1.000000
   111  Na    c     2.202951    8.815598    2.301946    0.000000    1.000000
   112  Na    c     2.202951   -4.361894    6.408844    0.000000    1.000000
   113  O     c     6.615489    6.619631   -2.211816    0.000000    0.183000
   114  O     c    -2.209586    6.619631   -2.211816    0.000000    0.183000
   115  O     c     6.615949   -2.208047    6.613168    0.000000    0.183000
   116  O     c    -2.210047   -2.208047    6.613168    0.000000    0.183000
   117  Na    c     6.603877    6.603137    4.412218    0.000000    1.000000
   118  Na    c    -2.197975    6.603137    4.412218    0.000000    1.000000
   119  Na    c     6.594851   -2.196562   -4.410301    0.000000    1.000000
   120  Na    c    -2.188949   -2.196562   -4.410301    0.000000    1.000000
   121  Na    c     6.601137    4.415756    6.599196    0.000000    1.000000
   122  Na    c    -2.195234    4.415756    6.599196    0.000000    1.000000
   123  Na    c     6.593608   -4.398945   -2.199305    0.000000    1.000000
   124  Na    c    -2.187705   -4.398945   -2.199305    0.000000    1.000000
   125  Cl    c     4.408468   -0.000064    8.842029    0.000000    1.485000
   126  Cl    c    -0.002565   -0.000064    8.842029    0.000000    1.485000
   127  Cl    c     4.407150   -4.426448   -4.418928    0.000000    1.485000
   128  Cl    c    -0.001248   -4.426448   -4.418928    0.000000    1.485000
   129  Cl    c     8.844234    4.417680    4.413093    0.000000    1.485000
   130  Cl    c    -4.438332    4.417680    4.413093    0.000000    1.485000
   131  Na    c     4.399653    2.197616   -6.643933    0.000000    1.000000
   132  Na    c     0.006249    2.197616   -6.643933    0.000000    1.000000
   133  Na    c     4.410190    6.600410    6.582769    0.000000    1.000000
   134  Na    c    -0.004287    6.600410    6.582769    0.000000    1.000000
   135  Na    c     8.803250   -2.192402   -2.205972    0.000000    1.000000
   136  Na    c    -4.397347   -2.192402   -2.205972    0.000000    1.000000
   137  Cl    c     4.411881    8.845754   -0.002967    0.000000    1.485000
   138  Cl    c    -0.005979    8.845754   -0.002967    0.000000    1.485000
   139  Na    c     4.397862   -6.580643    2.188475    0.000000    1.000000
   140  Na    c     0.008040   -6.580643    2.188475    0.000000    1.000000
   141  O     c     2.202951   -2.200472   -6.614948    0.000000    0.183000
   142  O     c     2.202951   -6.600862   -2.209011    0.000000    0.183000
   143  Na    c     2.202951   -2.285577    8.783323    0.000000    1.000000
   144  Na    c     2.202951   -6.665781    4.394352    0.000000    1.000000
   145  Na    c     2.202951    4.407024   -6.697813    0.000000    1.000000
   146  Na    c     2.202951    8.794540   -2.318445    0.000000    1.000000
   147  Cl    c     4.406733    4.415050    8.839559    0.000000    1.485000
   148  Cl    c    -0.000830    4.415050    8.839559    0.000000    1.485000
   149  Cl    c     8.830034   -0.002253   -4.408058    0.000000    1.485000
   150  Cl    c    -4.424132   -0.002253   -4.408058    0.000000    1.485000
   151  Na    c     4.408690   -2.186581   -6.597767    0.000000    1.000000
   152  Na    c    -0.002788   -2.186581   -6.597767    0.000000    1.000000
   153  Na    c     8.810118    2.205342    6.583248    0.000000    1.000000
   154  Na    c    -4.404216    2.205342    6.583248    0.000000    1.000000
   155  Cl    c     4.411845    8.838136    4.413078    0.000000    1.485000
   156  Cl    c    -0.005943    8.838136    4.413078    0.000000    1.485000
   157  Cl    c     8.822860   -4.410142    0.000723    0.000000    1.485000
   158  Cl    c    -4.416958   -4.410142    0.000723    0.000000    1.485000
   159  Na    c     4.404888   -6.592743   -2.190209    0.000000    1.000000
   160  Na    c     0.001014   -6.592743   -2.190209    0.000000    1.000000
   161  Na    c     8.815915    6.631768    2.199619    0.000000    1.000000
   162  Na    c    -4.410012    6.631768    2.199619    0.000000    1.000000
   163  O     c     6.598079    2.202272   -6.601129    0.000000    0.183000
   164  O     c    -2.192176    2.202272   -6.601129    0.000000    0.183000
   165  O     c     6.622270    6.623003    6.620175    0.000000    0.183000
   166  O     c    -2.216367    6.623003    6.620175    0.000000    0.183000
   167  Na    c     6.618283    2.205460    8.813805    0.000000    1.000000
   168  Na    c    -2.212380    2.205460    8.813805    0.000000    1.000000
   169  Na    c     6.601919    6.592082   -4.409473    0.000000    1.000000
   170  Na    c    -2.196017    6.592082   -4.409473    0.000000    1.000000
   171  Na    c     6.606947    0.000223   -6.574667    0.000000    1.000000
   172  Na    c    -2.201045    0.000223   -6.574667    0.000000    1.000000
   173  Na    c     6.603967   -4.402163    6.592904    0.000000    1.000000
   174  Na    c    -2.198064   -4.402163    6.592904    0.000000    1.000000
   175  O     c     6.601553   -6.596089    2.198858    0.000000    0.183000
   176  O     c    -2.195650   -6.596089    2.198858    0.000000    0.183000
   177  O     c    11.012450    2.207248    2.206085    0.000000    0.183000
   178  O     c    -6.606548    2.207248    2.206085    0.000000    0.183000
   179  Na    c     6.614308   -6.582503   -0.000326    0.000000    1.000000
   180  Na    c    -2.208406   -6.582503   -0.000326    0.000000    1.000000
   181  Na    c    10.950549    2.208071   -0.000419    0.000000    1.000000
   182  Na    c    -6.544646    2.208071   -0.000419    0.000000    1.000000
   183  Na    c     6.596067    8.818823    2.206350    0.000000    1.000000
   184  Na    c    -2.190165    8.818823    2.206350    0.000000    1.000000
   185  Na    c    10.990945    0.004120    2.195281    0.000000    1.000000
   186  Na    c    -6.585042    0.004120    2.195281    0.000000    1.000000
   187  Cl    c     8.833826    4.414617   -4.404355    0.000000    1.485000
   188  Cl    c    -4.427923    4.414617   -4.404355    0.000000    1.485000
   189  Cl    c     8.826627   -4.408162    4.412698    0.000000    1.485000
   190  Cl    c    -4.420725   -4.408162    4.412698    0.000000    1.485000
   191  Na    c     8.808320    6.606932   -2.198667    0.000000    1.000000
   192  Na    c    -4.402418    6.606932   -2.198667    0.000000    1.000000
   193  Na    c     8.809535   -2.195933    6.610053    0.000000    1.000000
   194  Na    c    -4.403633   -2.195933    6.610053    0.000000    1.000000
   195  O     c     2.202951    6.598029   -6.605739    0.000000    0.183000
   196  O     c     2.202951   -6.591668    6.589008    0.000000    0.183000
   197  O     c     6.617847   -2.210241   -6.616818    0.000000    0.183000
   198  O     c    -2.211945   -2.210241   -6.616818    0.000000    0.183000
   199  Na    c     2.202951    6.611934    8.799575    0.000000    1.000000
   200  Na    c     2.202951   -6.632607   -4.407958    0.000000    1.000000
   201  Na    c     6.590995   -2.207479    8.808317    0.000000    1.000000
   202  Na    c    -2.185093   -2.207479    8.808317    0.000000    1.000000
   203  Na    c     2.202951    8.798299    6.550045    0.000000    1.000000
   204  Na    c     2.202951   -4.400864   -6.586604    0.000000    1.000000
   205  Na    c     6.589570    4.408571   -6.595011    0.000000    1.000000
   206  Na    c    -2.183668    4.408571   -6.595011    0.000000    1.000000
   207  O     c     6.610738   -6.608589   -2.204336    0.000000    0.183000
   208  O     c    -2.204836   -6.608589   -2.204336    0.000000    0.183000
   209  O     c    11.003090    2.205816   -2.203649    0.000000    0.183000
   210  O     c    -6.597187    2.205816   -2.203649    0.000000    0.183000
   211  O     c    11.008928   -2.199220    2.203223    0.000000    0.183000
   212  O     c    -6.603025   -2.199220    2.203223    0.000000    0.183000
   213  Na    c     6.588237   -6.597105    4.402340    0.000000    1.000000
   214  Na    c    -2.182335   -6.597105    4.402340    0.000000    1.000000
   215  Na    c    11.028686    2.203135    4.405991    0.000000    1.000000
   216  Na    c    -6.622784    2.203135    4.405991    0.000000    1.000000
   217  Na    c    10.995484   -2.204945    0.001469    0.000000    1.000000
   218  Na    c    -6.589581   -2.204945    0.001469    0.000000    1.000000
   219  Na    c     6.596054    8.812608   -2.215936    0.000000    1.000000
   220  Na    c    -2.190152    8.812608   -2.215936    0.000000    1.000000
   221  Na    c    10.990395    0.005070   -2.197052    0.000000    1.000000
   222  Na    c    -6.584493    0.005070   -2.197052    0.000000    1.000000
   223  Na    c    11.002429    4.409700    2.199757    0.000000    1.000000
   224  Na    c    -6.596527    4.409700    2.199757    0.000000    1.000000
   225  Cl    c     4.411604    8.836521   -4.405029    0.000000    1.485000
   226  Cl    c    -0.005702    8.836521   -4.405029    0.000000    1.485000
   227  Cl    c     4.409690   -4.404630    8.825089    0.000000    1.485000
   228  Cl    c    -0.003788   -4.404630    8.825089    0.000000    1.485000
   229  Na    c     4.407235    6.604221   -6.584061    0.000000    1.000000
   230  Na    c    -0.001332    6.604221   -6.584061    0.000000    1.000000
   231  Na    c     4.402604   -6.582506    6.604803    0.000000    1.000000
   232  Na    c     0.003298   -6.582506    6.604803    0.000000    1.000000
   233  O     c     2.202951    2.208067   11.025656    0.000000    0.183000
   234  O     c     2.202951   11.018620    2.210924    0.000000    0.183000
   235  O     c    11.010394   -2.199706   -2.200499    0.000000    0.183000
   236  O     c    -6.604491   -2.199706   -2.200499    0.000000    0.183000
   237  Na    c     2.202951    2.178353   -8.830744    0.000000    1.000000
   238  Na    c     2.202951   10.959386   -0.004184    0.000000    1.000000
   239  Na    c    11.002145   -2.194100    4.405190    0.000000    1.000000
   240  Na    c    -6.596242   -2.194100    4.405190    0.000000    1.000000
   241  Na    c     2.202951   -0.005171   10.977508    0.000000    1.000000
   242  Na    c     2.202951   -8.799272    2.160006    0.000000    1.000000
   243  Na    c    10.999176    4.406803   -2.201872    0.000000    1.000000
   244  Na    c    -6.593274    4.406803   -2.201872    0.000000    1.000000
   245  Cl    c     4.409927   -0.002176   -8.838180    0.000000    1.485000
   246  Cl    c    -0.004024   -0.002176   -8.838180    0.000000    1.485000
   247  Cl    c     8.824262    0.000484    8.825500    0.000000    1.485000
   248  Cl    c    -4.418359    0.000484    8.825500    0.000000    1.485000
   249  Cl    c     8.827410    8.827309    0.003673    0.000000    1.485000
   250  Cl    c    -4.421508    8.827309    0.003673    0.000000    1.485000
   251  Cl    c     8.824046   -4.419352   -4.414060    0.000000    1.485000
   252  Cl    c    -4.418144   -4.419352   -4.414060    0.000000    1.485000
   253  Na    c     4.406823    2.193431   11.015462    0.000000    1.000000
   254  Na    c    -0.000921    2.193431   11.015462    0.000000    1.000000
   255  Na    c     8.798587    2.219187   -6.547856    0.000000    1.000000
[...]
    260 y          6.608853      6.583653    -0.025201    Cartesian   -0.38
    260 z         -2.202951     -2.183573     0.019378    Cartesian   -0.88
    261 x          2.202951      2.202951     0.000000    Cartesian    0.00
    261 y         -2.202951     -2.161144     0.041807    Cartesian   -1.90
    261 z          6.608853      6.565145    -0.043709    Cartesian   -0.66
    262 x          6.608853      6.612098     0.003245    Cartesian    0.05
    262 y         -2.202951     -2.202121     0.000831    Cartesian   -0.04
    262 z         -2.202951     -2.211219    -0.008268    Cartesian    0.38
    263 x          8.811805      8.836127     0.024322    Cartesian    0.28
    263 y          0.000000      0.012312     0.012312    Cartesian    0.00
    263 z          0.000000      0.009637     0.009637    Cartesian    0.00
    264 x          4.405902      4.476808     0.070906    Cartesian    1.61
    264 y          4.405902      4.479039     0.073136    Cartesian    1.66
    264 z         -4.405902     -4.497531    -0.091629    Cartesian    2.08
    265 x          4.405902      4.439516     0.033614    Cartesian    0.76
    265 y         -4.405902     -4.441482    -0.035580    Cartesian    0.81
    265 z          4.405902      4.416703     0.010801    Cartesian    0.25
    266 x          6.608853      6.616774     0.007920    Cartesian    0.12
    266 y          2.202951      2.213244     0.010292    Cartesian    0.47
    266 z          6.608853      6.624374     0.015521    Cartesian    0.23
    267 x          6.608853      6.623868     0.015014    Cartesian    0.23
    267 y          6.608853      6.633387     0.024534    Cartesian    0.37
    267 z          2.202951      2.211285     0.008333    Cartesian    0.38
    268 x          8.811805      8.840963     0.029158    Cartesian    0.33
    268 y          0.000000      0.009298     0.009298    Cartesian    0.00
    268 z          4.405902      4.410260     0.004358    Cartesian    0.10
    269 x          8.811805      8.842885     0.031080    Cartesian    0.35
    269 y          4.405902      4.415299     0.009397    Cartesian    0.21
    269 z          0.000000      0.010681     0.010681    Cartesian    0.00
    270 x          2.202951      2.202951     0.000000    Cartesian    0.00
    270 y          2.202951      2.211064     0.008113    Cartesian    0.37
    270 z         -6.608853     -6.648442    -0.039588    Cartesian    0.60
    271 x          2.202951      2.202951     0.000000    Cartesian    0.00
    271 y          6.608853      6.597738    -0.011115    Cartesian   -0.17
    271 z          6.608853      6.594755    -0.014099    Cartesian   -0.21
    272 x          2.202951      2.202951     0.000000    Cartesian    0.00
    272 y         -6.608853     -6.583071     0.025782    Cartesian   -0.39
    272 z          2.202951      2.204767     0.001816    Cartesian    0.08
    273 x          6.608853      6.615496     0.006642    Cartesian    0.10
    273 y          6.608853      6.619635     0.010782    Cartesian    0.16
    273 z         -2.202951     -2.211824    -0.008873    Cartesian    0.40
    274 x          6.608853      6.615960     0.007106    Cartesian    0.11
    274 y         -2.202951     -2.208056    -0.005105    Cartesian    0.23
    274 z          6.608853      6.613167     0.004314    Cartesian    0.07
    275 x          4.405902      4.407761     0.001858    Cartesian    0.04
    275 y          0.000000      0.000473     0.000473    Cartesian    0.00
    275 z          8.811805      8.844747     0.032942    Cartesian    0.37
    276 x          4.405902      4.407249     0.001346    Cartesian    0.03
    276 y         -4.405902     -4.429748    -0.023845    Cartesian    0.54
    276 z         -4.405902     -4.419553    -0.013651    Cartesian    0.31
    277 x          8.811805      8.848036     0.036232    Cartesian    0.41
    277 y          4.405902      4.418149     0.012247    Cartesian    0.28
    277 z          4.405902      4.413296     0.007394    Cartesian    0.17
    278 x          4.405902      4.411613     0.005711    Cartesian    0.13
    278 y          8.811805      8.848590     0.036786    Cartesian    0.42
    278 z          0.000000     -0.002655    -0.002655    Cartesian    0.00
    279 x          2.202951      2.202951     0.000000    Cartesian    0.00
    279 y         -2.202951     -2.200464     0.002487    Cartesian   -0.11
    279 z         -6.608853     -6.614946    -0.006093    Cartesian    0.09
    280 x          2.202951      2.202951     0.000000    Cartesian    0.00
    280 y         -6.608853     -6.600857     0.007996    Cartesian   -0.12
    280 z         -2.202951     -2.209026    -0.006075    Cartesian    0.28
    281 x          4.405902      4.406371     0.000469    Cartesian    0.01
    281 y          4.405902      4.415185     0.009283    Cartesian    0.21
    281 z          8.811805      8.843210     0.031405    Cartesian    0.36
    282 x          8.811805      8.834750     0.022946    Cartesian    0.26
    282 y          0.000000     -0.003688    -0.003688    Cartesian    0.00
    282 z         -4.405902     -4.408876    -0.002974    Cartesian    0.07
    283 x          4.405902      4.412564     0.006662    Cartesian    0.15
    283 y          8.811805      8.842785     0.030981    Cartesian    0.35
    283 z          4.405902      4.414044     0.008141    Cartesian    0.18
    284 x          8.811805      8.826333     0.014528    Cartesian    0.16
    284 y         -4.405902     -4.412272    -0.006369    Cartesian    0.14
    284 z          0.000000      0.000093     0.000093    Cartesian    0.00
    285 x          6.608853      6.598055    -0.010798    Cartesian   -0.16
    285 y          2.202951      2.202272    -0.000680    Cartesian   -0.03
    285 z         -6.608853     -6.601149     0.007704    Cartesian   -0.12
    286 x          6.608853      6.622280     0.013427    Cartesian    0.20
    286 y          6.608853      6.623012     0.014158    Cartesian    0.21
    286 z          6.608853      6.620181     0.011328    Cartesian    0.17
    287 x          6.608853      6.601543    -0.007310    Cartesian   -0.11
    287 y         -6.608853     -6.596100     0.012754    Cartesian   -0.19
    287 z          2.202951      2.198855    -0.004096    Cartesian   -0.19
    288 x         11.014756     11.012448    -0.002308    Cartesian   -0.02
    288 y          2.202951      2.207248     0.004297    Cartesian    0.20
    288 z          2.202951      2.206095     0.003143    Cartesian    0.14
    289 x          8.811805      8.838784     0.026980    Cartesian    0.31
    289 y          4.405902      4.416005     0.010102    Cartesian    0.23
    289 z         -4.405902     -4.404860     0.001042    Cartesian   -0.02
    290 x          8.811805      8.830224     0.018420    Cartesian    0.21
    290 y         -4.405902     -4.409961    -0.004058    Cartesian    0.09
    290 z          4.405902      4.414458     0.008555    Cartesian    0.19
    291 x          2.202951      2.202951     0.000000    Cartesian    0.00
    291 y          6.608853      6.598000    -0.010853    Cartesian   -0.16
    291 z         -6.608853     -6.605771     0.003082    Cartesian   -0.05
    292 x          2.202951      2.202951     0.000000    Cartesian    0.00
    292 y         -6.608853     -6.591701     0.017153    Cartesian   -0.26
    292 z          6.608853      6.588980    -0.019874    Cartesian   -0.30
    293 x          6.608853      6.617856     0.009003    Cartesian    0.14
    293 y         -2.202951     -2.210248    -0.007296    Cartesian    0.33
    293 z         -6.608853     -6.616820    -0.007967    Cartesian    0.12
    294 x          6.608853      6.610742     0.001888    Cartesian    0.03
    294 y         -6.608853     -6.608592     0.000261    Cartesian   -0.00
    294 z         -2.202951     -2.204334    -0.001383    Cartesian    0.06
    295 x         11.014756     11.003100    -0.011655    Cartesian   -0.11
    295 y          2.202951      2.205816     0.002865    Cartesian    0.13
    295 z         -2.202951     -2.203657    -0.000706    Cartesian    0.03
    296 x         11.014756     11.008936    -0.005820    Cartesian   -0.05
    296 y         -2.202951     -2.199220     0.003731    Cartesian   -0.17
    296 z          2.202951      2.203221     0.000270    Cartesian    0.01
    297 x          4.405902      4.412016     0.006114    Cartesian    0.14
    297 y          8.811805      8.841374     0.029570    Cartesian    0.34
    297 z         -4.405902     -4.404586     0.001316    Cartesian   -0.03
    298 x          4.405902      4.410445     0.004542    Cartesian    0.10
    298 y         -4.405902     -4.405480     0.000423    Cartesian   -0.01
    298 z          8.811805      8.829617     0.017812    Cartesian    0.20
    299 x          2.202951      2.202951     0.000000    Cartesian    0.00
    299 y          2.202951      2.208082     0.005131    Cartesian    0.23
    299 z         11.014756     11.025642     0.010886    Cartesian    0.10
    300 x          2.202951      2.202951     0.000000    Cartesian    0.00
    300 y         11.014756     11.018620     0.003864    Cartesian    0.04
    300 z          2.202951      2.210951     0.008000    Cartesian    0.36
    301 x         11.014756     11.010395    -0.004361    Cartesian   -0.04
    301 y         -2.202951     -2.199706     0.003245    Cartesian   -0.15
    301 z         -2.202951     -2.200498     0.002453    Cartesian   -0.11
    302 x          4.405902      4.409728     0.003826    Cartesian    0.09
    302 y          0.000000     -0.001922    -0.001922    Cartesian    0.00
    302 z         -8.811805     -8.841056    -0.029251    Cartesian    0.33
    303 x          8.811805      8.826370     0.014565    Cartesian    0.17
    303 y          0.000000      0.000949     0.000949    Cartesian    0.00
    303 z          8.811805      8.827780     0.015975    Cartesian    0.18
    304 x          8.811805      8.829872     0.018067    Cartesian    0.21
    304 y          8.811805      8.829098     0.017293    Cartesian    0.20
    304 z          0.000000      0.004993     0.004993    Cartesian    0.00
    305 x          8.811805      8.826109     0.014305    Cartesian    0.16
    305 y         -4.405902     -4.421346    -0.015443    Cartesian    0.35
    305 z         -4.405902     -4.414950    -0.009048    Cartesian    0.21
    306 x          4.405902      4.406055     0.000153    Cartesian    0.00
    306 y         -8.811805     -8.832932    -0.021128    Cartesian    0.24
    306 z          0.000000      0.000628     0.000628    Cartesian    0.00
    307 x          2.202951      2.202951     0.000000    Cartesian    0.00
    307 y         11.014756     11.010022    -0.004734    Cartesian   -0.04
    307 z         -2.202951     -2.214918    -0.011967    Cartesian    0.54
    308 x          2.202951      2.202951     0.000000    Cartesian    0.00
    308 y         -2.202951     -2.213043    -0.010092    Cartesian    0.46
    308 z         11.014756     11.007105    -0.007651    Cartesian   -0.07
    309 x          6.608853      6.617872     0.009018    Cartesian    0.14
    309 y          6.608853      6.618141     0.009288    Cartesian    0.14
    309 z         -6.608853     -6.615458    -0.006604    Cartesian    0.10
    310 x          6.608853      6.609578     0.000724    Cartesian    0.01
    310 y         -6.608853     -6.608493     0.000360    Cartesian   -0.01
    310 z          6.608853      6.610147     0.001293    Cartesian    0.02
    311 x         11.014756     11.019105     0.004349    Cartesian    0.04
    311 y          2.202951      2.204726     0.001775    Cartesian    0.08
    311 z          6.608853      6.607779    -0.001075    Cartesian   -0.02
    312 x         11.014756     11.020729     0.005973    Cartesian    0.05
    312 y          6.608853      6.613346     0.004493    Cartesian    0.07
    312 z          2.202951      2.203893     0.000942    Cartesian    0.04
    313 x          8.811805      8.834410     0.022606    Cartesian    0.26
    313 y          8.811805      8.830584     0.018779    Cartesian    0.21
    313 z          4.405902      4.413876     0.007974    Cartesian    0.18
    314 x          4.405902      4.408812     0.002909    Cartesian    0.07
    314 y          4.405902      4.408175     0.002273    Cartesian    0.05
    314 z         -8.811805     -8.840403    -0.028598    Cartesian    0.32
    315 x          4.405902      4.405255    -0.000648    Cartesian   -0.01
    315 y         -8.811805     -8.826965    -0.015161    Cartesian    0.17
    315 z          4.405902      4.406316     0.000414    Cartesian    0.01
    316 x          8.811805      8.831283     0.019478    Cartesian    0.22
    316 y          4.405902      4.412075     0.006173    Cartesian    0.14
    316 z          8.811805      8.830875     0.019071    Cartesian    0.22
    317 x          2.202951      2.202951     0.000000    Cartesian    0.00
    317 y         -6.608853     -6.613168    -0.004315    Cartesian    0.07
    317 z         -6.608853     -6.611051    -0.002198    Cartesian    0.03
    318 x          6.608853      6.612005     0.003152    Cartesian    0.05
    318 y          2.202951      2.202497    -0.000454    Cartesian   -0.02
    318 z         11.014756     11.019363     0.004608    Cartesian    0.04
    319 x          6.608853      6.609488     0.000635    Cartesian    0.01
    319 y         11.014756     11.021036     0.006280    Cartesian    0.06
    319 z          2.202951      2.202254    -0.000697    Cartesian   -0.03
    320 x         11.014756     11.017502     0.002746    Cartesian    0.02
    320 y          6.608853      6.611894     0.003040    Cartesian    0.05
    320 z         -2.202951     -2.201520     0.001431    Cartesian   -0.06
    321 x         11.014756     11.016681     0.001925    Cartesian    0.02
    321 y         -2.202951     -2.201681     0.001271    Cartesian   -0.06
    321 z          6.608853      6.611535     0.002681    Cartesian    0.04
    322 x          4.405902      4.412981     0.007079    Cartesian    0.16
    322 y          8.811805      8.824811     0.013006    Cartesian    0.15
    322 z          8.811805      8.827621     0.015816    Cartesian    0.18
    323 x         13.217707     13.241561     0.023854    Cartesian    0.18
    323 y          0.000000     -0.001446    -0.001446    Cartesian    0.00
    323 z          0.000000     -0.000982    -0.000982    Cartesian    0.00
    324 x          6.608853      6.613145     0.004292    Cartesian    0.06
    324 y         11.014756     11.021713     0.006958    Cartesian    0.06
    324 z         -2.202951     -2.205113    -0.002161    Cartesian    0.10
    325 x          2.202951      2.202951     0.000000    Cartesian    0.00
    325 y          6.608853      6.613857     0.005003    Cartesian    0.08
    325 z         11.014756     11.016578     0.001822    Cartesian    0.02
    326 x          2.202951      2.202951     0.000000    Cartesian    0.00
    326 y         11.014756     11.017401     0.002645    Cartesian    0.02
    326 z          6.608853      6.608847    -0.000007    Cartesian   -0.00
    327 x          6.608853      6.611579     0.002726    Cartesian    0.04
    327 y         -2.202951     -2.205441    -0.002489    Cartesian    0.11
    327 z         11.014756     11.019732     0.004976    Cartesian    0.05
    328 x          4.405902      4.412875     0.006972    Cartesian    0.16
    328 y         -4.405902     -4.423252    -0.017349    Cartesian    0.39
    328 z         -8.811805     -8.832803    -0.020999    Cartesian    0.24
    329 x          4.405902      4.410358     0.004456    Cartesian    0.10
    329 y         -8.811805     -8.830896    -0.019092    Cartesian    0.22
    329 z         -4.405902     -4.417699    -0.011797    Cartesian    0.27
    330 x          8.811805      8.831592     0.019787    Cartesian    0.22
    330 y          8.811805      8.833836     0.022031    Cartesian    0.25
    330 z         -4.405902     -4.415440    -0.009537    Cartesian    0.22
    331 x          8.811805      8.827520     0.015716    Cartesian    0.18
    331 y         -4.405902     -4.418574    -0.012671    Cartesian    0.29
    331 z          8.811805      8.829254     0.017449    Cartesian    0.20
    332 x         13.217707     13.239468     0.021761    Cartesian    0.16
    332 y          0.000000     -0.002437    -0.002437    Cartesian    0.00
    332 z          4.405902      4.412219     0.006316    Cartesian    0.14
    333 x         13.217707     13.243761     0.026054    Cartesian    0.20
    333 y          4.405902      4.410058     0.004155    Cartesian    0.09
    333 z          0.000000     -0.001638    -0.001638    Cartesian    0.00
    334 x          6.608853      6.612169     0.003316    Cartesian    0.05
    334 y         -6.608853     -6.614098    -0.005245    Cartesian    0.08
    334 z         -6.608853     -6.614381    -0.005528    Cartesian    0.08
    335 x         11.014756     11.018500     0.003745    Cartesian    0.03
    335 y          2.202951      2.205904     0.002953    Cartesian    0.13
    335 z         -6.608853     -6.608447     0.000406    Cartesian   -0.01
    336 x         11.014756     11.022109     0.007353    Cartesian    0.07
    336 y          6.608853      6.613444     0.004591    Cartesian    0.07
    336 z          6.608853      6.614072     0.005218    Cartesian    0.08
    337 x         11.014756     11.017316     0.002561    Cartesian    0.02
    337 y         -6.608853     -6.609921    -0.001068    Cartesian    0.02
    337 z          2.202951      2.206278     0.003327    Cartesian    0.15
    338 x         13.217707     13.241310     0.023603    Cartesian    0.18
    338 y          4.405902      4.413133     0.007231    Cartesian    0.16
    338 z          4.405902      4.415124     0.009222    Cartesian    0.21
    339 x          8.811805      8.827726     0.015922    Cartesian    0.18
    339 y          0.000000     -0.005274    -0.005274    Cartesian    0.00
    339 z         -8.811805     -8.837540    -0.025735    Cartesian    0.29
    340 x          8.811805      8.822870     0.011066    Cartesian    0.13
    340 y         -8.811805     -8.833401    -0.021596    Cartesian    0.25
    340 z          0.000000     -0.003451    -0.003451    Cartesian    0.00
--------------------------------------------------------------------------------


  Time to end of optimisation  =       33.4229 seconds


  Peak dynamic memory used =     107.84 MB 


  Timing analysis for GULP :

--------------------------------------------------------------------------------
  Task / Subroutine                                          Time (Seconds)
--------------------------------------------------------------------------------
  Calculation of reciprocal space energy and derivatives          0.0007
  Calculation of reciprocal space energy using symmetry           0.0012
  Calculation of real space energy and derivatives                0.0036
  Calculation of real space energy using symmetry                 0.0116
  Calculation for region 1 energy and derivatives (2-b)          17.8116
  Calculation for region 2a energy                               14.3731
  Calculation for region 2b energy                                0.0043
  Calculation and manipulation of Hessian matrix                  0.0867
  Calculation of matrix inversion                                 0.9538
  Symmetry generation of equivalent positions                     0.0046
--------------------------------------------------------------------------------
  Total CPU time                                                 33.4230
--------------------------------------------------------------------------------


  Dump file written as Na3OCl.grs


  Job Finished at 13:23.26 26th September  2021                               

