********************************************************************************
*                       GENERAL UTILITY LATTICE PROGRAM                        *
*                                 Julian Gale                                  *
*                       Curtin Institute for Computation                       *
*                    School of Molecular and Life Sciences                     *
*                    Curtin University, Western Australia                      *
********************************************************************************
* Version = 5.2.0 * Last modified =  10th September 2020                       *
********************************************************************************
*  optimise     - perform optimisation run                                     *
*  conp         - constant pressure calculation                                *
*  property     - calculate properties for final geometry                      *
*  defect       - perform defect calculation after bulk run                    *
*  compare      - compare initial and final structures                         *
********************************************************************************

  Job Started  at 13:24.00 26th September  2021                               

  Number of CPUs =     1


  Total number of configurations input =      1

********************************************************************************
*  Input for Configuration =   1                                               *
********************************************************************************

  Formula = ClONa3                                                      

  Number of irreducible atoms/shells =       5


  Total number atoms/shells =       7

  Dimensionality = 3               :  Bulk   


  Symmetry :

  Crystal family                   :  Cubic       
  Crystal class  (Groth - 1921)    :  Cubic Hexakisoctahedral              

  Space group (centrosymmetric)    :  P M 3 M         

  Patterson group                  :  P m -3 m 

  Cartesian lattice vectors (Angstroms) :

        4.504000    0.000000    0.000000
        0.000000    4.504000    0.000000
        0.000000    0.000000    4.504000

  Cell parameters (Angstroms/Degrees):

  a =       4.5040    alpha =  90.0000
  b =       4.5040    beta  =  90.0000
  c =       4.5040    gamma =  90.0000

  Initial cell volume =          91.368216 Angs**3

  Temperature of configuration =   0.00     K 

  Pressure of configuration =         0.000 GPa 

  Fractional coordinates of asymmetric unit :

--------------------------------------------------------------------------------
   No.  Atomic       x           y          z         Charge      Occupancy
        Label      (Frac)      (Frac)     (Frac)        (e)         (Frac)  
--------------------------------------------------------------------------------
      1 Cl    c    0.000000    0.000000    0.000000     1.48500    1.000000    
      2 O     c    0.500000    0.500000    0.500000     0.18300    1.000000    
      3 Na    c    0.500000    0.500000    0.000000     1.00000    1.000000    
      4 Cl    s    0.000000    0.000000    0.000000    -2.48500    1.000000    
      5 O     s    0.500000    0.500000    0.500000    -2.18300    1.000000    
--------------------------------------------------------------------------------


  Constraints : 

--------------------------------------------------------------------------------
  Constraint no.      Unconstrained     Constrained    Coefficient    Offset
                         Variable         Variable
--------------------------------------------------------------------------------
           1              Strain 1        Strain 2       1.00000      0.0000
           2              Strain 1        Strain 3       1.00000      0.0000
--------------------------------------------------------------------------------


********************************************************************************
*  General input information                                                   *
********************************************************************************

  Species output for all configurations : 

--------------------------------------------------------------------------------
  Species    Type    Atomic    Atomic    Charge       Radii (Angs)     Library
                     Number     Mass       (e)     Cova   Ionic  VDW   Symbol
--------------------------------------------------------------------------------
    Na       Core       11      22.99   1.000000   0.970  0.000  2.300          
    O        Core        8      16.00   0.183000   0.730  0.000  1.360          
    O        Shell       8       0.00  -2.183000   0.730  0.000  1.360          
    Cl       Core       17      35.45   1.485000   0.990  0.000  1.650          
    Cl       Shell      17       0.00  -2.485000   0.990  0.000  1.650          
    Mg       Core       12      24.31   0.415000   1.100  0.000  0.000          
    Mg       Shell      12       0.00   1.585000   1.100  0.000  0.000          
    Ca       Core       20      40.08  -1.135000   0.990  0.000  0.000          
    Ca       Shell      20       0.00   3.135000   0.990  0.000  0.000          
    Sr       Core       38      87.62  -1.251000   1.120  0.000  0.000          
    Sr       Shell      38       0.00   3.251000   1.120  0.000  0.000          
    Ba       Core       56     137.33  -7.203000   1.340  0.000  0.000          
    Ba       Shell      56       0.00   9.203000   1.340  0.000  0.000          
    Al       Core       13      26.98   3.000000   1.350  0.000  0.000          
    Ga       Core       31      69.72   3.000000   1.220  0.000  0.000          
--------------------------------------------------------------------------------


  Lattice summation method               =    Ewald          (3-D)
                                         =    Parry          (2-D)
                                         =    Saunders et al (1-D)
  Accuracy factor for lattice sums       =   12.000


  Analytic derivatives to be used

  Time limit = Infinity

  Maximum range for interatomic potentials =    100000.000000 Angstroms

  General interatomic potentials :

--------------------------------------------------------------------------------
Atom  Types   Potential      Parameter       Value         Units   Cutoffs(Ang)
  1     2                                                            Min /  Max 
--------------------------------------------------------------------------------
O    c O    s Spring (c-s)  Spring k 2       593.71600    eV*Ang^-2 0.000  0.800
                            Spring k 4       0.0000000    eV*Ang^-4 
--------------------------------------------------------------------------------
Cl   c Cl   s Spring (c-s)  Spring k 2       29.380000    eV*Ang^-2 0.000  0.800
                            Spring k 4       0.0000000    eV*Ang^-4 
--------------------------------------------------------------------------------
Mg   c Mg   s Spring (c-s)  Spring k 2       361.60000    eV*Ang^-2 0.000  0.800
                            Spring k 4       0.0000000    eV*Ang^-4 
--------------------------------------------------------------------------------
Ca   c Ca   s Spring (c-s)  Spring k 2       110.20000    eV*Ang^-2 0.000  0.800
                            Spring k 4       0.0000000    eV*Ang^-4 
--------------------------------------------------------------------------------
Sr   c Sr   s Spring (c-s)  Spring k 2       71.700000    eV*Ang^-2 0.000  0.800
                            Spring k 4       0.0000000    eV*Ang^-4 
--------------------------------------------------------------------------------
Ba   c Ba   s Spring (c-s)  Spring k 2       495.20000    eV*Ang^-2 0.000  0.800
                            Spring k 4       0.0000000    eV*Ang^-4 
--------------------------------------------------------------------------------
Na   c Na   c Buckingham    Buckingham A     1788.1900    eV        0.000 12.000
                            Buckingham rho  0.15900000    Ang       
                            Buckingham C     0.0000000    eV*Ang^6  
--------------------------------------------------------------------------------
Na   c O    s Buckingham    Buckingham A     588.38000    eV        0.000 12.000
                            Buckingham rho  0.33800000    Ang       
                            Buckingham C     0.0000000    eV*Ang^6  
--------------------------------------------------------------------------------
Na   c Cl   s Buckingham    Buckingham A     1170.4100    eV        0.000 12.000
                            Buckingham rho  0.31500000    Ang       
                            Buckingham C     0.0000000    eV*Ang^6  
--------------------------------------------------------------------------------
O    s O    s Buckingham    Buckingham A     22764.300    eV        0.000 12.000
                            Buckingham rho  0.14900000    Ang       
                            Buckingham C     13.190000    eV*Ang^6  
--------------------------------------------------------------------------------
O    s Cl   s Buckingham    Buckingham A     8286.9100    eV        0.000 12.000
                            Buckingham rho  0.25900000    Ang       
                            Buckingham C     62.200000    eV*Ang^6  
--------------------------------------------------------------------------------
Cl   s Cl   s Buckingham    Buckingham A     1227.2000    eV        0.000 12.000
                            Buckingham rho  0.32100000    Ang       
                            Buckingham C     14.530000    eV*Ang^6  
--------------------------------------------------------------------------------
O    s Mg   s Buckingham    Buckingham A     1428.5000    eV        0.000 12.000
                            Buckingham rho  0.29450000    Ang       
                            Buckingham C     0.0000000    eV*Ang^6  
--------------------------------------------------------------------------------
Mg   s Cl   s Buckingham    Buckingham A     4914.5400    eV        0.000 12.000
                            Buckingham rho  0.25700000    Ang       
                            Buckingham C     0.0000000    eV*Ang^6  
--------------------------------------------------------------------------------
O    s Ca   s Buckingham    Buckingham A     1090.4000    eV        0.000 12.000
                            Buckingham rho  0.34370000    Ang       
                            Buckingham C     0.0000000    eV*Ang^6  
--------------------------------------------------------------------------------
Cl   s Ca   s Buckingham    Buckingham A     2302.0000    eV        0.000 12.000
                            Buckingham rho  0.34020000    Ang       
                            Buckingham C     0.0000000    eV*Ang^6  
--------------------------------------------------------------------------------
O    s Sr   s Buckingham    Buckingham A     959.10000    eV        0.000 12.000
                            Buckingham rho  0.37210000    Ang       
                            Buckingham C     0.0000000    eV*Ang^6  
--------------------------------------------------------------------------------
Cl   s Sr   s Buckingham    Buckingham A     2191.0900    eV        0.000 12.000
                            Buckingham rho  0.34570000    Ang       
                            Buckingham C     0.0000000    eV*Ang^6  
--------------------------------------------------------------------------------
O    s Ba   s Buckingham    Buckingham A     905.70000    eV        0.000 12.000
                            Buckingham rho  0.39760000    Ang       
                            Buckingham C     0.0000000    eV*Ang^6  
--------------------------------------------------------------------------------
Cl   s Ba   s Buckingham    Buckingham A     2704.5500    eV        0.000 12.000
                            Buckingham rho  0.35280000    Ang       
                            Buckingham C     0.0000000    eV*Ang^6  
--------------------------------------------------------------------------------
Al   c O    s Buckingham    Buckingham A     1725.0000    eV        0.000 12.000
                            Buckingham rho  0.28970000    Ang       
                            Buckingham C     0.0000000    eV*Ang^6  
--------------------------------------------------------------------------------
Al   c Cl   s Buckingham    Buckingham A     1736.1200    eV        0.000 12.000
                            Buckingham rho  0.29170000    Ang       
                            Buckingham C     0.0000000    eV*Ang^6  
--------------------------------------------------------------------------------
Ga   c O    s Buckingham    Buckingham A     2901.1200    eV        0.000 12.000
                            Buckingham rho  0.27420000    Ang       
                            Buckingham C     0.0000000    eV*Ang^6  
--------------------------------------------------------------------------------
Ga   c Cl   s Buckingham    Buckingham A     924.20000    eV        0.000 12.000
                            Buckingham rho  0.34280000    Ang       
                            Buckingham C     0.0000000    eV*Ang^6  
--------------------------------------------------------------------------------

********************************************************************************
*  Output for configuration   1                                                *
********************************************************************************


  Components of energy : 

--------------------------------------------------------------------------------
  Interatomic potentials     =           4.94315381 eV    
  Monopole - monopole (real) =         -10.03624526 eV    
  Monopole - monopole (recip)=         -29.53581274 eV    
  Monopole - monopole (total)=         -39.57205800 eV    
--------------------------------------------------------------------------------
  Total lattice energy       =         -34.62890419 eV    
--------------------------------------------------------------------------------
  Total lattice energy       =           -3341.1599 kJ/(mole unit cells)
--------------------------------------------------------------------------------


  Number of variables =        1

  Maximum number of calculations  =          1000
  Maximum Hessian update interval =            10
  Maximum step size               =   1.000000000
  Maximum parameter tolerance     =   0.000010000
  Maximum function  tolerance     =   0.000010000
  Maximum gradient  tolerance     =   0.001000000
  Maximum gradient  component     =   0.010000000

  Symmetry constrained optimisation

  Symmetry used for second derivatives

  Cell parameters to be optimised using strains

  Newton-Raphson optimiser to be used

  BFGS hessian update to be used

  Lower half triangular hessian to be used

  Start of bulk optimisation :

  Cycle:      0 Energy:       -34.628904  Gnorm:      4.328237  CPU:    0.015
  ** Hessian calculated **
  Cycle:      1 Energy:       -34.677667  Gnorm:      0.044008  CPU:    0.019
  Cycle:      2 Energy:       -34.677671  Gnorm:      0.003653  CPU:    0.022


  **** Optimisation achieved ****


  Final energy =     -34.67767136 eV
  Final Gnorm  =       0.00000010

  Components of energy : 

--------------------------------------------------------------------------------
  Interatomic potentials     =           5.77546103 eV    
  Monopole - monopole (real) =         -10.25970290 eV    
  Monopole - monopole (recip)=         -30.19342950 eV    
  Monopole - monopole (total)=         -40.45313239 eV    
--------------------------------------------------------------------------------
  Total lattice energy       =         -34.67767136 eV    
--------------------------------------------------------------------------------
  Total lattice energy       =           -3345.8652 kJ/(mole unit cells)
--------------------------------------------------------------------------------

  Final asymmetric unit coordinates :

--------------------------------------------------------------------------------
   No.  Atomic        x           y           z         Radius
        Label       (Frac)      (Frac)      (Frac)       (Angs) 
--------------------------------------------------------------------------------
     1  Cl    c     0.000000    0.000000    0.000000    0.000000
     2  O     c     0.500000    0.500000    0.500000    0.000000
     3  Na    c     0.500000    0.500000    0.000000    0.000000
     4  Cl    s     0.000000    0.000000    0.000000    0.000000
     5  O     s     0.500000    0.500000    0.500000    0.000000
--------------------------------------------------------------------------------

  Final Cartesian lattice vectors (Angstroms) :

        4.405902    0.000000    0.000000
        0.000000    4.405902    0.000000
        0.000000    0.000000    4.405902


  Final cell parameters and derivatives :

--------------------------------------------------------------------------------
       a            4.405902 Angstrom     dE/de1(xx)     0.000000 eV/strain
       b            4.405902 Angstrom     dE/de2(yy)     0.000000 eV/strain
       c            4.405902 Angstrom     dE/de3(zz)     0.000000 eV/strain
       alpha       90.000000 Degrees      dE/de4(yz)     0.000000 eV/strain
       beta        90.000000 Degrees      dE/de5(xz)     0.000000 eV/strain
       gamma       90.000000 Degrees      dE/de6(xy)     0.000000 eV/strain
--------------------------------------------------------------------------------

  Primitive cell volume =            85.527266 Angs**3

  Density of cell =      2.338030 g/cm**3

  Non-primitive cell volume =            85.527266 Angs**3


  Final internal derivatives :

--------------------------------------------------------------------------------
   No.  Atomic          a             b             c           Radius
        Label          (eV)          (eV)          (eV)        (eV/Angs)
--------------------------------------------------------------------------------
      1 Cl    c       0.000000      0.000000      0.000000      0.000000
      2 O     c       0.000000      0.000000      0.000000      0.000000
      3 Na    c       0.000000      0.000000      0.000000      0.000000
      4 Cl    s       0.000000      0.000000      0.000000      0.000000
      5 O     s       0.000000      0.000000      0.000000      0.000000
--------------------------------------------------------------------------------
  Maximum abs         0.000000      0.000000      0.000000      0.000000
--------------------------------------------------------------------------------

  Comparison of initial and final structures : 

--------------------------------------------------------------------------------
  Parameter   Initial value   Final value   Difference    Units      Percent
--------------------------------------------------------------------------------
    Volume        91.368216     85.527266    -5.840950    Angs**3     -6.39
    a              4.504000      4.405902    -0.098098    Angstroms   -2.18
    b              4.504000      4.405902    -0.098098    Angstroms   -2.18
    c              4.504000      4.405902    -0.098098    Angstroms   -2.18
    alpha         90.000000     90.000000     0.000000    Degrees      0.00
    beta          90.000000     90.000000     0.000000    Degrees      0.00
    gamma         90.000000     90.000000     0.000000    Degrees      0.00
      1 x          0.000000      0.000000     0.000000    Fractional   0.00
      1 y          0.000000      0.000000     0.000000    Fractional   0.00
      1 z          0.000000      0.000000     0.000000    Fractional   0.00
      2 x          0.500000      0.500000     0.000000    Fractional   0.00
      2 y          0.500000      0.500000     0.000000    Fractional   0.00
      2 z          0.500000      0.500000     0.000000    Fractional   0.00
      3 x          0.500000      0.500000     0.000000    Fractional   0.00
      3 y          0.500000      0.500000     0.000000    Fractional   0.00
      3 z          0.000000      0.000000     0.000000    Fractional   0.00
      4 x          0.000000      0.000000     0.000000    Fractional   0.00
      4 y          0.000000      0.000000     0.000000    Fractional   0.00
      4 z          0.000000      0.000000     0.000000    Fractional   0.00
      5 x          0.500000      0.500000     0.000000    Fractional   0.00
      5 y          0.500000      0.500000     0.000000    Fractional   0.00
      5 z          0.500000      0.500000     0.000000    Fractional   0.00
--------------------------------------------------------------------------------


  Born effective charge tensors : 

-------------------------------------------------------------------------------
  Atom             x           y             z
-------------------------------------------------------------------------------
    1 Cl    x      -0.9918     -0.0000     -0.0000
            y      -0.0000     -0.9918     -0.0000
            z      -0.0000     -0.0000     -0.9918
-------------------------------------------------------------------------------
    2 O     x      -2.2939      0.0000      0.0000
            y       0.0000     -2.2939      0.0000
            z       0.0000      0.0000     -2.2939
-------------------------------------------------------------------------------
    3 Na    x       1.2243      0.0000      0.0000
            y       0.0000      1.2243     -0.0000
            z       0.0000      0.0000      0.8372
-------------------------------------------------------------------------------




  Elastic Constant Matrix: (Units=GPa)

-------------------------------------------------------------------------------
  Indices      1         2         3         4         5         6    
-------------------------------------------------------------------------------
       1     82.7680   24.3534   24.3534   -0.0000    0.0000   -0.0000
       2     24.3534   82.7680   24.3534    0.0000   -0.0000   -0.0000
       3     24.3534   24.3534   82.7680    0.0000   -0.0000    0.0000
       4     -0.0000    0.0000    0.0000   24.3534   -0.0000    0.0000
       5      0.0000   -0.0000   -0.0000   -0.0000   24.3534    0.0000
       6     -0.0000   -0.0000    0.0000    0.0000    0.0000   24.3534
-------------------------------------------------------------------------------


  Elastic Compliance Matrix: (Units=1/GPa)

-------------------------------------------------------------------------------
  Indices      1         2         3         4         5         6    
-------------------------------------------------------------------------------
       1    0.013948 -0.003171 -0.003171  0.000000 -0.000000  0.000000
       2   -0.003171  0.013948 -0.003171 -0.000000  0.000000 -0.000000
       3   -0.003171 -0.003171  0.013948 -0.000000  0.000000 -0.000000
       4    0.000000 -0.000000 -0.000000  0.041062  0.000000 -0.000000
       5   -0.000000  0.000000  0.000000  0.000000  0.041062 -0.000000
       6    0.000000 -0.000000 -0.000000 -0.000000 -0.000000  0.041062
-------------------------------------------------------------------------------

  Mechanical properties :

-------------------------------------------------------------------------------
  Convention :                    Reuss         Voigt         Hill
-------------------------------------------------------------------------------
  Bulk  Modulus (GPa)     =      43.82493      43.82493      43.82493
  Shear Modulus (GPa)     =      26.08758      26.29496      26.19127
-------------------------------------------------------------------------------
  Velocity S-wave (km/s)  =       3.34035       3.35360       3.34698
  Velocity P-wave (km/s)  =       5.79842       5.80861       5.80351
-------------------------------------------------------------------------------
  Compressibility (1/GPa) =    0.02281806
-------------------------------------------------------------------------------
  Stress axis :                     x             y             z
-------------------------------------------------------------------------------
  Youngs Moduli (GPa)     =      71.69479      71.69479      71.69479
-------------------------------------------------------------------------------
  Poissons Ratio (x)      =                     0.22734       0.22734
  Poissons Ratio (y)      =       0.22734                     0.22734
  Poissons Ratio (z)      =       0.22734       0.22734
-------------------------------------------------------------------------------


  Piezoelectric Strain Matrix: (Units=C/m**2)

-------------------------------------------------------------------------------
  Indices      1         2         3         4         5         6    
-------------------------------------------------------------------------------
       x    -0.00000  -0.00000  -0.00000  -0.00000   0.00000  -0.00000
       y     0.00000  -0.00000   0.00000   0.00000  -0.00000   0.00000
       z    -0.00000  -0.00000   0.00000  -0.00000   0.00000  -0.00000
-------------------------------------------------------------------------------


  Piezoelectric Stress Matrix: (Units=10**-11 C/N)

-------------------------------------------------------------------------------
  Indices      1         2         3         4         5         6    
-------------------------------------------------------------------------------
       x     0.00000  -0.00000  -0.00000  -0.00000   0.00000  -0.00000
       y     0.00000  -0.00000   0.00000   0.00000  -0.00000   0.00000
       z    -0.00000  -0.00000   0.00000  -0.00000   0.00000  -0.00000
-------------------------------------------------------------------------------


  Static dielectric constant tensor : 

-------------------------------------------------------------------------------
              x         y         z
-------------------------------------------------------------------------------
       x    11.08357   0.00000   0.00000
       y     0.00000  11.08357   0.00000
       z     0.00000   0.00000  11.08357
--------------------------------------------------------------------------------

  High frequency dielectric constant tensor : 

-------------------------------------------------------------------------------
              x         y         z
-------------------------------------------------------------------------------
       x     1.50771   0.00000   0.00000
       y     0.00000   1.50771   0.00000
       z     0.00000   0.00000   1.50771
-------------------------------------------------------------------------------

  Static refractive indices : 

-------------------------------------------------------------------------------
    1 =    3.32920      2 =    3.32920      3 =    3.32920
-------------------------------------------------------------------------------

  High frequency refractive indices : 

-------------------------------------------------------------------------------
    1 =    1.22789      2 =    1.22789      3 =    1.22789
-------------------------------------------------------------------------------


  Time to end of optimisation =       0.0313 seconds

********************************************************************************
*  Defect calculation for configuration   1 :                                  *
********************************************************************************

  Total number of defects =      3

  Total charge on defect  =  -1.00

  Defect centre is at   0.5000   0.2500   0.2500  Frac

  Region 1 radius =  12.0000      Number of ions =    593

  Number of symmetry inequivalent region 1 ions  =    340

  Region 2 radius =  16.0000      Number of ions =    832

  Number of symmetry inequivalent region 2a ions =    454

  Region 2a mode = 4 : screened electrostatics due to region 1 
                       neglect correction to region 1 forces from 2a
                       region 2a displacements based on defects only

  Region 2a ions will only interact with defects in region 1

  Vacancies:

--------------------------------------------------------------------------------
    Specification type     Symbol/Number         x          y          z
--------------------------------------------------------------------------------
    Fractional                               0.500000   0.500000   0.000000
    Fractional                               0.500000   0.000000   0.500000
--------------------------------------------------------------------------------

  Interstitials:

--------------------------------------------------------------------------------
    Specification type     Symbol/Number         x          y          z
--------------------------------------------------------------------------------
    Atom/Fractional         Na               0.500000   0.329200   0.109200
--------------------------------------------------------------------------------


  Symmetry reduced region 1 (Relative to defect centre) :

--------------------------------------------------------------------------------
   No.   Atomic       x            y             z       Radius  Multiplicity   
         Label      (Angs)       (Angs)        (Angs)    (Angs)     
--------------------------------------------------------------------------------
     1  Na    c      0.0000       0.3489      -0.6204    0.0000     1    Defect
     2  O     c      0.0000       1.1015 *     1.1015 *  0.0000     1          
     3  Cl    c      2.2030 *    -1.1015 *    -1.1015 *  0.0000     2          
     4  Na    c      2.2030 *     1.1015 *     1.1015 *  0.0000     2          
     5  O     c      0.0000       1.1015 *    -3.3044 *  0.0000     1          
     6  O     c      0.0000      -3.3044 *     1.1015 *  0.0000     1          
     7  Na    c      0.0000       1.1015 *     3.3044 *  0.0000     1          
     8  Na    c      0.0000      -3.3044 *    -1.1015 *  0.0000     1          
     9  Na    c      0.0000      -1.1015 *    -3.3044 *  0.0000     1          
    10  Na    c      0.0000       3.3044 *     1.1015 *  0.0000     1          
    11  Cl    c      2.2030 *    -1.1015 *     3.3044 *  0.0000     2          
    12  Na    c      2.2030 *     1.1015 *    -3.3044 *  0.0000     2          
    13  Cl    c      2.2030 *     3.3044 *    -1.1015 *  0.0000     2          
    14  Na    c      2.2030 *    -3.3044 *     1.1015 *  0.0000     2          
    15  O     c      0.0000      -3.3044 *    -3.3044 *  0.0000     1          
    16  Na    c      0.0000      -3.3044 *     3.3044 *  0.0000     1          
    17  Na    c      0.0000       3.3044 *    -3.3044 *  0.0000     1          
    18  O     c      4.4059 *     1.1015 *     1.1015 *  0.0000     2          
    19  Na    c      4.4059 *     1.1015 *    -1.1015 *  0.0000     2          
    20  Na    c      4.4059 *    -1.1015 *     1.1015 *  0.0000     2          
    21  Cl    c      2.2030 *     3.3044 *     3.3044 *  0.0000     2          
    22  Na    c      2.2030 *    -3.3044 *    -3.3044 *  0.0000     2          
    23  O     c      0.0000       1.1015 *     5.5074 *  0.0000     1          
    24  O     c      0.0000       5.5074 *     1.1015 *  0.0000     1          
    25  O     c      4.4059 *     1.1015 *    -3.3044 *  0.0000     2          
    26  Na    c      0.0000       1.1015 *    -5.5074 *  0.0000     1          
    27  Na    c      0.0000       5.5074 *    -1.1015 *  0.0000     1          
    28  Na    c      4.4059 *     1.1015 *     3.3044 *  0.0000     2          
    29  Na    c      0.0000      -1.1015 *     5.5074 *  0.0000     1          
    30  Na    c      0.0000      -5.5074 *     1.1015 *  0.0000     1          
    31  Na    c      4.4059 *    -1.1015 *    -3.3044 *  0.0000     2          
    32  O     c      4.4059 *    -3.3044 *     1.1015 *  0.0000     2          
    33  Na    c      4.4059 *    -3.3044 *    -1.1015 *  0.0000     2          
    34  Na    c      4.4059 *     3.3044 *     1.1015 *  0.0000     2          
    35  Cl    c      2.2030 *    -1.1015 *    -5.5074 *  0.0000     2          
    36  Cl    c      2.2030 *    -5.5074 *    -1.1015 *  0.0000     2          
    37  Na    c      2.2030 *     1.1015 *     5.5074 *  0.0000     2          
    38  Na    c      2.2030 *     5.5074 *     1.1015 *  0.0000     2          
    39  O     c      0.0000       5.5074 *    -3.3044 *  0.0000     1          
    40  O     c      0.0000      -3.3044 *     5.5074 *  0.0000     1          
    41  Na    c      0.0000       5.5074 *     3.3044 *  0.0000     1          
    42  Na    c      0.0000      -3.3044 *    -5.5074 *  0.0000     1          
    43  Na    c      0.0000       3.3044 *     5.5074 *  0.0000     1          
    44  Na    c      0.0000      -5.5074 *    -3.3044 *  0.0000     1          
    45  O     c      4.4059 *    -3.3044 *    -3.3044 *  0.0000     2          
    46  Na    c      4.4059 *    -3.3044 *     3.3044 *  0.0000     2          
    47  Na    c      4.4059 *     3.3044 *    -3.3044 *  0.0000     2          
    48  Cl    c      6.6089 *    -1.1015 *    -1.1015 *  0.0000     2          
    49  Na    c      6.6089 *     1.1015 *     1.1015 *  0.0000     2          
    50  Cl    c      2.2030 *     3.3044 *    -5.5074 *  0.0000     2          
    51  Cl    c      2.2030 *    -5.5074 *     3.3044 *  0.0000     2          
    52  Na    c      2.2030 *     5.5074 *    -3.3044 *  0.0000     2          
    53  Na    c      2.2030 *    -3.3044 *     5.5074 *  0.0000     2          
    54  O     c      4.4059 *     1.1015 *     5.5074 *  0.0000     2          
    55  O     c      4.4059 *     5.5074 *     1.1015 *  0.0000     2          
    56  Na    c      4.4059 *     1.1015 *    -5.5074 *  0.0000     2          
    57  Na    c      4.4059 *     5.5074 *    -1.1015 *  0.0000     2          
    58  Na    c      4.4059 *    -1.1015 *     5.5074 *  0.0000     2          
    59  Na    c      4.4059 *    -5.5074 *     1.1015 *  0.0000     2          
    60  Cl    c      6.6089 *    -1.1015 *     3.3044 *  0.0000     2          
    61  Cl    c      6.6089 *     3.3044 *    -1.1015 *  0.0000     2          
    62  Na    c      6.6089 *     1.1015 *    -3.3044 *  0.0000     2          
    63  Na    c      6.6089 *    -3.3044 *     1.1015 *  0.0000     2          
    64  O     c      0.0000       1.1015 *    -7.7103 *  0.0000     1          
    65  O     c      0.0000       5.5074 *     5.5074 *  0.0000     1          
    66  O     c      0.0000      -7.7103 *     1.1015 *  0.0000     1          
    67  Na    c      0.0000       1.1015 *     7.7103 *  0.0000     1          
    68  Na    c      0.0000       5.5074 *    -5.5074 *  0.0000     1          
    69  Na    c      0.0000      -7.7103 *    -1.1015 *  0.0000     1          
    70  Na    c      0.0000      -1.1015 *    -7.7103 *  0.0000     1          
    71  Na    c      0.0000       7.7103 *     1.1015 *  0.0000     1          
    72  Na    c      0.0000      -5.5074 *     5.5074 *  0.0000     1          
    73  O     c      4.4059 *     5.5074 *    -3.3044 *  0.0000     2          
    74  O     c      4.4059 *    -3.3044 *     5.5074 *  0.0000     2          
    75  Na    c      4.4059 *     5.5074 *     3.3044 *  0.0000     2          
    76  Na    c      4.4059 *    -3.3044 *    -5.5074 *  0.0000     2          
    77  Na    c      4.4059 *     3.3044 *     5.5074 *  0.0000     2          
    78  Na    c      4.4059 *    -5.5074 *    -3.3044 *  0.0000     2          
    79  Cl    c      2.2030 *    -1.1015 *     7.7103 *  0.0000     2          
    80  Cl    c      2.2030 *    -5.5074 *    -5.5074 *  0.0000     2          
    81  Cl    c      6.6089 *     3.3044 *     3.3044 *  0.0000     2          
    82  Na    c      2.2030 *     1.1015 *    -7.7103 *  0.0000     2          
    83  Na    c      2.2030 *     5.5074 *     5.5074 *  0.0000     2          
    84  Na    c      6.6089 *    -3.3044 *    -3.3044 *  0.0000     2          
    85  Cl    c      2.2030 *     7.7103 *    -1.1015 *  0.0000     2          
    86  Na    c      2.2030 *    -7.7103 *     1.1015 *  0.0000     2          
    87  O     c      0.0000      -3.3044 *    -7.7103 *  0.0000     1          
    88  O     c      0.0000      -7.7103 *    -3.3044 *  0.0000     1          
    89  Na    c      0.0000      -3.3044 *     7.7103 *  0.0000     1          
    90  Na    c      0.0000      -7.7103 *     3.3044 *  0.0000     1          
    91  Na    c      0.0000       3.3044 *    -7.7103 *  0.0000     1          
    92  Na    c      0.0000       7.7103 *    -3.3044 *  0.0000     1          
    93  Cl    c      2.2030 *     3.3044 *     7.7103 *  0.0000     2          
    94  Cl    c      6.6089 *    -1.1015 *    -5.5074 *  0.0000     2          
    95  Na    c      2.2030 *    -3.3044 *    -7.7103 *  0.0000     2          
    96  Na    c      6.6089 *     1.1015 *     5.5074 *  0.0000     2          
    97  Cl    c      2.2030 *     7.7103 *     3.3044 *  0.0000     2          
    98  Cl    c      6.6089 *    -5.5074 *    -1.1015 *  0.0000     2          
    99  Na    c      2.2030 *    -7.7103 *    -3.3044 *  0.0000     2          
   100  Na    c      6.6089 *     5.5074 *     1.1015 *  0.0000     2          
   101  O     c      4.4059 *     1.1015 *    -7.7103 *  0.0000     2          
   102  O     c      4.4059 *     5.5074 *     5.5074 *  0.0000     2          
   103  Na    c      4.4059 *     1.1015 *     7.7103 *  0.0000     2          
   104  Na    c      4.4059 *     5.5074 *    -5.5074 *  0.0000     2          
   105  Na    c      4.4059 *    -1.1015 *    -7.7103 *  0.0000     2          
   106  Na    c      4.4059 *    -5.5074 *     5.5074 *  0.0000     2          
   107  O     c      4.4059 *    -7.7103 *     1.1015 *  0.0000     2          
   108  O     c      8.8118 *     1.1015 *     1.1015 *  0.0000     2          
   109  Na    c      4.4059 *    -7.7103 *    -1.1015 *  0.0000     2          
   110  Na    c      8.8118 *     1.1015 *    -1.1015 *  0.0000     2          
   111  Na    c      4.4059 *     7.7103 *     1.1015 *  0.0000     2          
   112  Na    c      8.8118 *    -1.1015 *     1.1015 *  0.0000     2          
   113  Cl    c      6.6089 *     3.3044 *    -5.5074 *  0.0000     2          
   114  Cl    c      6.6089 *    -5.5074 *     3.3044 *  0.0000     2          
   115  Na    c      6.6089 *     5.5074 *    -3.3044 *  0.0000     2          
   116  Na    c      6.6089 *    -3.3044 *     5.5074 *  0.0000     2          
   117  O     c      0.0000       5.5074 *    -7.7103 *  0.0000     1          
   118  O     c      0.0000      -7.7103 *     5.5074 *  0.0000     1          
   119  O     c      4.4059 *    -3.3044 *    -7.7103 *  0.0000     2          
   120  Na    c      0.0000       5.5074 *     7.7103 *  0.0000     1          
   121  Na    c      0.0000      -7.7103 *    -5.5074 *  0.0000     1          
   122  Na    c      4.4059 *    -3.3044 *     7.7103 *  0.0000     2          
   123  Na    c      0.0000       7.7103 *     5.5074 *  0.0000     1          
   124  Na    c      0.0000      -5.5074 *    -7.7103 *  0.0000     1          
   125  Na    c      4.4059 *     3.3044 *    -7.7103 *  0.0000     2          
   126  O     c      4.4059 *    -7.7103 *    -3.3044 *  0.0000     2          
   127  O     c      8.8118 *     1.1015 *    -3.3044 *  0.0000     2          
   128  O     c      8.8118 *    -3.3044 *     1.1015 *  0.0000     2          
   129  Na    c      4.4059 *    -7.7103 *     3.3044 *  0.0000     2          
   130  Na    c      8.8118 *     1.1015 *     3.3044 *  0.0000     2          
   131  Na    c      8.8118 *    -3.3044 *    -1.1015 *  0.0000     2          
   132  Na    c      4.4059 *     7.7103 *    -3.3044 *  0.0000     2          
   133  Na    c      8.8118 *    -1.1015 *    -3.3044 *  0.0000     2          
   134  Na    c      8.8118 *     3.3044 *     1.1015 *  0.0000     2          
   135  Cl    c      2.2030 *     7.7103 *    -5.5074 *  0.0000     2          
   136  Cl    c      2.2030 *    -5.5074 *     7.7103 *  0.0000     2          
   137  Na    c      2.2030 *     5.5074 *    -7.7103 *  0.0000     2          
   138  Na    c      2.2030 *    -7.7103 *     5.5074 *  0.0000     2          
   139  O     c      0.0000       1.1015 *     9.9133 *  0.0000     1          
   140  O     c      0.0000       9.9133 *     1.1015 *  0.0000     1          
   141  O     c      8.8118 *    -3.3044 *    -3.3044 *  0.0000     2          
   142  Na    c      0.0000       1.1015 *    -9.9133 *  0.0000     1          
   143  Na    c      0.0000       9.9133 *    -1.1015 *  0.0000     1          
   144  Na    c      8.8118 *    -3.3044 *     3.3044 *  0.0000     2          
   145  Na    c      0.0000      -1.1015 *     9.9133 *  0.0000     1          
   146  Na    c      0.0000      -9.9133 *     1.1015 *  0.0000     1          
   147  Na    c      8.8118 *     3.3044 *    -3.3044 *  0.0000     2          
   148  Cl    c      2.2030 *    -1.1015 *    -9.9133 *  0.0000     2          
   149  Cl    c      6.6089 *    -1.1015 *     7.7103 *  0.0000     2          
   150  Cl    c      6.6089 *     7.7103 *    -1.1015 *  0.0000     2          
   151  Cl    c      6.6089 *    -5.5074 *    -5.5074 *  0.0000     2          
   152  Na    c      2.2030 *     1.1015 *     9.9133 *  0.0000     2          
   153  Na    c      6.6089 *     1.1015 *    -7.7103 *  0.0000     2          
   154  Na    c      6.6089 *     5.5074 *     5.5074 *  0.0000     2          
   155  Na    c      6.6089 *    -7.7103 *     1.1015 *  0.0000     2          
   156  Cl    c      2.2030 *    -9.9133 *    -1.1015 *  0.0000     2          
   157  Na    c      2.2030 *     9.9133 *     1.1015 *  0.0000     2          
   158  O     c      0.0000       9.9133 *    -3.3044 *  0.0000     1          
   159  O     c      0.0000      -3.3044 *     9.9133 *  0.0000     1          
   160  O     c      4.4059 *     5.5074 *    -7.7103 *  0.0000     2          
   161  O     c      4.4059 *    -7.7103 *     5.5074 *  0.0000     2          
   162  O     c      8.8118 *     1.1015 *     5.5074 *  0.0000     2          
   163  O     c      8.8118 *     5.5074 *     1.1015 *  0.0000     2          
   164  Na    c      0.0000       9.9133 *     3.3044 *  0.0000     1          
   165  Na    c      0.0000      -3.3044 *    -9.9133 *  0.0000     1          
   166  Na    c      4.4059 *     5.5074 *     7.7103 *  0.0000     2          
   167  Na    c      4.4059 *    -7.7103 *    -5.5074 *  0.0000     2          
   168  Na    c      8.8118 *     1.1015 *    -5.5074 *  0.0000     2          
   169  Na    c      8.8118 *     5.5074 *    -1.1015 *  0.0000     2          
   170  Na    c      0.0000       3.3044 *     9.9133 *  0.0000     1          
   171  Na    c      0.0000      -9.9133 *    -3.3044 *  0.0000     1          
   172  Na    c      4.4059 *     7.7103 *     5.5074 *  0.0000     2          
   173  Na    c      4.4059 *    -5.5074 *    -7.7103 *  0.0000     2          
   174  Na    c      8.8118 *    -1.1015 *     5.5074 *  0.0000     2          
   175  Na    c      8.8118 *    -5.5074 *     1.1015 *  0.0000     2          
   176  Cl    c      6.6089 *     7.7103 *     3.3044 *  0.0000     2          
   177  Na    c      6.6089 *    -7.7103 *    -3.3044 *  0.0000     2          
   178  Cl    c      2.2030 *     3.3044 *    -9.9133 *  0.0000     2          
   179  Cl    c      2.2030 *    -9.9133 *     3.3044 *  0.0000     2          
   180  Cl    c      6.6089 *     3.3044 *     7.7103 *  0.0000     2          
   181  Na    c      2.2030 *     9.9133 *    -3.3044 *  0.0000     2          
   182  Na    c      2.2030 *    -3.3044 *     9.9133 *  0.0000     2          
   183  Na    c      6.6089 *    -3.3044 *    -7.7103 *  0.0000     2          
   184  O     c      0.0000      -7.7103 *    -7.7103 *  0.0000     1          
   185  O     c      4.4059 *     1.1015 *     9.9133 *  0.0000     2          
   186  O     c      4.4059 *     9.9133 *     1.1015 *  0.0000     2          
   187  O     c      8.8118 *     5.5074 *    -3.3044 *  0.0000     2          
   188  O     c      8.8118 *    -3.3044 *     5.5074 *  0.0000     2          
   189  Na    c      0.0000      -7.7103 *     7.7103 *  0.0000     1          
   190  Na    c      4.4059 *     1.1015 *    -9.9133 *  0.0000     2          
   191  Na    c      4.4059 *     9.9133 *    -1.1015 *  0.0000     2          
   192  Na    c      8.8118 *     5.5074 *     3.3044 *  0.0000     2          
   193  Na    c      8.8118 *    -3.3044 *    -5.5074 *  0.0000     2          
   194  Na    c      0.0000       7.7103 *    -7.7103 *  0.0000     1          
   195  Na    c      4.4059 *    -1.1015 *     9.9133 *  0.0000     2          
   196  Na    c      4.4059 *    -9.9133 *     1.1015 *  0.0000     2          
   197  Na    c      8.8118 *     3.3044 *     5.5074 *  0.0000     2          
   198  Na    c      8.8118 *    -5.5074 *    -3.3044 *  0.0000     2          
   199  Cl    c      2.2030 *     7.7103 *     7.7103 *  0.0000     2          
   200  Cl    c     11.0148 *    -1.1015 *    -1.1015 *  0.0000     2          
   201  Na    c      2.2030 *    -7.7103 *    -7.7103 *  0.0000     2          
   202  Na    c     11.0148 *     1.1015 *     1.1015 *  0.0000     2          
   203  O     c      4.4059 *     9.9133 *    -3.3044 *  0.0000     2          
   204  Na    c      4.4059 *     9.9133 *     3.3044 *  0.0000     2          
   205  Na    c      4.4059 *    -9.9133 *    -3.3044 *  0.0000     2          
   206  O     c      0.0000       5.5074 *     9.9133 *  0.0000     1          
   207  O     c      0.0000       9.9133 *     5.5074 *  0.0000     1          
   208  O     c      4.4059 *    -3.3044 *     9.9133 *  0.0000     2          
   209  Na    c      0.0000       5.5074 *    -9.9133 *  0.0000     1          
   210  Na    c      0.0000       9.9133 *    -5.5074 *  0.0000     1          
   211  Na    c      4.4059 *    -3.3044 *    -9.9133 *  0.0000     2          
   212  Na    c      0.0000      -5.5074 *     9.9133 *  0.0000     1          
   213  Na    c      0.0000      -9.9133 *     5.5074 *  0.0000     1          
   214  Na    c      4.4059 *     3.3044 *     9.9133 *  0.0000     2          
   215  Cl    c      2.2030 *    -5.5074 *    -9.9133 *  0.0000     2          
   216  Cl    c      2.2030 *    -9.9133 *    -5.5074 *  0.0000     2          
   217  Cl    c      6.6089 *     7.7103 *    -5.5074 *  0.0000     2          
   218  Cl    c      6.6089 *    -5.5074 *     7.7103 *  0.0000     2          
   219  Cl    c     11.0148 *    -1.1015 *     3.3044 *  0.0000     2          
   220  Cl    c     11.0148 *     3.3044 *    -1.1015 *  0.0000     2          
   221  Na    c      2.2030 *     5.5074 *     9.9133 *  0.0000     2          
   222  Na    c      2.2030 *     9.9133 *     5.5074 *  0.0000     2          
   223  Na    c      6.6089 *     5.5074 *    -7.7103 *  0.0000     2          
   224  Na    c      6.6089 *    -7.7103 *     5.5074 *  0.0000     2          
   225  Na    c     11.0148 *     1.1015 *    -3.3044 *  0.0000     2          
   226  Na    c     11.0148 *    -3.3044 *     1.1015 *  0.0000     2          
   227  O     c      4.4059 *    -7.7103 *    -7.7103 *  0.0000     2          
   228  O     c      8.8118 *     1.1015 *    -7.7103 *  0.0000     2          
   229  O     c      8.8118 *     5.5074 *     5.5074 *  0.0000     2          
   230  Na    c      4.4059 *    -7.7103 *     7.7103 *  0.0000     2          
   231  Na    c      8.8118 *     1.1015 *     7.7103 *  0.0000     2          
   232  Na    c      8.8118 *     5.5074 *    -5.5074 *  0.0000     2          
   233  Na    c      4.4059 *     7.7103 *    -7.7103 *  0.0000     2          
   234  Na    c      8.8118 *    -1.1015 *    -7.7103 *  0.0000     2          
   235  Na    c      8.8118 *    -5.5074 *     5.5074 *  0.0000     2          
   236  O     c      8.8118 *    -7.7103 *     1.1015 *  0.0000     2          
   237  Na    c      8.8118 *    -7.7103 *    -1.1015 *  0.0000     2          
   238  Na    c      8.8118 *     7.7103 *     1.1015 *  0.0000     2          
   239  Cl    c     11.0148 *     3.3044 *     3.3044 *  0.0000     2          
   240  Na    c     11.0148 *    -3.3044 *    -3.3044 *  0.0000     2          
   241  Cl    c      6.6089 *    -1.1015 *    -9.9133 *  0.0000     2          
   242  Cl    c      6.6089 *    -9.9133 *    -1.1015 *  0.0000     2          
   243  Na    c      6.6089 *     1.1015 *     9.9133 *  0.0000     2          
   244  Na    c      6.6089 *     9.9133 *     1.1015 *  0.0000     2          
   245  O     s      0.0000       1.1015 *     1.1015 *  0.0000     1          
   246  Cl    s      2.2030 *    -1.1015 *    -1.1015 *  0.0000     2          
   247  O     s      0.0000       1.1015 *    -3.3044 *  0.0000     1          
   248  O     s      0.0000      -3.3044 *     1.1015 *  0.0000     1          
   249  Cl    s      2.2030 *    -1.1015 *     3.3044 *  0.0000     2          
   250  Cl    s      2.2030 *     3.3044 *    -1.1015 *  0.0000     2          
   251  O     s      0.0000      -3.3044 *    -3.3044 *  0.0000     1          
   252  O     s      4.4059 *     1.1015 *     1.1015 *  0.0000     2          
   253  Cl    s      2.2030 *     3.3044 *     3.3044 *  0.0000     2          
   254  O     s      0.0000       1.1015 *     5.5074 *  0.0000     1          
   255  O     s      0.0000       5.5074 *     1.1015 *  0.0000     1          
   256  O     s      4.4059 *     1.1015 *    -3.3044 *  0.0000     2          
   257  O     s      4.4059 *    -3.3044 *     1.1015 *  0.0000     2          
   258  Cl    s      2.2030 *    -1.1015 *    -5.5074 *  0.0000     2          
   259  Cl    s      2.2030 *    -5.5074 *    -1.1015 *  0.0000     2          
   260  O     s      0.0000       5.5074 *    -3.3044 *  0.0000     1          
   261  O     s      0.0000      -3.3044 *     5.5074 *  0.0000     1          
   262  O     s      4.4059 *    -3.3044 *    -3.3044 *  0.0000     2          
   263  Cl    s      6.6089 *    -1.1015 *    -1.1015 *  0.0000     2          
   264  Cl    s      2.2030 *     3.3044 *    -5.5074 *  0.0000     2          
   265  Cl    s      2.2030 *    -5.5074 *     3.3044 *  0.0000     2          
   266  O     s      4.4059 *     1.1015 *     5.5074 *  0.0000     2          
   267  O     s      4.4059 *     5.5074 *     1.1015 *  0.0000     2          
   268  Cl    s      6.6089 *    -1.1015 *     3.3044 *  0.0000     2          
   269  Cl    s      6.6089 *     3.3044 *    -1.1015 *  0.0000     2          
   270  O     s      0.0000       1.1015 *    -7.7103 *  0.0000     1          
   271  O     s      0.0000       5.5074 *     5.5074 *  0.0000     1          
   272  O     s      0.0000      -7.7103 *     1.1015 *  0.0000     1          
   273  O     s      4.4059 *     5.5074 *    -3.3044 *  0.0000     2          
   274  O     s      4.4059 *    -3.3044 *     5.5074 *  0.0000     2          
   275  Cl    s      2.2030 *    -1.1015 *     7.7103 *  0.0000     2          
   276  Cl    s      2.2030 *    -5.5074 *    -5.5074 *  0.0000     2          
   277  Cl    s      6.6089 *     3.3044 *     3.3044 *  0.0000     2          
   278  Cl    s      2.2030 *     7.7103 *    -1.1015 *  0.0000     2          
   279  O     s      0.0000      -3.3044 *    -7.7103 *  0.0000     1          
   280  O     s      0.0000      -7.7103 *    -3.3044 *  0.0000     1          
   281  Cl    s      2.2030 *     3.3044 *     7.7103 *  0.0000     2          
   282  Cl    s      6.6089 *    -1.1015 *    -5.5074 *  0.0000     2          
   283  Cl    s      2.2030 *     7.7103 *     3.3044 *  0.0000     2          
   284  Cl    s      6.6089 *    -5.5074 *    -1.1015 *  0.0000     2          
   285  O     s      4.4059 *     1.1015 *    -7.7103 *  0.0000     2          
   286  O     s      4.4059 *     5.5074 *     5.5074 *  0.0000     2          
   287  O     s      4.4059 *    -7.7103 *     1.1015 *  0.0000     2          
   288  O     s      8.8118 *     1.1015 *     1.1015 *  0.0000     2          
   289  Cl    s      6.6089 *     3.3044 *    -5.5074 *  0.0000     2          
   290  Cl    s      6.6089 *    -5.5074 *     3.3044 *  0.0000     2          
   291  O     s      0.0000       5.5074 *    -7.7103 *  0.0000     1          
   292  O     s      0.0000      -7.7103 *     5.5074 *  0.0000     1          
   293  O     s      4.4059 *    -3.3044 *    -7.7103 *  0.0000     2          
   294  O     s      4.4059 *    -7.7103 *    -3.3044 *  0.0000     2          
   295  O     s      8.8118 *     1.1015 *    -3.3044 *  0.0000     2          
   296  O     s      8.8118 *    -3.3044 *     1.1015 *  0.0000     2          
   297  Cl    s      2.2030 *     7.7103 *    -5.5074 *  0.0000     2          
   298  Cl    s      2.2030 *    -5.5074 *     7.7103 *  0.0000     2          
   299  O     s      0.0000       1.1015 *     9.9133 *  0.0000     1          
   300  O     s      0.0000       9.9133 *     1.1015 *  0.0000     1          
   301  O     s      8.8118 *    -3.3044 *    -3.3044 *  0.0000     2          
   302  Cl    s      2.2030 *    -1.1015 *    -9.9133 *  0.0000     2          
   303  Cl    s      6.6089 *    -1.1015 *     7.7103 *  0.0000     2          
   304  Cl    s      6.6089 *     7.7103 *    -1.1015 *  0.0000     2          
   305  Cl    s      6.6089 *    -5.5074 *    -5.5074 *  0.0000     2          
   306  Cl    s      2.2030 *    -9.9133 *    -1.1015 *  0.0000     2          
   307  O     s      0.0000       9.9133 *    -3.3044 *  0.0000     1          
   308  O     s      0.0000      -3.3044 *     9.9133 *  0.0000     1          
   309  O     s      4.4059 *     5.5074 *    -7.7103 *  0.0000     2          
   310  O     s      4.4059 *    -7.7103 *     5.5074 *  0.0000     2          
   311  O     s      8.8118 *     1.1015 *     5.5074 *  0.0000     2          
   312  O     s      8.8118 *     5.5074 *     1.1015 *  0.0000     2          
   313  Cl    s      6.6089 *     7.7103 *     3.3044 *  0.0000     2          
   314  Cl    s      2.2030 *     3.3044 *    -9.9133 *  0.0000     2          
   315  Cl    s      2.2030 *    -9.9133 *     3.3044 *  0.0000     2          
   316  Cl    s      6.6089 *     3.3044 *     7.7103 *  0.0000     2          
   317  O     s      0.0000      -7.7103 *    -7.7103 *  0.0000     1          
   318  O     s      4.4059 *     1.1015 *     9.9133 *  0.0000     2          
   319  O     s      4.4059 *     9.9133 *     1.1015 *  0.0000     2          
   320  O     s      8.8118 *     5.5074 *    -3.3044 *  0.0000     2          
   321  O     s      8.8118 *    -3.3044 *     5.5074 *  0.0000     2          
   322  Cl    s      2.2030 *     7.7103 *     7.7103 *  0.0000     2          
   323  Cl    s     11.0148 *    -1.1015 *    -1.1015 *  0.0000     2          
   324  O     s      4.4059 *     9.9133 *    -3.3044 *  0.0000     2          
   325  O     s      0.0000       5.5074 *     9.9133 *  0.0000     1          
   326  O     s      0.0000       9.9133 *     5.5074 *  0.0000     1          
   327  O     s      4.4059 *    -3.3044 *     9.9133 *  0.0000     2          
   328  Cl    s      2.2030 *    -5.5074 *    -9.9133 *  0.0000     2          
   329  Cl    s      2.2030 *    -9.9133 *    -5.5074 *  0.0000     2          
   330  Cl    s      6.6089 *     7.7103 *    -5.5074 *  0.0000     2          
   331  Cl    s      6.6089 *    -5.5074 *     7.7103 *  0.0000     2          
   332  Cl    s     11.0148 *    -1.1015 *     3.3044 *  0.0000     2          
   333  Cl    s     11.0148 *     3.3044 *    -1.1015 *  0.0000     2          
   334  O     s      4.4059 *    -7.7103 *    -7.7103 *  0.0000     2          
   335  O     s      8.8118 *     1.1015 *    -7.7103 *  0.0000     2          
   336  O     s      8.8118 *     5.5074 *     5.5074 *  0.0000     2          
   337  O     s      8.8118 *    -7.7103 *     1.1015 *  0.0000     2          
   338  Cl    s     11.0148 *     3.3044 *     3.3044 *  0.0000     2          
   339  Cl    s      6.6089 *    -1.1015 *    -9.9133 *  0.0000     2          
   340  Cl    s      6.6089 *    -9.9133 *    -1.1015 *  0.0000     2          
--------------------------------------------------------------------------------

  Components of defect energy : 

--------------------------------------------------------------------------------
  Region 1 - region 1                   =      8.25216545 eV
  Region 1 - region 2a (unrelaxed)      =     -0.02628341 eV
  Region 1 - 2a (relaxed - correction)  =     -0.27714729 eV
  Region 1 (Total)                      =      7.94873476 eV
  Region 2a                             =      0.13852323 eV
  Region 2b                             =     -0.40801395 eV
--------------------------------------------------------------------------------
  Total defect energy                   =      7.67924404 eV
--------------------------------------------------------------------------------

  Largest displacement in region 2 =   0.0175 Angstroms


  Number of variables =      931

  Maximum number of calculations  =        1000
  Maximum Hessian update interval =          10
  Maximum step size               =   1.0000000
  Maximum parameter tolerance     =   0.0000100
  Maximum function  tolerance     =   0.0000100
  Maximum gradient  tolerance     =   0.0010000

  Symmetry adapted optimisation

  Symmetry to be used for second derivatives

  Newton-Raphson optimiser to be used

  BFGS hessian update to be used

  Lower half triangular hessian to be used

  Start of defect optimisation :

  Cycle:      0 Defect Energy:   7.679244  Gnorm:     0.017518  CPU:    2.757
  ** Hessian calculated **
  Cycle:      1 Defect Energy:   6.156965  Gnorm:     0.011618  CPU:   13.209
  Cycle:      2 Defect Energy:   5.076824  Gnorm:     0.003393  CPU:   18.288
  Cycle:      3 Defect Energy:   5.022926  Gnorm:     0.002362  CPU:   19.416
  Cycle:      4 Defect Energy:   4.994545  Gnorm:     0.001567  CPU:   20.609
  Cycle:      5 Defect Energy:   4.979118  Gnorm:     0.000935  CPU:   21.703
  Cycle:      6 Defect Energy:   4.972710  Gnorm:     0.000545  CPU:   22.816
  Cycle:      7 Defect Energy:   4.970689  Gnorm:     0.000330  CPU:   23.922
  Cycle:      8 Defect Energy:   4.970051  Gnorm:     0.000217  CPU:   25.063
  Cycle:      9 Defect Energy:   4.969775  Gnorm:     0.000138  CPU:   26.239
  Cycle:     10 Defect Energy:   4.969665  Gnorm:     0.000085  CPU:   27.314
  ** Hessian calculated **
  Cycle:     11 Defect Energy:   4.969642  Gnorm:     0.000059  CPU:   30.123
  Cycle:     12 Defect Energy:   4.969638  Gnorm:     0.000042  CPU:   32.550


  **** Optimisation achieved ****


  Final defect energy  =        4.96964117
  Final defect Gnorm   =        0.00002914

  Components of defect energy : 

--------------------------------------------------------------------------------
  Region 1 - region 1                   =      6.39388655 eV
  Region 1 - region 2a (unrelaxed)      =     -0.90746139 eV
  Region 1 - 2a (relaxed - correction)  =     -0.21861756 eV
  Region 1 (Total)                      =      5.26780760 eV
  Region 2a                             =      0.10932505 eV
  Region 2b                             =     -0.40749148 eV
--------------------------------------------------------------------------------
  Total defect energy                   =      4.96964117 eV
--------------------------------------------------------------------------------

  Largest displacement in region 2 =   0.0175 Angstroms

  Final coordinates of region 1 :

--------------------------------------------------------------------------------
   No.  Atomic        x           y           z          Radius      Charge
        Label       (Angs)      (Angs)      (Angs)       (Angs)       (e) 
--------------------------------------------------------------------------------
     1  Na    c     2.202951    1.450423    0.481125    0.000000    1.000000
     2  O     c     2.202951    2.359783    2.336047    0.000000    0.183000
     3  Cl    c     4.516940   -0.035630   -0.049224    0.000000    1.485000
     4  Cl    c    -0.111038   -0.035630   -0.049224    0.000000    1.485000
     5  Na    c     4.356290    2.146250    2.348186    0.000000    1.000000
     6  Na    c     0.049612    2.146250    2.348186    0.000000    1.000000
     7  O     c     2.202951    2.138276   -2.113260    0.000000    0.183000
     8  O     c     2.202951   -2.351385    2.213367    0.000000    0.183000
     9  Na    c     2.202951    1.901095    4.397025    0.000000    1.000000
    10  Na    c     2.202951   -2.144820    0.077683    0.000000    1.000000
    11  Na    c     2.202951   -0.017320   -2.296123    0.000000    1.000000
    12  Na    c     2.202951    4.442024    2.144000    0.000000    1.000000
    13  Cl    c     4.522125    0.008530    4.530856    0.000000    1.485000
    14  Cl    c    -0.116222    0.008530    4.530856    0.000000    1.485000
    15  Na    c     4.370139    2.182387   -2.024693    0.000000    1.000000
    16  Na    c     0.035763    2.182387   -2.024693    0.000000    1.000000
    17  Cl    c     4.508746    4.503848    0.004094    0.000000    1.485000
    18  Cl    c    -0.102844    4.503848    0.004094    0.000000    1.485000
    19  Na    c     4.308841   -1.937422    2.208306    0.000000    1.000000
    20  Na    c     0.097061   -1.937422    2.208306    0.000000    1.000000
    21  O     c     2.202951   -2.211806   -2.177440    0.000000    0.183000
    22  Na    c     2.202951   -1.903820    4.320909    0.000000    1.000000
    23  Na    c     2.202951    4.312496   -1.801788    0.000000    1.000000
    24  O     c     6.598273    2.209535    2.234427    0.000000    0.183000
    25  O     c    -2.192371    2.209535    2.234427    0.000000    0.183000
    26  Na    c     6.583815    2.212670    0.035277    0.000000    1.000000
    27  Na    c    -2.177913    2.212670    0.035277    0.000000    1.000000
    28  Na    c     6.661304    0.011985    2.211114    0.000000    1.000000
    29  Na    c    -2.255401    0.011985    2.211114    0.000000    1.000000
    30  Cl    c     4.499929    4.483601    4.478394    0.000000    1.485000
    31  Cl    c    -0.094027    4.483601    4.478394    0.000000    1.485000
    32  Na    c     4.402803   -2.210248   -2.167744    0.000000    1.000000
    33  Na    c     0.003099   -2.210248   -2.167744    0.000000    1.000000
    34  O     c     2.202951    2.181423    6.621299    0.000000    0.183000
    35  O     c     2.202951    6.656885    2.210029    0.000000    0.183000
    36  O     c     6.596498    2.205727   -2.175146    0.000000    0.183000
    37  O     c    -2.190596    2.205727   -2.175146    0.000000    0.183000
    38  Na    c     2.202951    2.324201   -4.326405    0.000000    1.000000
    39  Na    c     2.202951    6.739533    0.021208    0.000000    1.000000
    40  Na    c     6.630148    2.200255    4.431883    0.000000    1.000000
    41  Na    c    -2.224246    2.200255    4.431883    0.000000    1.000000
    42  Na    c     2.202951   -0.005763    6.787711    0.000000    1.000000
    43  Na    c     2.202951   -4.441576    2.299961    0.000000    1.000000
    44  Na    c     6.587674   -0.000823   -2.175633    0.000000    1.000000
    45  Na    c    -2.181772   -0.000823   -2.175633    0.000000    1.000000
    46  O     c     6.575291   -2.182616    2.213070    0.000000    0.183000
    47  O     c    -2.169389   -2.182616    2.213070    0.000000    0.183000
    48  Na    c     6.568986   -2.211338    0.013772    0.000000    1.000000
    49  Na    c    -2.163084   -2.211338    0.013772    0.000000    1.000000
    50  Na    c     6.526221    4.410356    2.219866    0.000000    1.000000
    51  Na    c    -2.120319    4.410356    2.219866    0.000000    1.000000
    52  Cl    c     4.411700   -0.027831   -4.422268    0.000000    1.485000
    53  Cl    c    -0.005798   -0.027831   -4.422268    0.000000    1.485000
    54  Cl    c     4.455032   -4.480034   -0.069392    0.000000    1.485000
    55  Cl    c    -0.049129   -4.480034   -0.069392    0.000000    1.485000
    56  Na    c     4.409801    2.201931    6.591564    0.000000    1.000000
    57  Na    c    -0.003899    2.201931    6.591564    0.000000    1.000000
    58  Na    c     4.408716    6.627223    2.207628    0.000000    1.000000
    59  Na    c    -0.002814    6.627223    2.207628    0.000000    1.000000
    60  O     c     2.202951    6.568015   -2.160449    0.000000    0.183000
    61  O     c     2.202951   -2.184631    6.585770    0.000000    0.183000
    62  Na    c     2.202951    6.609539    4.401377    0.000000    1.000000
    63  Na    c     2.202951   -2.287647   -4.386998    0.000000    1.000000
    64  Na    c     2.202951    4.376278    6.452859    0.000000    1.000000
    65  Na    c     2.202951   -4.407228   -2.110372    0.000000    1.000000
    66  O     c     6.611445   -2.210851   -2.200983    0.000000    0.183000
    67  O     c    -2.205543   -2.210851   -2.200983    0.000000    0.183000
    68  Na    c     6.571329   -2.193757    4.409324    0.000000    1.000000
    69  Na    c    -2.165426   -2.193757    4.409324    0.000000    1.000000
    70  Na    c     6.593124    4.403436   -2.178551    0.000000    1.000000
    71  Na    c    -2.187222    4.403436   -2.178551    0.000000    1.000000
    72  Cl    c     8.831554    0.007848    0.011315    0.000000    1.485000
    73  Cl    c    -4.425651    0.007848    0.011315    0.000000    1.485000
    74  Na    c     8.802443    2.263870    2.213723    0.000000    1.000000
    75  Na    c    -4.396541    2.263870    2.213723    0.000000    1.000000
    76  Cl    c     4.430164    4.407231   -4.425812    0.000000    1.485000
    77  Cl    c    -0.024262    4.407231   -4.425812    0.000000    1.485000
    78  Cl    c     4.468170   -4.486975    4.471909    0.000000    1.485000
    79  Cl    c    -0.062267   -4.486975    4.471909    0.000000    1.485000
    80  Na    c     4.402506    6.548596   -2.183008    0.000000    1.000000
    81  Na    c     0.003397    6.548596   -2.183008    0.000000    1.000000
    82  Na    c     4.402068   -2.206346    6.571831    0.000000    1.000000
    83  Na    c     0.003834   -2.206346    6.571831    0.000000    1.000000
    84  O     c     6.623258    2.211372    6.632897    0.000000    0.183000
    85  O     c    -2.217356    2.211372    6.632897    0.000000    0.183000
    86  O     c     6.614565    6.621840    2.213289    0.000000    0.183000
    87  O     c    -2.208663    6.621840    2.213289    0.000000    0.183000
    88  Na    c     6.539439    2.206685   -4.375340    0.000000    1.000000
    89  Na    c    -2.133537    2.206685   -4.375340    0.000000    1.000000
    90  Na    c     6.596289    6.594843    0.004363    0.000000    1.000000
    91  Na    c    -2.190386    6.594843    0.004363    0.000000    1.000000
    92  Na    c     6.590397   -0.001782    6.613212    0.000000    1.000000
    93  Na    c    -2.184494   -0.001782    6.613212    0.000000    1.000000
    94  Na    c     6.437142   -4.380041    2.219311    0.000000    1.000000
    95  Na    c    -2.031240   -4.380041    2.219311    0.000000    1.000000
    96  Cl    c     8.839007    0.008562    4.415498    0.000000    1.485000
    97  Cl    c    -4.433105    0.008562    4.415498    0.000000    1.485000
    98  Cl    c     8.836988    4.409848    0.007879    0.000000    1.485000
    99  Cl    c    -4.431086    4.409848    0.007879    0.000000    1.485000
   100  Na    c     8.796167    2.200102   -2.193409    0.000000    1.000000
   101  Na    c    -4.390265    2.200102   -2.193409    0.000000    1.000000
   102  Na    c     8.783446   -2.270085    2.210405    0.000000    1.000000
   103  Na    c    -4.377543   -2.270085    2.210405    0.000000    1.000000
   104  O     c     2.202951    2.204321   -6.576845    0.000000    0.183000
   105  O     c     2.202951    6.596739    6.599810    0.000000    0.183000
   106  O     c     2.202951   -6.650756    2.210373    0.000000    0.183000
   107  Na    c     2.202951    2.302742    8.814007    0.000000    1.000000
   108  Na    c     2.202951    6.417893   -4.361204    0.000000    1.000000
   109  Na    c     2.202951   -6.596412    0.009111    0.000000    1.000000
   110  Na    c     2.202951    0.001550   -6.493781    0.000000    1.000000
   111  Na    c     2.202951    8.839339    2.257938    0.000000    1.000000
   112  Na    c     2.202951   -4.384675    6.418195    0.000000    1.000000
   113  O     c     6.616530    6.613592   -2.207837    0.000000    0.183000
   114  O     c    -2.210628    6.613592   -2.207837    0.000000    0.183000
   115  O     c     6.615534   -2.211873    6.620176    0.000000    0.183000
   116  O     c    -2.209631   -2.211873    6.620176    0.000000    0.183000
   117  Na    c     6.600826    6.597582    4.415951    0.000000    1.000000
   118  Na    c    -2.194923    6.597582    4.415951    0.000000    1.000000
   119  Na    c     6.594418   -2.199509   -4.397473    0.000000    1.000000
   120  Na    c    -2.188515   -2.199509   -4.397473    0.000000    1.000000
   121  Na    c     6.604008    4.412023    6.603604    0.000000    1.000000
   122  Na    c    -2.198106    4.412023    6.603604    0.000000    1.000000
   123  Na    c     6.595718   -4.410372   -2.195580    0.000000    1.000000
   124  Na    c    -2.189816   -4.410372   -2.195580    0.000000    1.000000
   125  Cl    c     4.411785   -0.002691    8.845712    0.000000    1.485000
   126  Cl    c    -0.005883   -0.002691    8.845712    0.000000    1.485000
   127  Cl    c     4.408342   -4.416869   -4.426771    0.000000    1.485000
   128  Cl    c    -0.002440   -4.416869   -4.426771    0.000000    1.485000
   129  Cl    c     8.843696    4.412533    4.418086    0.000000    1.485000
   130  Cl    c    -4.437793    4.412533    4.418086    0.000000    1.485000
   131  Na    c     4.397738    2.188348   -6.574877    0.000000    1.000000
   132  Na    c     0.008164    2.188348   -6.574877    0.000000    1.000000
   133  Na    c     4.410236    6.581589    6.601870    0.000000    1.000000
   134  Na    c    -0.004334    6.581589    6.601870    0.000000    1.000000
   135  Na    c     8.802970   -2.205124   -2.189819    0.000000    1.000000
   136  Na    c    -4.397067   -2.205124   -2.189819    0.000000    1.000000
   137  Cl    c     4.408264    8.841890    0.000378    0.000000    1.485000
   138  Cl    c    -0.002362    8.841890    0.000378    0.000000    1.485000
   139  Na    c     4.399618   -6.647059    2.198617    0.000000    1.000000
   140  Na    c     0.006284   -6.647059    2.198617    0.000000    1.000000
   141  O     c     2.202951   -2.208541   -6.598257    0.000000    0.183000
   142  O     c     2.202951   -6.613949   -2.198956    0.000000    0.183000
   143  Na    c     2.202951   -2.316788    8.795789    0.000000    1.000000
   144  Na    c     2.202951   -6.690630    4.406737    0.000000    1.000000
   145  Na    c     2.202951    4.393576   -6.656829    0.000000    1.000000
   146  Na    c     2.202951    8.784714   -2.277531    0.000000    1.000000
   147  Cl    c     4.412175    4.413126    8.838380    0.000000    1.485000
   148  Cl    c    -0.006273    4.413126    8.838380    0.000000    1.485000
   149  Cl    c     8.822449    0.001149   -4.411044    0.000000    1.485000
   150  Cl    c    -4.416546    0.001149   -4.411044    0.000000    1.485000
   151  Na    c     4.404327   -2.191093   -6.591005    0.000000    1.000000
   152  Na    c     0.001575   -2.191093   -6.591005    0.000000    1.000000
   153  Na    c     8.815412    2.199594    6.630400    0.000000    1.000000
   154  Na    c    -4.409510    2.199594    6.630400    0.000000    1.000000
   155  Cl    c     4.406557    8.840406    4.415089    0.000000    1.485000
   156  Cl    c    -0.000654    8.840406    4.415089    0.000000    1.485000
   157  Cl    c     8.830990   -4.407971   -0.002601    0.000000    1.485000
   158  Cl    c    -4.425087   -4.407971   -0.002601    0.000000    1.485000
   159  Na    c     4.408786   -6.595814   -2.186681    0.000000    1.000000
   160  Na    c    -0.002884   -6.595814   -2.186681    0.000000    1.000000
   161  Na    c     8.808386    6.572333    2.206188    0.000000    1.000000
   162  Na    c    -4.402484    6.572333    2.206188    0.000000    1.000000
   163  O     c     6.601902    2.199066   -6.595859    0.000000    0.183000
   164  O     c    -2.195999    2.199066   -6.595859    0.000000    0.183000
   165  O     c     6.622311    6.619976    6.623227    0.000000    0.183000
   166  O     c    -2.216409    6.619976    6.623227    0.000000    0.183000
   167  Na    c     6.595824    2.205923    8.818530    0.000000    1.000000
   168  Na    c    -2.189922    2.205923    8.818530    0.000000    1.000000
   169  Na    c     6.604301    6.594048   -4.401556    0.000000    1.000000
   170  Na    c    -2.198398    6.594048   -4.401556    0.000000    1.000000
   171  Na    c     6.614739    0.000031   -6.583592    0.000000    1.000000
   172  Na    c    -2.208836    0.000031   -6.583592    0.000000    1.000000
   173  Na    c     6.601339   -4.409788    6.592544    0.000000    1.000000
   174  Na    c    -2.195436   -4.409788    6.592544    0.000000    1.000000
   175  O     c     6.597821   -6.601327    2.202744    0.000000    0.183000
   176  O     c    -2.191919   -6.601327    2.202744    0.000000    0.183000
   177  O     c    11.011739    2.206261    2.207383    0.000000    0.183000
   178  O     c    -6.605837    2.206261    2.207383    0.000000    0.183000
   179  Na    c     6.605941   -6.574411    0.000437    0.000000    1.000000
   180  Na    c    -2.200038   -6.574411    0.000437    0.000000    1.000000
   181  Na    c    10.991853    2.193714    0.004628    0.000000    1.000000
   182  Na    c    -6.585951    2.193714    0.004628    0.000000    1.000000
   183  Na    c     6.622528    8.812437    2.205378    0.000000    1.000000
   184  Na    c    -2.216625    8.812437    2.205378    0.000000    1.000000
   185  Na    c    10.943607   -0.000568    2.208857    0.000000    1.000000
   186  Na    c    -6.537705   -0.000568    2.208857    0.000000    1.000000
   187  Cl    c     8.826090    4.413112   -4.409353    0.000000    1.485000
   188  Cl    c    -4.420188    4.413112   -4.409353    0.000000    1.485000
   189  Cl    c     8.834509   -4.404286    4.414790    0.000000    1.485000
   190  Cl    c    -4.428607   -4.404286    4.414790    0.000000    1.485000
   191  Na    c     8.810017    6.610412   -2.195743    0.000000    1.000000
   192  Na    c    -4.404114    6.610412   -2.195743    0.000000    1.000000
   193  Na    c     8.808256   -2.198839    6.606639    0.000000    1.000000
   194  Na    c    -4.402354   -2.198839    6.606639    0.000000    1.000000
   195  O     c     2.202951    6.589161   -6.590802    0.000000    0.183000
   196  O     c     2.202951   -6.605837    6.598413    0.000000    0.183000
   197  O     c     6.609783   -2.203280   -6.607402    0.000000    0.183000
   198  O     c    -2.203880   -2.203280   -6.607402    0.000000    0.183000
   199  Na    c     2.202951    6.546980    8.799232    0.000000    1.000000
   200  Na    c     2.202951   -6.578718   -4.399174    0.000000    1.000000
   201  Na    c     6.596830   -2.215899    8.812961    0.000000    1.000000
   202  Na    c    -2.190928   -2.215899    8.812961    0.000000    1.000000
   203  Na    c     2.202951    8.800867    6.619534    0.000000    1.000000
   204  Na    c     2.202951   -4.407393   -6.633281    0.000000    1.000000
   205  Na    c     6.589110    4.402015   -6.597573    0.000000    1.000000
   206  Na    c    -2.183207    4.402015   -6.597573    0.000000    1.000000
   207  O     c     6.618217   -6.616855   -2.210551    0.000000    0.183000
   208  O     c    -2.212314   -6.616855   -2.210551    0.000000    0.183000
   209  O     c    11.009625    2.203045   -2.199026    0.000000    0.183000
   210  O     c    -6.603723    2.203045   -2.199026    0.000000    0.183000
   211  O     c    11.002669   -2.204156    2.205938    0.000000    0.183000
   212  O     c    -6.596767   -2.204156    2.205938    0.000000    0.183000
   213  Na    c     6.590201   -6.594412    4.408972    0.000000    1.000000
   214  Na    c    -2.184299   -6.594412    4.408972    0.000000    1.000000
   215  Na    c    11.001857    2.198995    4.409729    0.000000    1.000000
   216  Na    c    -6.595955    2.198995    4.409729    0.000000    1.000000
   217  Na    c    10.990777   -2.196370    0.005336    0.000000    1.000000
   218  Na    c    -6.584875   -2.196370    0.005336    0.000000    1.000000
   219  Na    c     6.592299    8.808581   -2.205894    0.000000    1.000000
   220  Na    c    -2.186397    8.808581   -2.205894    0.000000    1.000000
   221  Na    c    10.996722    0.001273   -2.205986    0.000000    1.000000
   222  Na    c    -6.590820    0.001273   -2.205986    0.000000    1.000000
   223  Na    c    11.033942    4.405479    2.203041    0.000000    1.000000
   224  Na    c    -6.628039    4.405479    2.203041    0.000000    1.000000
   225  Cl    c     4.409645    8.824175   -4.405101    0.000000    1.485000
   226  Cl    c    -0.003743    8.824175   -4.405101    0.000000    1.485000
   227  Cl    c     4.411738   -4.404922    8.837101    0.000000    1.485000
   228  Cl    c    -0.005836   -4.404922    8.837101    0.000000    1.485000
   229  Na    c     4.402260    6.605232   -6.583588    0.000000    1.000000
   230  Na    c     0.003643    6.605232   -6.583588    0.000000    1.000000
   231  Na    c     4.407437   -6.584608    6.603892    0.000000    1.000000
   232  Na    c    -0.001535   -6.584608    6.603892    0.000000    1.000000
   233  O     c     2.202951    2.211104   11.018105    0.000000    0.183000
   234  O     c     2.202951   11.026528    2.207635    0.000000    0.183000
   235  O     c    11.010348   -2.200372   -2.199626    0.000000    0.183000
   236  O     c    -6.604446   -2.200372   -2.199626    0.000000    0.183000
   237  Na    c     2.202951    2.160844   -8.796250    0.000000    1.000000
   238  Na    c     2.202951   10.981704   -0.004887    0.000000    1.000000
   239  Na    c    10.998912   -2.201704    4.406931    0.000000    1.000000
   240  Na    c    -6.593010   -2.201704    4.406931    0.000000    1.000000
   241  Na    c     2.202951   -0.003832   10.959238    0.000000    1.000000
   242  Na    c     2.202951   -8.832072    2.183342    0.000000    1.000000
   243  Na    c    11.002725    4.405130   -2.192527    0.000000    1.000000
   244  Na    c    -6.596822    4.405130   -2.192527    0.000000    1.000000
   245  Cl    c     4.405589    0.000999   -8.827851    0.000000    1.485000
   246  Cl    c     0.000313    0.000999   -8.827851    0.000000    1.485000
   247  Cl    c     8.827369    0.003864    8.827259    0.000000    1.485000
   248  Cl    c    -4.421467    0.003864    8.827259    0.000000    1.485000
   249  Cl    c     8.823646    8.825355   -0.000109    0.000000    1.485000
   250  Cl    c    -4.417744    8.825355   -0.000109    0.000000    1.485000
   251  Cl    c     8.823816   -4.413227   -4.419771    0.000000    1.485000
   252  Cl    c    -4.417913   -4.413227   -4.419771    0.000000    1.485000
   253  Na    c     4.403641    2.186434   11.013573    0.000000    1.000000
   254  Na    c     0.002261    2.186434   11.013573    0.000000    1.000000
   255  Na    c     8.803460    2.215199   -6.577481    0.000000    1.000000
[...]
    260 y          6.608853      6.568082    -0.040772    Cartesian   -0.62
    260 z         -2.202951     -2.160408     0.042543    Cartesian   -1.93
    261 x          2.202951      2.202951     0.000000    Cartesian    0.00
    261 y         -2.202951     -2.184602     0.018349    Cartesian   -0.83
    261 z          6.608853      6.585844    -0.023009    Cartesian   -0.35
    262 x          6.608853      6.611448     0.002595    Cartesian    0.04
    262 y         -2.202951     -2.210860    -0.007909    Cartesian    0.36
    262 z         -2.202951     -2.200992     0.001959    Cartesian   -0.09
    263 x          8.811805      8.836193     0.024389    Cartesian    0.28
    263 y          0.000000      0.008989     0.008989    Cartesian    0.00
    263 z          0.000000      0.011867     0.011867    Cartesian    0.00
    264 x          4.405902      4.433306     0.027404    Cartesian    0.62
    264 y          4.405902      4.410701     0.004798    Cartesian    0.11
    264 z         -4.405902     -4.433553    -0.027651    Cartesian    0.63
    265 x          4.405902      4.478597     0.072694    Cartesian    1.65
    265 y         -4.405902     -4.499169    -0.093267    Cartesian    2.12
    265 z          4.405902      4.482515     0.076612    Cartesian    1.74
    266 x          6.608853      6.623270     0.014417    Cartesian    0.22
    266 y          2.202951      2.211379     0.008428    Cartesian    0.38
    266 z          6.608853      6.632899     0.024045    Cartesian    0.36
    267 x          6.608853      6.614559     0.005705    Cartesian    0.09
    267 y          6.608853      6.621849     0.012996    Cartesian    0.20
    267 z          2.202951      2.213294     0.010342    Cartesian    0.47
    268 x          8.811805      8.843149     0.031344    Cartesian    0.36
    268 y          0.000000      0.010089     0.010089    Cartesian    0.00
    268 z          4.405902      4.415452     0.009550    Cartesian    0.22
    269 x          8.811805      8.841207     0.029402    Cartesian    0.33
    269 y          4.405902      4.410122     0.004220    Cartesian    0.10
    269 z          0.000000      0.008028     0.008028    Cartesian    0.00
    270 x          2.202951      2.202951     0.000000    Cartesian    0.00
    270 y          2.202951      2.204342     0.001391    Cartesian    0.06
    270 z         -6.608853     -6.576881     0.031973    Cartesian   -0.48
    271 x          2.202951      2.202951     0.000000    Cartesian    0.00
    271 y          6.608853      6.596751    -0.012102    Cartesian   -0.18
    271 z          6.608853      6.599788    -0.009065    Cartesian   -0.14
    272 x          2.202951      2.202951     0.000000    Cartesian    0.00
    272 y         -6.608853     -6.650788    -0.041934    Cartesian    0.63
    272 z          2.202951      2.210386     0.007435    Cartesian    0.34
    273 x          6.608853      6.616542     0.007688    Cartesian    0.12
    273 y          6.608853      6.613591     0.004737    Cartesian    0.07
    273 z         -2.202951     -2.207847    -0.004896    Cartesian    0.22
    274 x          6.608853      6.615540     0.006687    Cartesian    0.10
    274 y         -2.202951     -2.211881    -0.008930    Cartesian    0.41
    274 z          6.608853      6.620181     0.011327    Cartesian    0.17
    275 x          4.405902      4.411574     0.005671    Cartesian    0.13
    275 y          0.000000     -0.002387    -0.002387    Cartesian    0.00
    275 z          8.811805      8.848598     0.036793    Cartesian    0.42
    276 x          4.405902      4.408641     0.002738    Cartesian    0.06
    276 y         -4.405902     -4.417352    -0.011449    Cartesian    0.26
    276 z         -4.405902     -4.430443    -0.024540    Cartesian    0.56
    277 x          8.811805      8.847638     0.035833    Cartesian    0.41
    277 y          4.405902      4.412737     0.006834    Cartesian    0.16
    277 z          4.405902      4.418561     0.012659    Cartesian    0.29
    278 x          4.405902      4.407547     0.001645    Cartesian    0.04
    278 y          8.811805      8.844616     0.032811    Cartesian    0.37
    278 z          0.000000      0.000901     0.000901    Cartesian    0.00
    279 x          2.202951      2.202951     0.000000    Cartesian    0.00
    279 y         -2.202951     -2.208557    -0.005606    Cartesian    0.25
    279 z         -6.608853     -6.598253     0.010600    Cartesian   -0.16
    280 x          2.202951      2.202951     0.000000    Cartesian    0.00
    280 y         -6.608853     -6.613950    -0.005097    Cartesian    0.08
    280 z         -2.202951     -2.198945     0.004006    Cartesian   -0.18
    281 x          4.405902      4.412942     0.007040    Cartesian    0.16
    281 y          4.405902      4.414164     0.008261    Cartesian    0.19
    281 z          8.811805      8.843064     0.031260    Cartesian    0.35
    282 x          8.811805      8.825826     0.014021    Cartesian    0.16
    282 y          0.000000      0.000627     0.000627    Cartesian    0.00
    282 z         -4.405902     -4.413369    -0.007467    Cartesian    0.17
    283 x          4.405902      4.406058     0.000156    Cartesian    0.00
    283 y          8.811805      8.843937     0.032133    Cartesian    0.36
    283 z          4.405902      4.415122     0.009220    Cartesian    0.21
    284 x          8.811805      8.835846     0.024042    Cartesian    0.27
    284 y         -4.405902     -4.408677    -0.002775    Cartesian    0.06
    284 z          0.000000     -0.004046    -0.004046    Cartesian    0.00
    285 x          6.608853      6.601894    -0.006960    Cartesian   -0.11
    285 y          2.202951      2.199064    -0.003887    Cartesian   -0.18
    285 z         -6.608853     -6.595868     0.012985    Cartesian   -0.20
    286 x          6.608853      6.622322     0.013469    Cartesian    0.20
    286 y          6.608853      6.619981     0.011128    Cartesian    0.17
    286 z          6.608853      6.623236     0.014383    Cartesian    0.22
    287 x          6.608853      6.597796    -0.011057    Cartesian   -0.17
    287 y         -6.608853     -6.601347     0.007506    Cartesian   -0.11
    287 z          2.202951      2.202744    -0.000207    Cartesian   -0.01
    288 x         11.014756     11.011737    -0.003018    Cartesian   -0.03
    288 y          2.202951      2.206273     0.003322    Cartesian    0.15
    288 z          2.202951      2.207384     0.004433    Cartesian    0.20
    289 x          8.811805      8.829524     0.017719    Cartesian    0.20
    289 y          4.405902      4.414899     0.008997    Cartesian    0.20
    289 z         -4.405902     -4.411324    -0.005422    Cartesian    0.12
    290 x          8.811805      8.839553     0.027749    Cartesian    0.31
    290 y         -4.405902     -4.404662     0.001240    Cartesian   -0.03
    290 z          4.405902      4.416078     0.010176    Cartesian    0.23
    291 x          2.202951      2.202951     0.000000    Cartesian    0.00
    291 y          6.608853      6.589134    -0.019719    Cartesian   -0.30
    291 z         -6.608853     -6.590833     0.018020    Cartesian   -0.27
    292 x          2.202951      2.202951     0.000000    Cartesian    0.00
    292 y         -6.608853     -6.605868     0.002986    Cartesian   -0.05
    292 z          6.608853      6.598385    -0.010469    Cartesian   -0.16
    293 x          6.608853      6.609785     0.000932    Cartesian    0.01
    293 y         -2.202951     -2.203278    -0.000326    Cartesian    0.01
    293 z         -6.608853     -6.607405     0.001449    Cartesian   -0.02
    294 x          6.608853      6.618226     0.009372    Cartesian    0.14
    294 y         -6.608853     -6.616857    -0.008004    Cartesian    0.12
    294 z         -2.202951     -2.210558    -0.007607    Cartesian    0.35
    295 x         11.014756     11.009633    -0.005123    Cartesian   -0.05
    295 y          2.202951      2.203043     0.000092    Cartesian    0.00
    295 z         -2.202951     -2.199025     0.003926    Cartesian   -0.18
    296 x         11.014756     11.002679    -0.012076    Cartesian   -0.11
    296 y         -2.202951     -2.204167    -0.001215    Cartesian    0.06
    296 z          2.202951      2.205938     0.002987    Cartesian    0.14
    297 x          4.405902      4.410461     0.004558    Cartesian    0.10
    297 y          8.811805      8.828551     0.016747    Cartesian    0.19
    297 z         -4.405902     -4.406136    -0.000234    Cartesian    0.01
    298 x          4.405902      4.412191     0.006288    Cartesian    0.14
    298 y         -4.405902     -4.404420     0.001482    Cartesian   -0.03
    298 z          8.811805      8.841932     0.030127    Cartesian    0.34
    299 x          2.202951      2.202951     0.000000    Cartesian    0.00
    299 y          2.202951      2.211131     0.008180    Cartesian    0.37
    299 z         11.014756     11.018106     0.003350    Cartesian    0.03
    300 x          2.202951      2.202951     0.000000    Cartesian    0.00
    300 y         11.014756     11.026511     0.011755    Cartesian    0.11
    300 z          2.202951      2.207649     0.004698    Cartesian    0.21
    301 x         11.014756     11.010350    -0.004406    Cartesian   -0.04
    301 y         -2.202951     -2.200371     0.002581    Cartesian   -0.12
    301 z         -2.202951     -2.199626     0.003325    Cartesian   -0.15
    302 x          4.405902      4.405736    -0.000166    Cartesian   -0.00
    302 y          0.000000      0.001022     0.001022    Cartesian    0.00
    302 z         -8.811805     -8.831692    -0.019887    Cartesian    0.23
    303 x          8.811805      8.829837     0.018032    Cartesian    0.20
    303 y          0.000000      0.005186     0.005186    Cartesian    0.00
    303 z          8.811805      8.829056     0.017251    Cartesian    0.20
    304 x          8.811805      8.825669     0.013865    Cartesian    0.16
    304 y          8.811805      8.827744     0.015939    Cartesian    0.18
    304 z          0.000000      0.000163     0.000163    Cartesian    0.00
    305 x          8.811805      8.825846     0.014042    Cartesian    0.16
    305 y         -4.405902     -4.414010    -0.008108    Cartesian    0.18
    305 z         -4.405902     -4.421897    -0.015995    Cartesian    0.36
    306 x          4.405902      4.409741     0.003839    Cartesian    0.09
    306 y         -8.811805     -8.840921    -0.029116    Cartesian    0.33
    306 z          0.000000     -0.002241    -0.002241    Cartesian    0.00
    307 x          2.202951      2.202951     0.000000    Cartesian    0.00
    307 y         11.014756     11.007847    -0.006908    Cartesian   -0.06
    307 z         -2.202951     -2.212385    -0.009434    Cartesian    0.43
    308 x          2.202951      2.202951     0.000000    Cartesian    0.00
    308 y         -2.202951     -2.214655    -0.011704    Cartesian    0.53
    308 z         11.014756     11.010469    -0.004287    Cartesian   -0.04
    309 x          6.608853      6.608722    -0.000131    Cartesian   -0.00
    309 y          6.608853      6.609430     0.000577    Cartesian    0.01
    309 z         -6.608853     -6.607872     0.000981    Cartesian   -0.01
    310 x          6.608853      6.618271     0.009417    Cartesian    0.14
    310 y         -6.608853     -6.615817    -0.006964    Cartesian    0.11
    310 z          6.608853      6.618574     0.009721    Cartesian    0.15
    311 x         11.014756     11.020574     0.005818    Cartesian    0.05
    311 y          2.202951      2.203824     0.000873    Cartesian    0.04
    311 z          6.608853      6.613213     0.004359    Cartesian    0.07
    312 x         11.014756     11.018577     0.003821    Cartesian    0.03
    312 y          6.608853      6.606613    -0.002241    Cartesian   -0.03
    312 z          2.202951      2.204793     0.001842    Cartesian    0.08
    313 x          8.811805      8.830630     0.018825    Cartesian    0.21
    313 y          8.811805      8.830806     0.019001    Cartesian    0.22
    313 z          4.405902      4.411830     0.005928    Cartesian    0.13
    314 x          4.405902      4.405012    -0.000890    Cartesian   -0.02
    314 y          4.405902      4.406492     0.000590    Cartesian    0.01
    314 z         -8.811805     -8.825725    -0.013920    Cartesian    0.16
    315 x          4.405902      4.408702     0.002799    Cartesian    0.06
    315 y         -8.811805     -8.841143    -0.029338    Cartesian    0.33
    315 z          4.405902      4.407933     0.002031    Cartesian    0.05
    316 x          8.811805      8.834374     0.022569    Cartesian    0.26
    316 y          4.405902      4.414103     0.008201    Cartesian    0.19
    316 z          8.811805      8.830454     0.018650    Cartesian    0.21
    317 x          2.202951      2.202951     0.000000    Cartesian    0.00
    317 y         -6.608853     -6.610166    -0.001313    Cartesian    0.02
    317 z         -6.608853     -6.612768    -0.003914    Cartesian    0.06
    318 x          6.608853      6.609476     0.000623    Cartesian    0.01
    318 y          2.202951      2.202207    -0.000744    Cartesian   -0.03
    318 z         11.014756     11.020920     0.006164    Cartesian    0.06
    319 x          6.608853      6.612549     0.003695    Cartesian    0.06
    319 y         11.014756     11.018926     0.004170    Cartesian    0.04
    319 z          2.202951      2.202555    -0.000396    Cartesian   -0.02
    320 x         11.014756     11.016733     0.001977    Cartesian    0.02
    320 y          6.608853      6.611606     0.002753    Cartesian    0.04
    320 z         -2.202951     -2.201695     0.001256    Cartesian   -0.06
    321 x         11.014756     11.017587     0.002831    Cartesian    0.03
    321 y         -2.202951     -2.201420     0.001531    Cartesian   -0.07
    321 z          6.608853      6.611960     0.003106    Cartesian    0.05
    322 x          4.405902      4.412840     0.006938    Cartesian    0.16
    322 y          8.811805      8.828358     0.016553    Cartesian    0.19
    322 z          8.811805      8.825043     0.013238    Cartesian    0.15
    323 x         13.217707     13.241788     0.024081    Cartesian    0.18
    323 y          0.000000     -0.000788    -0.000788    Cartesian    0.00
    323 z          0.000000     -0.001452    -0.001452    Cartesian    0.00
    324 x          6.608853      6.611497     0.002644    Cartesian    0.04
    324 y         11.014756     11.019759     0.005003    Cartesian    0.05
    324 z         -2.202951     -2.205457    -0.002506    Cartesian    0.11
    325 x          2.202951      2.202951     0.000000    Cartesian    0.00
    325 y          6.608853      6.608588    -0.000266    Cartesian   -0.00
    325 z         11.014756     11.017778     0.003022    Cartesian    0.03
    326 x          2.202951      2.202951     0.000000    Cartesian    0.00
    326 y         11.014756     11.016819     0.002064    Cartesian    0.02
    326 z          6.608853      6.614408     0.005554    Cartesian    0.08
    327 x          6.608853      6.613233     0.004379    Cartesian    0.07
    327 y         -2.202951     -2.205048    -0.002097    Cartesian    0.10
    327 z         11.014756     11.021867     0.007112    Cartesian    0.06
    328 x          4.405902      4.410111     0.004209    Cartesian    0.10
    328 y         -4.405902     -4.416513    -0.010611    Cartesian    0.24
    328 z         -8.811805     -8.830635    -0.018830    Cartesian    0.21
    329 x          4.405902      4.412955     0.007053    Cartesian    0.16
    329 y         -8.811805     -8.832846    -0.021042    Cartesian    0.24
    329 z         -4.405902     -4.423225    -0.017323    Cartesian    0.39
    330 x          8.811805      8.827042     0.015237    Cartesian    0.17
    330 y          8.811805      8.829045     0.017240    Cartesian    0.20
    330 z         -4.405902     -4.419032    -0.013130    Cartesian    0.30
    331 x          8.811805      8.831830     0.020026    Cartesian    0.23
    331 y         -4.405902     -4.415276    -0.009373    Cartesian    0.21
    331 z          8.811805      8.834109     0.022305    Cartesian    0.25
    332 x         13.217707     13.244261     0.026554    Cartesian    0.20
    332 y          0.000000     -0.001359    -0.001359    Cartesian    0.00
    332 z          4.405902      4.409695     0.003793    Cartesian    0.09
    333 x         13.217707     13.239163     0.021456    Cartesian    0.16
    333 y          4.405902      4.412382     0.006479    Cartesian    0.15
    333 z          0.000000     -0.002313    -0.002313    Cartesian    0.00
    334 x          6.608853      6.612101     0.003248    Cartesian    0.05
    334 y         -6.608853     -6.614296    -0.005442    Cartesian    0.08
    334 z         -6.608853     -6.614037    -0.005184    Cartesian    0.08
    335 x         11.014756     11.017375     0.002620    Cartesian    0.02
    335 y          2.202951      2.206345     0.003394    Cartesian    0.15
    335 z         -6.608853     -6.610096    -0.001243    Cartesian    0.02
    336 x         11.014756     11.022032     0.007276    Cartesian    0.07
    336 y          6.608853      6.614138     0.005285    Cartesian    0.08
    336 z          6.608853      6.613368     0.004515    Cartesian    0.07
    337 x         11.014756     11.018785     0.004029    Cartesian    0.04
    337 y         -6.608853     -6.608314     0.000539    Cartesian   -0.01
    337 z          2.202951      2.205881     0.002930    Cartesian    0.13
    338 x         13.217707     13.241190     0.023483    Cartesian    0.18
    338 y          4.405902      4.415157     0.009255    Cartesian    0.21
    338 z          4.405902      4.412637     0.006735    Cartesian    0.15
    339 x          8.811805      8.822264     0.010460    Cartesian    0.12
    339 y          0.000000     -0.003141    -0.003141    Cartesian    0.00
    339 z         -8.811805     -8.832927    -0.021123    Cartesian    0.24
    340 x          8.811805      8.828078     0.016273    Cartesian    0.18
    340 y         -8.811805     -8.837615    -0.025810    Cartesian    0.29
    340 z          0.000000     -0.005482    -0.005482    Cartesian    0.00
--------------------------------------------------------------------------------


  Time to end of optimisation  =       36.4340 seconds


  Peak dynamic memory used =     107.84 MB 


  Timing analysis for GULP :

--------------------------------------------------------------------------------
  Task / Subroutine                                          Time (Seconds)
--------------------------------------------------------------------------------
  Calculation of reciprocal space energy and derivatives          0.0007
  Calculation of reciprocal space energy using symmetry           0.0011
  Calculation of real space energy and derivatives                0.0037
  Calculation of real space energy using symmetry                 0.0116
  Calculation for region 1 energy and derivatives (2-b)          19.2606
  Calculation for region 2a energy                               15.9089
  Calculation for region 2b energy                                0.0050
  Calculation and manipulation of Hessian matrix                  0.0806
  Calculation of matrix inversion                                 0.9823
  Symmetry generation of equivalent positions                     0.0045
--------------------------------------------------------------------------------
  Total CPU time                                                 36.4341
--------------------------------------------------------------------------------


  Dump file written as Na3OCl.grs


  Job Finished at 13:24.36 26th September  2021                               

