********************************************************************************
*                       GENERAL UTILITY LATTICE PROGRAM                        *
*                                 Julian Gale                                  *
*                       Curtin Institute for Computation                       *
*                    School of Molecular and Life Sciences                     *
*                    Curtin University, Western Australia                      *
********************************************************************************
* Version = 5.2.0 * Last modified =  10th September 2020                       *
********************************************************************************
*  optimise     - perform optimisation run                                     *
*  conp         - constant pressure calculation                                *
*  property     - calculate properties for final geometry                      *
*  defect       - perform defect calculation after bulk run                    *
*  compare      - compare initial and final structures                         *
********************************************************************************

  Job Started  at 13:24.37 26th September  2021                               

  Number of CPUs =     1


  Total number of configurations input =      1

********************************************************************************
*  Input for Configuration =   1                                               *
********************************************************************************

  Formula = ClONa3                                                      

  Number of irreducible atoms/shells =       5


  Total number atoms/shells =       7

  Dimensionality = 3               :  Bulk   


  Symmetry :

  Crystal family                   :  Cubic       
  Crystal class  (Groth - 1921)    :  Cubic Hexakisoctahedral              

  Space group (centrosymmetric)    :  P M 3 M         

  Patterson group                  :  P m -3 m 

  Cartesian lattice vectors (Angstroms) :

        4.504000    0.000000    0.000000
        0.000000    4.504000    0.000000
        0.000000    0.000000    4.504000

  Cell parameters (Angstroms/Degrees):

  a =       4.5040    alpha =  90.0000
  b =       4.5040    beta  =  90.0000
  c =       4.5040    gamma =  90.0000

  Initial cell volume =          91.368216 Angs**3

  Temperature of configuration =   0.00     K 

  Pressure of configuration =         0.000 GPa 

  Fractional coordinates of asymmetric unit :

--------------------------------------------------------------------------------
   No.  Atomic       x           y          z         Charge      Occupancy
        Label      (Frac)      (Frac)     (Frac)        (e)         (Frac)  
--------------------------------------------------------------------------------
      1 Cl    c    0.000000    0.000000    0.000000     1.48500    1.000000    
      2 O     c    0.500000    0.500000    0.500000     0.18300    1.000000    
      3 Na    c    0.500000    0.500000    0.000000     1.00000    1.000000    
      4 Cl    s    0.000000    0.000000    0.000000    -2.48500    1.000000    
      5 O     s    0.500000    0.500000    0.500000    -2.18300    1.000000    
--------------------------------------------------------------------------------


  Constraints : 

--------------------------------------------------------------------------------
  Constraint no.      Unconstrained     Constrained    Coefficient    Offset
                         Variable         Variable
--------------------------------------------------------------------------------
           1              Strain 1        Strain 2       1.00000      0.0000
           2              Strain 1        Strain 3       1.00000      0.0000
--------------------------------------------------------------------------------


********************************************************************************
*  General input information                                                   *
********************************************************************************

  Species output for all configurations : 

--------------------------------------------------------------------------------
  Species    Type    Atomic    Atomic    Charge       Radii (Angs)     Library
                     Number     Mass       (e)     Cova   Ionic  VDW   Symbol
--------------------------------------------------------------------------------
    Na       Core       11      22.99   1.000000   0.970  0.000  2.300          
    O        Core        8      16.00   0.183000   0.730  0.000  1.360          
    O        Shell       8       0.00  -2.183000   0.730  0.000  1.360          
    Cl       Core       17      35.45   1.485000   0.990  0.000  1.650          
    Cl       Shell      17       0.00  -2.485000   0.990  0.000  1.650          
    Mg       Core       12      24.31   0.415000   1.100  0.000  0.000          
    Mg       Shell      12       0.00   1.585000   1.100  0.000  0.000          
    Ca       Core       20      40.08  -1.135000   0.990  0.000  0.000          
    Ca       Shell      20       0.00   3.135000   0.990  0.000  0.000          
    Sr       Core       38      87.62  -1.251000   1.120  0.000  0.000          
    Sr       Shell      38       0.00   3.251000   1.120  0.000  0.000          
    Ba       Core       56     137.33  -7.203000   1.340  0.000  0.000          
    Ba       Shell      56       0.00   9.203000   1.340  0.000  0.000          
    Al       Core       13      26.98   3.000000   1.350  0.000  0.000          
    Ga       Core       31      69.72   3.000000   1.220  0.000  0.000          
--------------------------------------------------------------------------------


  Lattice summation method               =    Ewald          (3-D)
                                         =    Parry          (2-D)
                                         =    Saunders et al (1-D)
  Accuracy factor for lattice sums       =   12.000


  Analytic derivatives to be used

  Time limit = Infinity

  Maximum range for interatomic potentials =    100000.000000 Angstroms

  General interatomic potentials :

--------------------------------------------------------------------------------
Atom  Types   Potential      Parameter       Value         Units   Cutoffs(Ang)
  1     2                                                            Min /  Max 
--------------------------------------------------------------------------------
O    c O    s Spring (c-s)  Spring k 2       593.71600    eV*Ang^-2 0.000  0.800
                            Spring k 4       0.0000000    eV*Ang^-4 
--------------------------------------------------------------------------------
Cl   c Cl   s Spring (c-s)  Spring k 2       29.380000    eV*Ang^-2 0.000  0.800
                            Spring k 4       0.0000000    eV*Ang^-4 
--------------------------------------------------------------------------------
Mg   c Mg   s Spring (c-s)  Spring k 2       361.60000    eV*Ang^-2 0.000  0.800
                            Spring k 4       0.0000000    eV*Ang^-4 
--------------------------------------------------------------------------------
Ca   c Ca   s Spring (c-s)  Spring k 2       110.20000    eV*Ang^-2 0.000  0.800
                            Spring k 4       0.0000000    eV*Ang^-4 
--------------------------------------------------------------------------------
Sr   c Sr   s Spring (c-s)  Spring k 2       71.700000    eV*Ang^-2 0.000  0.800
                            Spring k 4       0.0000000    eV*Ang^-4 
--------------------------------------------------------------------------------
Ba   c Ba   s Spring (c-s)  Spring k 2       495.20000    eV*Ang^-2 0.000  0.800
                            Spring k 4       0.0000000    eV*Ang^-4 
--------------------------------------------------------------------------------
Na   c Na   c Buckingham    Buckingham A     1788.1900    eV        0.000 12.000
                            Buckingham rho  0.15900000    Ang       
                            Buckingham C     0.0000000    eV*Ang^6  
--------------------------------------------------------------------------------
Na   c O    s Buckingham    Buckingham A     588.38000    eV        0.000 12.000
                            Buckingham rho  0.33800000    Ang       
                            Buckingham C     0.0000000    eV*Ang^6  
--------------------------------------------------------------------------------
Na   c Cl   s Buckingham    Buckingham A     1170.4100    eV        0.000 12.000
                            Buckingham rho  0.31500000    Ang       
                            Buckingham C     0.0000000    eV*Ang^6  
--------------------------------------------------------------------------------
O    s O    s Buckingham    Buckingham A     22764.300    eV        0.000 12.000
                            Buckingham rho  0.14900000    Ang       
                            Buckingham C     13.190000    eV*Ang^6  
--------------------------------------------------------------------------------
O    s Cl   s Buckingham    Buckingham A     8286.9100    eV        0.000 12.000
                            Buckingham rho  0.25900000    Ang       
                            Buckingham C     62.200000    eV*Ang^6  
--------------------------------------------------------------------------------
Cl   s Cl   s Buckingham    Buckingham A     1227.2000    eV        0.000 12.000
                            Buckingham rho  0.32100000    Ang       
                            Buckingham C     14.530000    eV*Ang^6  
--------------------------------------------------------------------------------
O    s Mg   s Buckingham    Buckingham A     1428.5000    eV        0.000 12.000
                            Buckingham rho  0.29450000    Ang       
                            Buckingham C     0.0000000    eV*Ang^6  
--------------------------------------------------------------------------------
Mg   s Cl   s Buckingham    Buckingham A     4914.5400    eV        0.000 12.000
                            Buckingham rho  0.25700000    Ang       
                            Buckingham C     0.0000000    eV*Ang^6  
--------------------------------------------------------------------------------
O    s Ca   s Buckingham    Buckingham A     1090.4000    eV        0.000 12.000
                            Buckingham rho  0.34370000    Ang       
                            Buckingham C     0.0000000    eV*Ang^6  
--------------------------------------------------------------------------------
Cl   s Ca   s Buckingham    Buckingham A     2302.0000    eV        0.000 12.000
                            Buckingham rho  0.34020000    Ang       
                            Buckingham C     0.0000000    eV*Ang^6  
--------------------------------------------------------------------------------
O    s Sr   s Buckingham    Buckingham A     959.10000    eV        0.000 12.000
                            Buckingham rho  0.37210000    Ang       
                            Buckingham C     0.0000000    eV*Ang^6  
--------------------------------------------------------------------------------
Cl   s Sr   s Buckingham    Buckingham A     2191.0900    eV        0.000 12.000
                            Buckingham rho  0.34570000    Ang       
                            Buckingham C     0.0000000    eV*Ang^6  
--------------------------------------------------------------------------------
O    s Ba   s Buckingham    Buckingham A     905.70000    eV        0.000 12.000
                            Buckingham rho  0.39760000    Ang       
                            Buckingham C     0.0000000    eV*Ang^6  
--------------------------------------------------------------------------------
Cl   s Ba   s Buckingham    Buckingham A     2704.5500    eV        0.000 12.000
                            Buckingham rho  0.35280000    Ang       
                            Buckingham C     0.0000000    eV*Ang^6  
--------------------------------------------------------------------------------
Al   c O    s Buckingham    Buckingham A     1725.0000    eV        0.000 12.000
                            Buckingham rho  0.28970000    Ang       
                            Buckingham C     0.0000000    eV*Ang^6  
--------------------------------------------------------------------------------
Al   c Cl   s Buckingham    Buckingham A     1736.1200    eV        0.000 12.000
                            Buckingham rho  0.29170000    Ang       
                            Buckingham C     0.0000000    eV*Ang^6  
--------------------------------------------------------------------------------
Ga   c O    s Buckingham    Buckingham A     2901.1200    eV        0.000 12.000
                            Buckingham rho  0.27420000    Ang       
                            Buckingham C     0.0000000    eV*Ang^6  
--------------------------------------------------------------------------------
Ga   c Cl   s Buckingham    Buckingham A     924.20000    eV        0.000 12.000
                            Buckingham rho  0.34280000    Ang       
                            Buckingham C     0.0000000    eV*Ang^6  
--------------------------------------------------------------------------------

********************************************************************************
*  Output for configuration   1                                                *
********************************************************************************


  Components of energy : 

--------------------------------------------------------------------------------
  Interatomic potentials     =           4.94315381 eV    
  Monopole - monopole (real) =         -10.03624526 eV    
  Monopole - monopole (recip)=         -29.53581274 eV    
  Monopole - monopole (total)=         -39.57205800 eV    
--------------------------------------------------------------------------------
  Total lattice energy       =         -34.62890419 eV    
--------------------------------------------------------------------------------
  Total lattice energy       =           -3341.1599 kJ/(mole unit cells)
--------------------------------------------------------------------------------


  Number of variables =        1

  Maximum number of calculations  =          1000
  Maximum Hessian update interval =            10
  Maximum step size               =   1.000000000
  Maximum parameter tolerance     =   0.000010000
  Maximum function  tolerance     =   0.000010000
  Maximum gradient  tolerance     =   0.001000000
  Maximum gradient  component     =   0.010000000

  Symmetry constrained optimisation

  Symmetry used for second derivatives

  Cell parameters to be optimised using strains

  Newton-Raphson optimiser to be used

  BFGS hessian update to be used

  Lower half triangular hessian to be used

  Start of bulk optimisation :

  Cycle:      0 Energy:       -34.628904  Gnorm:      4.328237  CPU:    0.018
  ** Hessian calculated **
  Cycle:      1 Energy:       -34.677667  Gnorm:      0.044008  CPU:    0.022
  Cycle:      2 Energy:       -34.677671  Gnorm:      0.003653  CPU:    0.026


  **** Optimisation achieved ****


  Final energy =     -34.67767136 eV
  Final Gnorm  =       0.00000010

  Components of energy : 

--------------------------------------------------------------------------------
  Interatomic potentials     =           5.77546103 eV    
  Monopole - monopole (real) =         -10.25970290 eV    
  Monopole - monopole (recip)=         -30.19342950 eV    
  Monopole - monopole (total)=         -40.45313239 eV    
--------------------------------------------------------------------------------
  Total lattice energy       =         -34.67767136 eV    
--------------------------------------------------------------------------------
  Total lattice energy       =           -3345.8652 kJ/(mole unit cells)
--------------------------------------------------------------------------------

  Final asymmetric unit coordinates :

--------------------------------------------------------------------------------
   No.  Atomic        x           y           z         Radius
        Label       (Frac)      (Frac)      (Frac)       (Angs) 
--------------------------------------------------------------------------------
     1  Cl    c     0.000000    0.000000    0.000000    0.000000
     2  O     c     0.500000    0.500000    0.500000    0.000000
     3  Na    c     0.500000    0.500000    0.000000    0.000000
     4  Cl    s     0.000000    0.000000    0.000000    0.000000
     5  O     s     0.500000    0.500000    0.500000    0.000000
--------------------------------------------------------------------------------

  Final Cartesian lattice vectors (Angstroms) :

        4.405902    0.000000    0.000000
        0.000000    4.405902    0.000000
        0.000000    0.000000    4.405902


  Final cell parameters and derivatives :

--------------------------------------------------------------------------------
       a            4.405902 Angstrom     dE/de1(xx)     0.000000 eV/strain
       b            4.405902 Angstrom     dE/de2(yy)     0.000000 eV/strain
       c            4.405902 Angstrom     dE/de3(zz)     0.000000 eV/strain
       alpha       90.000000 Degrees      dE/de4(yz)     0.000000 eV/strain
       beta        90.000000 Degrees      dE/de5(xz)     0.000000 eV/strain
       gamma       90.000000 Degrees      dE/de6(xy)     0.000000 eV/strain
--------------------------------------------------------------------------------

  Primitive cell volume =            85.527266 Angs**3

  Density of cell =      2.338030 g/cm**3

  Non-primitive cell volume =            85.527266 Angs**3


  Final internal derivatives :

--------------------------------------------------------------------------------
   No.  Atomic          a             b             c           Radius
        Label          (eV)          (eV)          (eV)        (eV/Angs)
--------------------------------------------------------------------------------
      1 Cl    c       0.000000      0.000000      0.000000      0.000000
      2 O     c       0.000000      0.000000      0.000000      0.000000
      3 Na    c       0.000000      0.000000      0.000000      0.000000
      4 Cl    s       0.000000      0.000000      0.000000      0.000000
      5 O     s       0.000000      0.000000      0.000000      0.000000
--------------------------------------------------------------------------------
  Maximum abs         0.000000      0.000000      0.000000      0.000000
--------------------------------------------------------------------------------

  Comparison of initial and final structures : 

--------------------------------------------------------------------------------
  Parameter   Initial value   Final value   Difference    Units      Percent
--------------------------------------------------------------------------------
    Volume        91.368216     85.527266    -5.840950    Angs**3     -6.39
    a              4.504000      4.405902    -0.098098    Angstroms   -2.18
    b              4.504000      4.405902    -0.098098    Angstroms   -2.18
    c              4.504000      4.405902    -0.098098    Angstroms   -2.18
    alpha         90.000000     90.000000     0.000000    Degrees      0.00
    beta          90.000000     90.000000     0.000000    Degrees      0.00
    gamma         90.000000     90.000000     0.000000    Degrees      0.00
      1 x          0.000000      0.000000     0.000000    Fractional   0.00
      1 y          0.000000      0.000000     0.000000    Fractional   0.00
      1 z          0.000000      0.000000     0.000000    Fractional   0.00
      2 x          0.500000      0.500000     0.000000    Fractional   0.00
      2 y          0.500000      0.500000     0.000000    Fractional   0.00
      2 z          0.500000      0.500000     0.000000    Fractional   0.00
      3 x          0.500000      0.500000     0.000000    Fractional   0.00
      3 y          0.500000      0.500000     0.000000    Fractional   0.00
      3 z          0.000000      0.000000     0.000000    Fractional   0.00
      4 x          0.000000      0.000000     0.000000    Fractional   0.00
      4 y          0.000000      0.000000     0.000000    Fractional   0.00
      4 z          0.000000      0.000000     0.000000    Fractional   0.00
      5 x          0.500000      0.500000     0.000000    Fractional   0.00
      5 y          0.500000      0.500000     0.000000    Fractional   0.00
      5 z          0.500000      0.500000     0.000000    Fractional   0.00
--------------------------------------------------------------------------------


  Born effective charge tensors : 

-------------------------------------------------------------------------------
  Atom             x           y             z
-------------------------------------------------------------------------------
    1 Cl    x      -0.9918     -0.0000     -0.0000
            y      -0.0000     -0.9918     -0.0000
            z      -0.0000     -0.0000     -0.9918
-------------------------------------------------------------------------------
    2 O     x      -2.2939      0.0000      0.0000
            y       0.0000     -2.2939      0.0000
            z       0.0000      0.0000     -2.2939
-------------------------------------------------------------------------------
    3 Na    x       1.2243      0.0000      0.0000
            y       0.0000      1.2243     -0.0000
            z       0.0000      0.0000      0.8372
-------------------------------------------------------------------------------




  Elastic Constant Matrix: (Units=GPa)

-------------------------------------------------------------------------------
  Indices      1         2         3         4         5         6    
-------------------------------------------------------------------------------
       1     82.7680   24.3534   24.3534   -0.0000    0.0000   -0.0000
       2     24.3534   82.7680   24.3534    0.0000   -0.0000   -0.0000
       3     24.3534   24.3534   82.7680    0.0000   -0.0000    0.0000
       4     -0.0000    0.0000    0.0000   24.3534   -0.0000    0.0000
       5      0.0000   -0.0000   -0.0000   -0.0000   24.3534    0.0000
       6     -0.0000   -0.0000    0.0000    0.0000    0.0000   24.3534
-------------------------------------------------------------------------------


  Elastic Compliance Matrix: (Units=1/GPa)

-------------------------------------------------------------------------------
  Indices      1         2         3         4         5         6    
-------------------------------------------------------------------------------
       1    0.013948 -0.003171 -0.003171  0.000000 -0.000000  0.000000
       2   -0.003171  0.013948 -0.003171 -0.000000  0.000000 -0.000000
       3   -0.003171 -0.003171  0.013948 -0.000000  0.000000 -0.000000
       4    0.000000 -0.000000 -0.000000  0.041062  0.000000 -0.000000
       5   -0.000000  0.000000  0.000000  0.000000  0.041062 -0.000000
       6    0.000000 -0.000000 -0.000000 -0.000000 -0.000000  0.041062
-------------------------------------------------------------------------------

  Mechanical properties :

-------------------------------------------------------------------------------
  Convention :                    Reuss         Voigt         Hill
-------------------------------------------------------------------------------
  Bulk  Modulus (GPa)     =      43.82493      43.82493      43.82493
  Shear Modulus (GPa)     =      26.08758      26.29496      26.19127
-------------------------------------------------------------------------------
  Velocity S-wave (km/s)  =       3.34035       3.35360       3.34698
  Velocity P-wave (km/s)  =       5.79842       5.80861       5.80351
-------------------------------------------------------------------------------
  Compressibility (1/GPa) =    0.02281806
-------------------------------------------------------------------------------
  Stress axis :                     x             y             z
-------------------------------------------------------------------------------
  Youngs Moduli (GPa)     =      71.69479      71.69479      71.69479
-------------------------------------------------------------------------------
  Poissons Ratio (x)      =                     0.22734       0.22734
  Poissons Ratio (y)      =       0.22734                     0.22734
  Poissons Ratio (z)      =       0.22734       0.22734
-------------------------------------------------------------------------------


  Piezoelectric Strain Matrix: (Units=C/m**2)

-------------------------------------------------------------------------------
  Indices      1         2         3         4         5         6    
-------------------------------------------------------------------------------
       x    -0.00000  -0.00000  -0.00000  -0.00000   0.00000  -0.00000
       y     0.00000  -0.00000   0.00000   0.00000  -0.00000   0.00000
       z    -0.00000  -0.00000   0.00000  -0.00000   0.00000  -0.00000
-------------------------------------------------------------------------------


  Piezoelectric Stress Matrix: (Units=10**-11 C/N)

-------------------------------------------------------------------------------
  Indices      1         2         3         4         5         6    
-------------------------------------------------------------------------------
       x     0.00000  -0.00000  -0.00000  -0.00000   0.00000  -0.00000
       y     0.00000  -0.00000   0.00000   0.00000  -0.00000   0.00000
       z    -0.00000  -0.00000   0.00000  -0.00000   0.00000  -0.00000
-------------------------------------------------------------------------------


  Static dielectric constant tensor : 

-------------------------------------------------------------------------------
              x         y         z
-------------------------------------------------------------------------------
       x    11.08357   0.00000   0.00000
       y     0.00000  11.08357   0.00000
       z     0.00000   0.00000  11.08357
--------------------------------------------------------------------------------

  High frequency dielectric constant tensor : 

-------------------------------------------------------------------------------
              x         y         z
-------------------------------------------------------------------------------
       x     1.50771   0.00000   0.00000
       y     0.00000   1.50771   0.00000
       z     0.00000   0.00000   1.50771
-------------------------------------------------------------------------------

  Static refractive indices : 

-------------------------------------------------------------------------------
    1 =    3.32920      2 =    3.32920      3 =    3.32920
-------------------------------------------------------------------------------

  High frequency refractive indices : 

-------------------------------------------------------------------------------
    1 =    1.22789      2 =    1.22789      3 =    1.22789
-------------------------------------------------------------------------------


  Time to end of optimisation =       0.0369 seconds

********************************************************************************
*  Defect calculation for configuration   1 :                                  *
********************************************************************************

  Total number of defects =      3

  Total charge on defect  =  -1.00

  Defect centre is at   0.5000   0.2500   0.2500  Frac

  Region 1 radius =  12.0000      Number of ions =    593

  Number of symmetry inequivalent region 1 ions  =    340

  Region 2 radius =  16.0000      Number of ions =    832

  Number of symmetry inequivalent region 2a ions =    454

  Region 2a mode = 4 : screened electrostatics due to region 1 
                       neglect correction to region 1 forces from 2a
                       region 2a displacements based on defects only

  Region 2a ions will only interact with defects in region 1

  Vacancies:

--------------------------------------------------------------------------------
    Specification type     Symbol/Number         x          y          z
--------------------------------------------------------------------------------
    Fractional                               0.500000   0.500000   0.000000
    Fractional                               0.500000   0.000000   0.500000
--------------------------------------------------------------------------------

  Interstitials:

--------------------------------------------------------------------------------
    Specification type     Symbol/Number         x          y          z
--------------------------------------------------------------------------------
    Atom/Fractional         Na               0.500000   0.402400   0.062400
--------------------------------------------------------------------------------


  Symmetry reduced region 1 (Relative to defect centre) :

--------------------------------------------------------------------------------
   No.   Atomic       x            y             z       Radius  Multiplicity   
         Label      (Angs)       (Angs)        (Angs)    (Angs)     
--------------------------------------------------------------------------------
     1  Na    c      0.0000       0.6715      -0.8265    0.0000     1    Defect
     2  O     c      0.0000       1.1015 *     1.1015 *  0.0000     1          
     3  Cl    c      2.2030 *    -1.1015 *    -1.1015 *  0.0000     2          
     4  Na    c      2.2030 *     1.1015 *     1.1015 *  0.0000     2          
     5  O     c      0.0000       1.1015 *    -3.3044 *  0.0000     1          
     6  O     c      0.0000      -3.3044 *     1.1015 *  0.0000     1          
     7  Na    c      0.0000       1.1015 *     3.3044 *  0.0000     1          
     8  Na    c      0.0000      -3.3044 *    -1.1015 *  0.0000     1          
     9  Na    c      0.0000      -1.1015 *    -3.3044 *  0.0000     1          
    10  Na    c      0.0000       3.3044 *     1.1015 *  0.0000     1          
    11  Cl    c      2.2030 *    -1.1015 *     3.3044 *  0.0000     2          
    12  Na    c      2.2030 *     1.1015 *    -3.3044 *  0.0000     2          
    13  Cl    c      2.2030 *     3.3044 *    -1.1015 *  0.0000     2          
    14  Na    c      2.2030 *    -3.3044 *     1.1015 *  0.0000     2          
    15  O     c      0.0000      -3.3044 *    -3.3044 *  0.0000     1          
    16  Na    c      0.0000      -3.3044 *     3.3044 *  0.0000     1          
    17  Na    c      0.0000       3.3044 *    -3.3044 *  0.0000     1          
    18  O     c      4.4059 *     1.1015 *     1.1015 *  0.0000     2          
    19  Na    c      4.4059 *     1.1015 *    -1.1015 *  0.0000     2          
    20  Na    c      4.4059 *    -1.1015 *     1.1015 *  0.0000     2          
    21  Cl    c      2.2030 *     3.3044 *     3.3044 *  0.0000     2          
    22  Na    c      2.2030 *    -3.3044 *    -3.3044 *  0.0000     2          
    23  O     c      0.0000       1.1015 *     5.5074 *  0.0000     1          
    24  O     c      0.0000       5.5074 *     1.1015 *  0.0000     1          
    25  O     c      4.4059 *     1.1015 *    -3.3044 *  0.0000     2          
    26  Na    c      0.0000       1.1015 *    -5.5074 *  0.0000     1          
    27  Na    c      0.0000       5.5074 *    -1.1015 *  0.0000     1          
    28  Na    c      4.4059 *     1.1015 *     3.3044 *  0.0000     2          
    29  Na    c      0.0000      -1.1015 *     5.5074 *  0.0000     1          
    30  Na    c      0.0000      -5.5074 *     1.1015 *  0.0000     1          
    31  Na    c      4.4059 *    -1.1015 *    -3.3044 *  0.0000     2          
    32  O     c      4.4059 *    -3.3044 *     1.1015 *  0.0000     2          
    33  Na    c      4.4059 *    -3.3044 *    -1.1015 *  0.0000     2          
    34  Na    c      4.4059 *     3.3044 *     1.1015 *  0.0000     2          
    35  Cl    c      2.2030 *    -1.1015 *    -5.5074 *  0.0000     2          
    36  Cl    c      2.2030 *    -5.5074 *    -1.1015 *  0.0000     2          
    37  Na    c      2.2030 *     1.1015 *     5.5074 *  0.0000     2          
    38  Na    c      2.2030 *     5.5074 *     1.1015 *  0.0000     2          
    39  O     c      0.0000       5.5074 *    -3.3044 *  0.0000     1          
    40  O     c      0.0000      -3.3044 *     5.5074 *  0.0000     1          
    41  Na    c      0.0000       5.5074 *     3.3044 *  0.0000     1          
    42  Na    c      0.0000      -3.3044 *    -5.5074 *  0.0000     1          
    43  Na    c      0.0000       3.3044 *     5.5074 *  0.0000     1          
    44  Na    c      0.0000      -5.5074 *    -3.3044 *  0.0000     1          
    45  O     c      4.4059 *    -3.3044 *    -3.3044 *  0.0000     2          
    46  Na    c      4.4059 *    -3.3044 *     3.3044 *  0.0000     2          
    47  Na    c      4.4059 *     3.3044 *    -3.3044 *  0.0000     2          
    48  Cl    c      6.6089 *    -1.1015 *    -1.1015 *  0.0000     2          
    49  Na    c      6.6089 *     1.1015 *     1.1015 *  0.0000     2          
    50  Cl    c      2.2030 *     3.3044 *    -5.5074 *  0.0000     2          
    51  Cl    c      2.2030 *    -5.5074 *     3.3044 *  0.0000     2          
    52  Na    c      2.2030 *     5.5074 *    -3.3044 *  0.0000     2          
    53  Na    c      2.2030 *    -3.3044 *     5.5074 *  0.0000     2          
    54  O     c      4.4059 *     1.1015 *     5.5074 *  0.0000     2          
    55  O     c      4.4059 *     5.5074 *     1.1015 *  0.0000     2          
    56  Na    c      4.4059 *     1.1015 *    -5.5074 *  0.0000     2          
    57  Na    c      4.4059 *     5.5074 *    -1.1015 *  0.0000     2          
    58  Na    c      4.4059 *    -1.1015 *     5.5074 *  0.0000     2          
    59  Na    c      4.4059 *    -5.5074 *     1.1015 *  0.0000     2          
    60  Cl    c      6.6089 *    -1.1015 *     3.3044 *  0.0000     2          
    61  Cl    c      6.6089 *     3.3044 *    -1.1015 *  0.0000     2          
    62  Na    c      6.6089 *     1.1015 *    -3.3044 *  0.0000     2          
    63  Na    c      6.6089 *    -3.3044 *     1.1015 *  0.0000     2          
    64  O     c      0.0000       1.1015 *    -7.7103 *  0.0000     1          
    65  O     c      0.0000       5.5074 *     5.5074 *  0.0000     1          
    66  O     c      0.0000      -7.7103 *     1.1015 *  0.0000     1          
    67  Na    c      0.0000       1.1015 *     7.7103 *  0.0000     1          
    68  Na    c      0.0000       5.5074 *    -5.5074 *  0.0000     1          
    69  Na    c      0.0000      -7.7103 *    -1.1015 *  0.0000     1          
    70  Na    c      0.0000      -1.1015 *    -7.7103 *  0.0000     1          
    71  Na    c      0.0000       7.7103 *     1.1015 *  0.0000     1          
    72  Na    c      0.0000      -5.5074 *     5.5074 *  0.0000     1          
    73  O     c      4.4059 *     5.5074 *    -3.3044 *  0.0000     2          
    74  O     c      4.4059 *    -3.3044 *     5.5074 *  0.0000     2          
    75  Na    c      4.4059 *     5.5074 *     3.3044 *  0.0000     2          
    76  Na    c      4.4059 *    -3.3044 *    -5.5074 *  0.0000     2          
    77  Na    c      4.4059 *     3.3044 *     5.5074 *  0.0000     2          
    78  Na    c      4.4059 *    -5.5074 *    -3.3044 *  0.0000     2          
    79  Cl    c      2.2030 *    -1.1015 *     7.7103 *  0.0000     2          
    80  Cl    c      2.2030 *    -5.5074 *    -5.5074 *  0.0000     2          
    81  Cl    c      6.6089 *     3.3044 *     3.3044 *  0.0000     2          
    82  Na    c      2.2030 *     1.1015 *    -7.7103 *  0.0000     2          
    83  Na    c      2.2030 *     5.5074 *     5.5074 *  0.0000     2          
    84  Na    c      6.6089 *    -3.3044 *    -3.3044 *  0.0000     2          
    85  Cl    c      2.2030 *     7.7103 *    -1.1015 *  0.0000     2          
    86  Na    c      2.2030 *    -7.7103 *     1.1015 *  0.0000     2          
    87  O     c      0.0000      -3.3044 *    -7.7103 *  0.0000     1          
    88  O     c      0.0000      -7.7103 *    -3.3044 *  0.0000     1          
    89  Na    c      0.0000      -3.3044 *     7.7103 *  0.0000     1          
    90  Na    c      0.0000      -7.7103 *     3.3044 *  0.0000     1          
    91  Na    c      0.0000       3.3044 *    -7.7103 *  0.0000     1          
    92  Na    c      0.0000       7.7103 *    -3.3044 *  0.0000     1          
    93  Cl    c      2.2030 *     3.3044 *     7.7103 *  0.0000     2          
    94  Cl    c      6.6089 *    -1.1015 *    -5.5074 *  0.0000     2          
    95  Na    c      2.2030 *    -3.3044 *    -7.7103 *  0.0000     2          
    96  Na    c      6.6089 *     1.1015 *     5.5074 *  0.0000     2          
    97  Cl    c      2.2030 *     7.7103 *     3.3044 *  0.0000     2          
    98  Cl    c      6.6089 *    -5.5074 *    -1.1015 *  0.0000     2          
    99  Na    c      2.2030 *    -7.7103 *    -3.3044 *  0.0000     2          
   100  Na    c      6.6089 *     5.5074 *     1.1015 *  0.0000     2          
   101  O     c      4.4059 *     1.1015 *    -7.7103 *  0.0000     2          
   102  O     c      4.4059 *     5.5074 *     5.5074 *  0.0000     2          
   103  Na    c      4.4059 *     1.1015 *     7.7103 *  0.0000     2          
   104  Na    c      4.4059 *     5.5074 *    -5.5074 *  0.0000     2          
   105  Na    c      4.4059 *    -1.1015 *    -7.7103 *  0.0000     2          
   106  Na    c      4.4059 *    -5.5074 *     5.5074 *  0.0000     2          
   107  O     c      4.4059 *    -7.7103 *     1.1015 *  0.0000     2          
   108  O     c      8.8118 *     1.1015 *     1.1015 *  0.0000     2          
   109  Na    c      4.4059 *    -7.7103 *    -1.1015 *  0.0000     2          
   110  Na    c      8.8118 *     1.1015 *    -1.1015 *  0.0000     2          
   111  Na    c      4.4059 *     7.7103 *     1.1015 *  0.0000     2          
   112  Na    c      8.8118 *    -1.1015 *     1.1015 *  0.0000     2          
   113  Cl    c      6.6089 *     3.3044 *    -5.5074 *  0.0000     2          
   114  Cl    c      6.6089 *    -5.5074 *     3.3044 *  0.0000     2          
   115  Na    c      6.6089 *     5.5074 *    -3.3044 *  0.0000     2          
   116  Na    c      6.6089 *    -3.3044 *     5.5074 *  0.0000     2          
   117  O     c      0.0000       5.5074 *    -7.7103 *  0.0000     1          
   118  O     c      0.0000      -7.7103 *     5.5074 *  0.0000     1          
   119  O     c      4.4059 *    -3.3044 *    -7.7103 *  0.0000     2          
   120  Na    c      0.0000       5.5074 *     7.7103 *  0.0000     1          
   121  Na    c      0.0000      -7.7103 *    -5.5074 *  0.0000     1          
   122  Na    c      4.4059 *    -3.3044 *     7.7103 *  0.0000     2          
   123  Na    c      0.0000       7.7103 *     5.5074 *  0.0000     1          
   124  Na    c      0.0000      -5.5074 *    -7.7103 *  0.0000     1          
   125  Na    c      4.4059 *     3.3044 *    -7.7103 *  0.0000     2          
   126  O     c      4.4059 *    -7.7103 *    -3.3044 *  0.0000     2          
   127  O     c      8.8118 *     1.1015 *    -3.3044 *  0.0000     2          
   128  O     c      8.8118 *    -3.3044 *     1.1015 *  0.0000     2          
   129  Na    c      4.4059 *    -7.7103 *     3.3044 *  0.0000     2          
   130  Na    c      8.8118 *     1.1015 *     3.3044 *  0.0000     2          
   131  Na    c      8.8118 *    -3.3044 *    -1.1015 *  0.0000     2          
   132  Na    c      4.4059 *     7.7103 *    -3.3044 *  0.0000     2          
   133  Na    c      8.8118 *    -1.1015 *    -3.3044 *  0.0000     2          
   134  Na    c      8.8118 *     3.3044 *     1.1015 *  0.0000     2          
   135  Cl    c      2.2030 *     7.7103 *    -5.5074 *  0.0000     2          
   136  Cl    c      2.2030 *    -5.5074 *     7.7103 *  0.0000     2          
   137  Na    c      2.2030 *     5.5074 *    -7.7103 *  0.0000     2          
   138  Na    c      2.2030 *    -7.7103 *     5.5074 *  0.0000     2          
   139  O     c      0.0000       1.1015 *     9.9133 *  0.0000     1          
   140  O     c      0.0000       9.9133 *     1.1015 *  0.0000     1          
   141  O     c      8.8118 *    -3.3044 *    -3.3044 *  0.0000     2          
   142  Na    c      0.0000       1.1015 *    -9.9133 *  0.0000     1          
   143  Na    c      0.0000       9.9133 *    -1.1015 *  0.0000     1          
   144  Na    c      8.8118 *    -3.3044 *     3.3044 *  0.0000     2          
   145  Na    c      0.0000      -1.1015 *     9.9133 *  0.0000     1          
   146  Na    c      0.0000      -9.9133 *     1.1015 *  0.0000     1          
   147  Na    c      8.8118 *     3.3044 *    -3.3044 *  0.0000     2          
   148  Cl    c      2.2030 *    -1.1015 *    -9.9133 *  0.0000     2          
   149  Cl    c      6.6089 *    -1.1015 *     7.7103 *  0.0000     2          
   150  Cl    c      6.6089 *     7.7103 *    -1.1015 *  0.0000     2          
   151  Cl    c      6.6089 *    -5.5074 *    -5.5074 *  0.0000     2          
   152  Na    c      2.2030 *     1.1015 *     9.9133 *  0.0000     2          
   153  Na    c      6.6089 *     1.1015 *    -7.7103 *  0.0000     2          
   154  Na    c      6.6089 *     5.5074 *     5.5074 *  0.0000     2          
   155  Na    c      6.6089 *    -7.7103 *     1.1015 *  0.0000     2          
   156  Cl    c      2.2030 *    -9.9133 *    -1.1015 *  0.0000     2          
   157  Na    c      2.2030 *     9.9133 *     1.1015 *  0.0000     2          
   158  O     c      0.0000       9.9133 *    -3.3044 *  0.0000     1          
   159  O     c      0.0000      -3.3044 *     9.9133 *  0.0000     1          
   160  O     c      4.4059 *     5.5074 *    -7.7103 *  0.0000     2          
   161  O     c      4.4059 *    -7.7103 *     5.5074 *  0.0000     2          
   162  O     c      8.8118 *     1.1015 *     5.5074 *  0.0000     2          
   163  O     c      8.8118 *     5.5074 *     1.1015 *  0.0000     2          
   164  Na    c      0.0000       9.9133 *     3.3044 *  0.0000     1          
   165  Na    c      0.0000      -3.3044 *    -9.9133 *  0.0000     1          
   166  Na    c      4.4059 *     5.5074 *     7.7103 *  0.0000     2          
   167  Na    c      4.4059 *    -7.7103 *    -5.5074 *  0.0000     2          
   168  Na    c      8.8118 *     1.1015 *    -5.5074 *  0.0000     2          
   169  Na    c      8.8118 *     5.5074 *    -1.1015 *  0.0000     2          
   170  Na    c      0.0000       3.3044 *     9.9133 *  0.0000     1          
   171  Na    c      0.0000      -9.9133 *    -3.3044 *  0.0000     1          
   172  Na    c      4.4059 *     7.7103 *     5.5074 *  0.0000     2          
   173  Na    c      4.4059 *    -5.5074 *    -7.7103 *  0.0000     2          
   174  Na    c      8.8118 *    -1.1015 *     5.5074 *  0.0000     2          
   175  Na    c      8.8118 *    -5.5074 *     1.1015 *  0.0000     2          
   176  Cl    c      6.6089 *     7.7103 *     3.3044 *  0.0000     2          
   177  Na    c      6.6089 *    -7.7103 *    -3.3044 *  0.0000     2          
   178  Cl    c      2.2030 *     3.3044 *    -9.9133 *  0.0000     2          
   179  Cl    c      2.2030 *    -9.9133 *     3.3044 *  0.0000     2          
   180  Cl    c      6.6089 *     3.3044 *     7.7103 *  0.0000     2          
   181  Na    c      2.2030 *     9.9133 *    -3.3044 *  0.0000     2          
   182  Na    c      2.2030 *    -3.3044 *     9.9133 *  0.0000     2          
   183  Na    c      6.6089 *    -3.3044 *    -7.7103 *  0.0000     2          
   184  O     c      0.0000      -7.7103 *    -7.7103 *  0.0000     1          
   185  O     c      4.4059 *     1.1015 *     9.9133 *  0.0000     2          
   186  O     c      4.4059 *     9.9133 *     1.1015 *  0.0000     2          
   187  O     c      8.8118 *     5.5074 *    -3.3044 *  0.0000     2          
   188  O     c      8.8118 *    -3.3044 *     5.5074 *  0.0000     2          
   189  Na    c      0.0000      -7.7103 *     7.7103 *  0.0000     1          
   190  Na    c      4.4059 *     1.1015 *    -9.9133 *  0.0000     2          
   191  Na    c      4.4059 *     9.9133 *    -1.1015 *  0.0000     2          
   192  Na    c      8.8118 *     5.5074 *     3.3044 *  0.0000     2          
   193  Na    c      8.8118 *    -3.3044 *    -5.5074 *  0.0000     2          
   194  Na    c      0.0000       7.7103 *    -7.7103 *  0.0000     1          
   195  Na    c      4.4059 *    -1.1015 *     9.9133 *  0.0000     2          
   196  Na    c      4.4059 *    -9.9133 *     1.1015 *  0.0000     2          
   197  Na    c      8.8118 *     3.3044 *     5.5074 *  0.0000     2          
   198  Na    c      8.8118 *    -5.5074 *    -3.3044 *  0.0000     2          
   199  Cl    c      2.2030 *     7.7103 *     7.7103 *  0.0000     2          
   200  Cl    c     11.0148 *    -1.1015 *    -1.1015 *  0.0000     2          
   201  Na    c      2.2030 *    -7.7103 *    -7.7103 *  0.0000     2          
   202  Na    c     11.0148 *     1.1015 *     1.1015 *  0.0000     2          
   203  O     c      4.4059 *     9.9133 *    -3.3044 *  0.0000     2          
   204  Na    c      4.4059 *     9.9133 *     3.3044 *  0.0000     2          
   205  Na    c      4.4059 *    -9.9133 *    -3.3044 *  0.0000     2          
   206  O     c      0.0000       5.5074 *     9.9133 *  0.0000     1          
   207  O     c      0.0000       9.9133 *     5.5074 *  0.0000     1          
   208  O     c      4.4059 *    -3.3044 *     9.9133 *  0.0000     2          
   209  Na    c      0.0000       5.5074 *    -9.9133 *  0.0000     1          
   210  Na    c      0.0000       9.9133 *    -5.5074 *  0.0000     1          
   211  Na    c      4.4059 *    -3.3044 *    -9.9133 *  0.0000     2          
   212  Na    c      0.0000      -5.5074 *     9.9133 *  0.0000     1          
   213  Na    c      0.0000      -9.9133 *     5.5074 *  0.0000     1          
   214  Na    c      4.4059 *     3.3044 *     9.9133 *  0.0000     2          
   215  Cl    c      2.2030 *    -5.5074 *    -9.9133 *  0.0000     2          
   216  Cl    c      2.2030 *    -9.9133 *    -5.5074 *  0.0000     2          
   217  Cl    c      6.6089 *     7.7103 *    -5.5074 *  0.0000     2          
   218  Cl    c      6.6089 *    -5.5074 *     7.7103 *  0.0000     2          
   219  Cl    c     11.0148 *    -1.1015 *     3.3044 *  0.0000     2          
   220  Cl    c     11.0148 *     3.3044 *    -1.1015 *  0.0000     2          
   221  Na    c      2.2030 *     5.5074 *     9.9133 *  0.0000     2          
   222  Na    c      2.2030 *     9.9133 *     5.5074 *  0.0000     2          
   223  Na    c      6.6089 *     5.5074 *    -7.7103 *  0.0000     2          
   224  Na    c      6.6089 *    -7.7103 *     5.5074 *  0.0000     2          
   225  Na    c     11.0148 *     1.1015 *    -3.3044 *  0.0000     2          
   226  Na    c     11.0148 *    -3.3044 *     1.1015 *  0.0000     2          
   227  O     c      4.4059 *    -7.7103 *    -7.7103 *  0.0000     2          
   228  O     c      8.8118 *     1.1015 *    -7.7103 *  0.0000     2          
   229  O     c      8.8118 *     5.5074 *     5.5074 *  0.0000     2          
   230  Na    c      4.4059 *    -7.7103 *     7.7103 *  0.0000     2          
   231  Na    c      8.8118 *     1.1015 *     7.7103 *  0.0000     2          
   232  Na    c      8.8118 *     5.5074 *    -5.5074 *  0.0000     2          
   233  Na    c      4.4059 *     7.7103 *    -7.7103 *  0.0000     2          
   234  Na    c      8.8118 *    -1.1015 *    -7.7103 *  0.0000     2          
   235  Na    c      8.8118 *    -5.5074 *     5.5074 *  0.0000     2          
   236  O     c      8.8118 *    -7.7103 *     1.1015 *  0.0000     2          
   237  Na    c      8.8118 *    -7.7103 *    -1.1015 *  0.0000     2          
   238  Na    c      8.8118 *     7.7103 *     1.1015 *  0.0000     2          
   239  Cl    c     11.0148 *     3.3044 *     3.3044 *  0.0000     2          
   240  Na    c     11.0148 *    -3.3044 *    -3.3044 *  0.0000     2          
   241  Cl    c      6.6089 *    -1.1015 *    -9.9133 *  0.0000     2          
   242  Cl    c      6.6089 *    -9.9133 *    -1.1015 *  0.0000     2          
   243  Na    c      6.6089 *     1.1015 *     9.9133 *  0.0000     2          
   244  Na    c      6.6089 *     9.9133 *     1.1015 *  0.0000     2          
   245  O     s      0.0000       1.1015 *     1.1015 *  0.0000     1          
   246  Cl    s      2.2030 *    -1.1015 *    -1.1015 *  0.0000     2          
   247  O     s      0.0000       1.1015 *    -3.3044 *  0.0000     1          
   248  O     s      0.0000      -3.3044 *     1.1015 *  0.0000     1          
   249  Cl    s      2.2030 *    -1.1015 *     3.3044 *  0.0000     2          
   250  Cl    s      2.2030 *     3.3044 *    -1.1015 *  0.0000     2          
   251  O     s      0.0000      -3.3044 *    -3.3044 *  0.0000     1          
   252  O     s      4.4059 *     1.1015 *     1.1015 *  0.0000     2          
   253  Cl    s      2.2030 *     3.3044 *     3.3044 *  0.0000     2          
   254  O     s      0.0000       1.1015 *     5.5074 *  0.0000     1          
   255  O     s      0.0000       5.5074 *     1.1015 *  0.0000     1          
   256  O     s      4.4059 *     1.1015 *    -3.3044 *  0.0000     2          
   257  O     s      4.4059 *    -3.3044 *     1.1015 *  0.0000     2          
   258  Cl    s      2.2030 *    -1.1015 *    -5.5074 *  0.0000     2          
   259  Cl    s      2.2030 *    -5.5074 *    -1.1015 *  0.0000     2          
   260  O     s      0.0000       5.5074 *    -3.3044 *  0.0000     1          
   261  O     s      0.0000      -3.3044 *     5.5074 *  0.0000     1          
   262  O     s      4.4059 *    -3.3044 *    -3.3044 *  0.0000     2          
   263  Cl    s      6.6089 *    -1.1015 *    -1.1015 *  0.0000     2          
   264  Cl    s      2.2030 *     3.3044 *    -5.5074 *  0.0000     2          
   265  Cl    s      2.2030 *    -5.5074 *     3.3044 *  0.0000     2          
   266  O     s      4.4059 *     1.1015 *     5.5074 *  0.0000     2          
   267  O     s      4.4059 *     5.5074 *     1.1015 *  0.0000     2          
   268  Cl    s      6.6089 *    -1.1015 *     3.3044 *  0.0000     2          
   269  Cl    s      6.6089 *     3.3044 *    -1.1015 *  0.0000     2          
   270  O     s      0.0000       1.1015 *    -7.7103 *  0.0000     1          
   271  O     s      0.0000       5.5074 *     5.5074 *  0.0000     1          
   272  O     s      0.0000      -7.7103 *     1.1015 *  0.0000     1          
   273  O     s      4.4059 *     5.5074 *    -3.3044 *  0.0000     2          
   274  O     s      4.4059 *    -3.3044 *     5.5074 *  0.0000     2          
   275  Cl    s      2.2030 *    -1.1015 *     7.7103 *  0.0000     2          
   276  Cl    s      2.2030 *    -5.5074 *    -5.5074 *  0.0000     2          
   277  Cl    s      6.6089 *     3.3044 *     3.3044 *  0.0000     2          
   278  Cl    s      2.2030 *     7.7103 *    -1.1015 *  0.0000     2          
   279  O     s      0.0000      -3.3044 *    -7.7103 *  0.0000     1          
   280  O     s      0.0000      -7.7103 *    -3.3044 *  0.0000     1          
   281  Cl    s      2.2030 *     3.3044 *     7.7103 *  0.0000     2          
   282  Cl    s      6.6089 *    -1.1015 *    -5.5074 *  0.0000     2          
   283  Cl    s      2.2030 *     7.7103 *     3.3044 *  0.0000     2          
   284  Cl    s      6.6089 *    -5.5074 *    -1.1015 *  0.0000     2          
   285  O     s      4.4059 *     1.1015 *    -7.7103 *  0.0000     2          
   286  O     s      4.4059 *     5.5074 *     5.5074 *  0.0000     2          
   287  O     s      4.4059 *    -7.7103 *     1.1015 *  0.0000     2          
   288  O     s      8.8118 *     1.1015 *     1.1015 *  0.0000     2          
   289  Cl    s      6.6089 *     3.3044 *    -5.5074 *  0.0000     2          
   290  Cl    s      6.6089 *    -5.5074 *     3.3044 *  0.0000     2          
   291  O     s      0.0000       5.5074 *    -7.7103 *  0.0000     1          
   292  O     s      0.0000      -7.7103 *     5.5074 *  0.0000     1          
   293  O     s      4.4059 *    -3.3044 *    -7.7103 *  0.0000     2          
   294  O     s      4.4059 *    -7.7103 *    -3.3044 *  0.0000     2          
   295  O     s      8.8118 *     1.1015 *    -3.3044 *  0.0000     2          
   296  O     s      8.8118 *    -3.3044 *     1.1015 *  0.0000     2          
   297  Cl    s      2.2030 *     7.7103 *    -5.5074 *  0.0000     2          
   298  Cl    s      2.2030 *    -5.5074 *     7.7103 *  0.0000     2          
   299  O     s      0.0000       1.1015 *     9.9133 *  0.0000     1          
   300  O     s      0.0000       9.9133 *     1.1015 *  0.0000     1          
   301  O     s      8.8118 *    -3.3044 *    -3.3044 *  0.0000     2          
   302  Cl    s      2.2030 *    -1.1015 *    -9.9133 *  0.0000     2          
   303  Cl    s      6.6089 *    -1.1015 *     7.7103 *  0.0000     2          
   304  Cl    s      6.6089 *     7.7103 *    -1.1015 *  0.0000     2          
   305  Cl    s      6.6089 *    -5.5074 *    -5.5074 *  0.0000     2          
   306  Cl    s      2.2030 *    -9.9133 *    -1.1015 *  0.0000     2          
   307  O     s      0.0000       9.9133 *    -3.3044 *  0.0000     1          
   308  O     s      0.0000      -3.3044 *     9.9133 *  0.0000     1          
   309  O     s      4.4059 *     5.5074 *    -7.7103 *  0.0000     2          
   310  O     s      4.4059 *    -7.7103 *     5.5074 *  0.0000     2          
   311  O     s      8.8118 *     1.1015 *     5.5074 *  0.0000     2          
   312  O     s      8.8118 *     5.5074 *     1.1015 *  0.0000     2          
   313  Cl    s      6.6089 *     7.7103 *     3.3044 *  0.0000     2          
   314  Cl    s      2.2030 *     3.3044 *    -9.9133 *  0.0000     2          
   315  Cl    s      2.2030 *    -9.9133 *     3.3044 *  0.0000     2          
   316  Cl    s      6.6089 *     3.3044 *     7.7103 *  0.0000     2          
   317  O     s      0.0000      -7.7103 *    -7.7103 *  0.0000     1          
   318  O     s      4.4059 *     1.1015 *     9.9133 *  0.0000     2          
   319  O     s      4.4059 *     9.9133 *     1.1015 *  0.0000     2          
   320  O     s      8.8118 *     5.5074 *    -3.3044 *  0.0000     2          
   321  O     s      8.8118 *    -3.3044 *     5.5074 *  0.0000     2          
   322  Cl    s      2.2030 *     7.7103 *     7.7103 *  0.0000     2          
   323  Cl    s     11.0148 *    -1.1015 *    -1.1015 *  0.0000     2          
   324  O     s      4.4059 *     9.9133 *    -3.3044 *  0.0000     2          
   325  O     s      0.0000       5.5074 *     9.9133 *  0.0000     1          
   326  O     s      0.0000       9.9133 *     5.5074 *  0.0000     1          
   327  O     s      4.4059 *    -3.3044 *     9.9133 *  0.0000     2          
   328  Cl    s      2.2030 *    -5.5074 *    -9.9133 *  0.0000     2          
   329  Cl    s      2.2030 *    -9.9133 *    -5.5074 *  0.0000     2          
   330  Cl    s      6.6089 *     7.7103 *    -5.5074 *  0.0000     2          
   331  Cl    s      6.6089 *    -5.5074 *     7.7103 *  0.0000     2          
   332  Cl    s     11.0148 *    -1.1015 *     3.3044 *  0.0000     2          
   333  Cl    s     11.0148 *     3.3044 *    -1.1015 *  0.0000     2          
   334  O     s      4.4059 *    -7.7103 *    -7.7103 *  0.0000     2          
   335  O     s      8.8118 *     1.1015 *    -7.7103 *  0.0000     2          
   336  O     s      8.8118 *     5.5074 *     5.5074 *  0.0000     2          
   337  O     s      8.8118 *    -7.7103 *     1.1015 *  0.0000     2          
   338  Cl    s     11.0148 *     3.3044 *     3.3044 *  0.0000     2          
   339  Cl    s      6.6089 *    -1.1015 *    -9.9133 *  0.0000     2          
   340  Cl    s      6.6089 *    -9.9133 *    -1.1015 *  0.0000     2          
--------------------------------------------------------------------------------

  Components of defect energy : 

--------------------------------------------------------------------------------
  Region 1 - region 1                   =      8.21322983 eV
  Region 1 - region 2a (unrelaxed)      =     -0.02145097 eV
  Region 1 - 2a (relaxed - correction)  =     -0.27880230 eV
  Region 1 (Total)                      =      7.91297656 eV
  Region 2a                             =      0.13934986 eV
  Region 2b                             =     -0.40868352 eV
--------------------------------------------------------------------------------
  Total defect energy                   =      7.64364290 eV
--------------------------------------------------------------------------------

  Largest displacement in region 2 =   0.0180 Angstroms


  Number of variables =      931

  Maximum number of calculations  =        1000
  Maximum Hessian update interval =          10
  Maximum step size               =   1.0000000
  Maximum parameter tolerance     =   0.0000100
  Maximum function  tolerance     =   0.0000100
  Maximum gradient  tolerance     =   0.0010000

  Symmetry adapted optimisation

  Symmetry to be used for second derivatives

  Newton-Raphson optimiser to be used

  BFGS hessian update to be used

  Lower half triangular hessian to be used

  Start of defect optimisation :

  Cycle:      0 Defect Energy:   7.643643  Gnorm:     0.018146  CPU:    3.426
  ** Hessian calculated **
  Cycle:      1 Defect Energy:   6.117657  Gnorm:     0.012330  CPU:   10.059
  Cycle:      2 Defect Energy:   4.943149  Gnorm:     0.003529  CPU:   14.991
  Cycle:      3 Defect Energy:   4.891373  Gnorm:     0.002473  CPU:   16.034
  Cycle:      4 Defect Energy:   4.865582  Gnorm:     0.001693  CPU:   17.056
  Cycle:      5 Defect Energy:   4.852035  Gnorm:     0.001058  CPU:   18.092
  Cycle:      6 Defect Energy:   4.845611  Gnorm:     0.000597  CPU:   19.151
  Cycle:      7 Defect Energy:   4.843972  Gnorm:     0.000359  CPU:   20.220
  Cycle:      8 Defect Energy:   4.843390  Gnorm:     0.000207  CPU:   20.978
  Cycle:      9 Defect Energy:   4.843284  Gnorm:     0.000140  CPU:   22.117
  Cycle:     10 Defect Energy:   4.843258  Gnorm:     0.000092  CPU:   23.298
  ** Hessian calculated **
  Cycle:     11 Defect Energy:   4.843260  Gnorm:     0.000065  CPU:   26.460
  Cycle:     12 Defect Energy:   4.843270  Gnorm:     0.000045  CPU:   27.587
  Cycle:     13 Defect Energy:   4.843281  Gnorm:     0.000032  CPU:   28.732


  **** Optimisation achieved ****


  Final defect energy  =        4.84329037
  Final defect Gnorm   =        0.00002221

  Components of defect energy : 

--------------------------------------------------------------------------------
  Region 1 - region 1                   =      6.22211566 eV
  Region 1 - region 2a (unrelaxed)      =     -0.86215713 eV
  Region 1 - 2a (relaxed - correction)  =     -0.21827926 eV
  Region 1 (Total)                      =      5.14167927 eV
  Region 2a                             =      0.10915592 eV
  Region 2b                             =     -0.40754483 eV
--------------------------------------------------------------------------------
  Total defect energy                   =      4.84329037 eV
--------------------------------------------------------------------------------

  Largest displacement in region 2 =   0.0180 Angstroms

  Final coordinates of region 1 :

--------------------------------------------------------------------------------
   No.  Atomic        x           y           z          Radius      Charge
        Label       (Angs)      (Angs)      (Angs)       (Angs)       (e) 
--------------------------------------------------------------------------------
     1  Na    c     2.202951    1.772935    0.274928    0.000000    1.000000
     2  O     c     2.202951    2.361264    2.287308    0.000000    0.183000
     3  Cl    c     4.509746   -0.007788   -0.067317    0.000000    1.485000
     4  Cl    c    -0.103843   -0.007788   -0.067317    0.000000    1.485000
     5  Na    c     4.331708    2.013164    2.291271    0.000000    1.000000
     6  Na    c     0.074195    2.013164    2.291271    0.000000    1.000000
     7  O     c     2.202951    2.166753   -2.106205    0.000000    0.183000
     8  O     c     2.202951   -2.355355    2.214849    0.000000    0.183000
     9  Na    c     2.202951    1.921571    4.366043    0.000000    1.000000
    10  Na    c     2.202951   -2.019273    0.096710    0.000000    1.000000
    11  Na    c     2.202951   -0.005903   -2.280923    0.000000    1.000000
    12  Na    c     2.202951    4.447785    2.215626    0.000000    1.000000
    13  Cl    c     4.517272    0.004521    4.527378    0.000000    1.485000
    14  Cl    c    -0.111370    0.004521    4.527378    0.000000    1.485000
    15  Na    c     4.388502    2.197431   -2.085377    0.000000    1.000000
    16  Na    c     0.017401    2.197431   -2.085377    0.000000    1.000000
    17  Cl    c     4.488620    4.497911   -0.027514    0.000000    1.485000
    18  Cl    c    -0.082718    4.497911   -0.027514    0.000000    1.485000
    19  Na    c     4.307707   -1.931848    2.212565    0.000000    1.000000
    20  Na    c     0.098196   -1.931848    2.212565    0.000000    1.000000
    21  O     c     2.202951   -2.196630   -2.166928    0.000000    0.183000
    22  Na    c     2.202951   -1.933109    4.321769    0.000000    1.000000
    23  Na    c     2.202951    4.354534   -1.896196    0.000000    1.000000
    24  O     c     6.586892    2.196414    2.223807    0.000000    0.183000
    25  O     c    -2.180990    2.196414    2.223807    0.000000    0.183000
    26  Na    c     6.574158    2.207381    0.025142    0.000000    1.000000
    27  Na    c    -2.168255    2.207381    0.025142    0.000000    1.000000
    28  Na    c     6.704334    0.004130    2.206766    0.000000    1.000000
    29  Na    c    -2.298432    0.004130    2.206766    0.000000    1.000000
    30  Cl    c     4.483952    4.489803    4.480530    0.000000    1.485000
    31  Cl    c    -0.078050    4.489803    4.480530    0.000000    1.485000
    32  Na    c     4.400869   -2.207239   -2.160036    0.000000    1.000000
    33  Na    c     0.005033   -2.207239   -2.160036    0.000000    1.000000
    34  O     c     2.202951    2.185040    6.605509    0.000000    0.183000
    35  O     c     2.202951    6.662746    2.214359    0.000000    0.183000
    36  O     c     6.605585    2.209569   -2.187484    0.000000    0.183000
    37  O     c    -2.199682    2.209569   -2.187484    0.000000    0.183000
    38  Na    c     2.202951    2.311256   -4.337157    0.000000    1.000000
    39  Na    c     2.202951    6.691648    0.021180    0.000000    1.000000
    40  Na    c     6.600164    2.199474    4.421016    0.000000    1.000000
    41  Na    c    -2.194262    2.199474    4.421016    0.000000    1.000000
    42  Na    c     2.202951   -0.003184    6.755646    0.000000    1.000000
    43  Na    c     2.202951   -4.441535    2.242349    0.000000    1.000000
    44  Na    c     6.586829    0.000762   -2.174731    0.000000    1.000000
    45  Na    c    -2.180926    0.000762   -2.174731    0.000000    1.000000
    46  O     c     6.576014   -2.184905    2.210575    0.000000    0.183000
    47  O     c    -2.170111   -2.184905    2.210575    0.000000    0.183000
    48  Na    c     6.563710   -2.209645    0.012542    0.000000    1.000000
    49  Na    c    -2.157808   -2.209645    0.012542    0.000000    1.000000
    50  Na    c     6.455935    4.394113    2.216357    0.000000    1.000000
    51  Na    c    -2.050032    4.394113    2.216357    0.000000    1.000000
    52  Cl    c     4.404456   -0.006733   -4.416203    0.000000    1.485000
    53  Cl    c     0.001446   -0.006733   -4.416203    0.000000    1.485000
    54  Cl    c     4.465638   -4.484223   -0.067983    0.000000    1.485000
    55  Cl    c    -0.059736   -4.484223   -0.067983    0.000000    1.485000
    56  Na    c     4.405741    2.204810    6.585639    0.000000    1.000000
    57  Na    c     0.000162    2.204810    6.585639    0.000000    1.000000
    58  Na    c     4.403748    6.646486    2.208947    0.000000    1.000000
    59  Na    c     0.002155    6.646486    2.208947    0.000000    1.000000
    60  O     c     2.202951    6.587178   -2.171758    0.000000    0.183000
    61  O     c     2.202951   -2.185746    6.586415    0.000000    0.183000
    62  Na    c     2.202951    6.646974    4.408581    0.000000    1.000000
    63  Na    c     2.202951   -2.292144   -4.377447    0.000000    1.000000
    64  Na    c     2.202951    4.382144    6.446139    0.000000    1.000000
    65  Na    c     2.202951   -4.393442   -2.050055    0.000000    1.000000
    66  O     c     6.610443   -2.209255   -2.201387    0.000000    0.183000
    67  O     c    -2.204541   -2.209255   -2.201387    0.000000    0.183000
    68  Na    c     6.568536   -2.197331    4.408189    0.000000    1.000000
    69  Na    c    -2.162633   -2.197331    4.408189    0.000000    1.000000
    70  Na    c     6.597249    4.407454   -2.181858    0.000000    1.000000
    71  Na    c    -2.191346    4.407454   -2.181858    0.000000    1.000000
    72  Cl    c     8.832013    0.005356    0.006451    0.000000    1.485000
    73  Cl    c    -4.426111    0.005356    0.006451    0.000000    1.485000
    74  Na    c     8.793606    2.294310    2.212931    0.000000    1.000000
    75  Na    c    -4.387703    2.294310    2.212931    0.000000    1.000000
    76  Cl    c     4.417592    4.403253   -4.418273    0.000000    1.485000
    77  Cl    c    -0.011690    4.403253   -4.418273    0.000000    1.485000
    78  Cl    c     4.471113   -4.487331    4.474783    0.000000    1.485000
    79  Cl    c    -0.065210   -4.487331    4.474783    0.000000    1.485000
    80  Na    c     4.405921    6.568513   -2.183299    0.000000    1.000000
    81  Na    c    -0.000019    6.568513   -2.183299    0.000000    1.000000
    82  Na    c     4.401987   -2.206870    6.575815    0.000000    1.000000
    83  Na    c     0.003916   -2.206870    6.575815    0.000000    1.000000
    84  O     c     6.618502    2.211542    6.625958    0.000000    0.183000
    85  O     c    -2.212600    2.211542    6.625958    0.000000    0.183000
    86  O     c     6.605296    6.611029    2.209945    0.000000    0.183000
    87  O     c    -2.199393    6.611029    2.209945    0.000000    0.183000
    88  Na    c     6.569511    2.205210   -4.384627    0.000000    1.000000
    89  Na    c    -2.163609    2.205210   -4.384627    0.000000    1.000000
    90  Na    c     6.597253    6.587190    0.003249    0.000000    1.000000
    91  Na    c    -2.191351    6.587190    0.003249    0.000000    1.000000
    92  Na    c     6.589439   -0.001189    6.608355    0.000000    1.000000
    93  Na    c    -2.183536   -0.001189    6.608355    0.000000    1.000000
    94  Na    c     6.425759   -4.382077    2.215724    0.000000    1.000000
    95  Na    c    -2.019857   -4.382077    2.215724    0.000000    1.000000
    96  Cl    c     8.837564    0.005869    4.412997    0.000000    1.485000
    97  Cl    c    -4.431661    0.005869    4.412997    0.000000    1.485000
    98  Cl    c     8.836036    4.409407    0.001082    0.000000    1.485000
    99  Cl    c    -4.430134    4.409407    0.001082    0.000000    1.485000
   100  Na    c     8.800936    2.202017   -2.188731    0.000000    1.000000
   101  Na    c    -4.395034    2.202017   -2.188731    0.000000    1.000000
   102  Na    c     8.784246   -2.296098    2.209647    0.000000    1.000000
   103  Na    c    -4.378344   -2.296098    2.209647    0.000000    1.000000
   104  O     c     2.202951    2.205310   -6.578532    0.000000    0.183000
   105  O     c     2.202951    6.604160    6.604341    0.000000    0.183000
   106  O     c     2.202951   -6.653259    2.205882    0.000000    0.183000
   107  Na    c     2.202951    2.294908    8.805624    0.000000    1.000000
   108  Na    c     2.202951    6.467634   -4.371555    0.000000    1.000000
   109  Na    c     2.202951   -6.632421    0.007697    0.000000    1.000000
   110  Na    c     2.202951    0.001138   -6.496944    0.000000    1.000000
   111  Na    c     2.202951    8.843447    2.230252    0.000000    1.000000
   112  Na    c     2.202951   -4.384624    6.433846    0.000000    1.000000
   113  O     c     6.618842    6.616750   -2.209553    0.000000    0.183000
   114  O     c    -2.212940    6.616750   -2.209553    0.000000    0.183000
   115  O     c     6.615096   -2.211257    6.619375    0.000000    0.183000
   116  O     c    -2.209193   -2.211257    6.619375    0.000000    0.183000
   117  Na    c     6.599600    6.589334    4.413789    0.000000    1.000000
   118  Na    c    -2.193697    6.589334    4.413789    0.000000    1.000000
   119  Na    c     6.595764   -2.201341   -4.396240    0.000000    1.000000
   120  Na    c    -2.189862   -2.201341   -4.396240    0.000000    1.000000
   121  Na    c     6.603373    4.411018    6.603189    0.000000    1.000000
   122  Na    c    -2.197471    4.411018    6.603189    0.000000    1.000000
   123  Na    c     6.596898   -4.409617   -2.194085    0.000000    1.000000
   124  Na    c    -2.190996   -4.409617   -2.194085    0.000000    1.000000
   125  Cl    c     4.410085   -0.000855    8.842045    0.000000    1.485000
   126  Cl    c    -0.004182   -0.000855    8.842045    0.000000    1.485000
   127  Cl    c     4.411483   -4.410928   -4.428986    0.000000    1.485000
   128  Cl    c    -0.005580   -4.410928   -4.428986    0.000000    1.485000
   129  Cl    c     8.840350    4.410554    4.417195    0.000000    1.485000
   130  Cl    c    -4.434448    4.410554    4.417195    0.000000    1.485000
   131  Na    c     4.399813    2.189161   -6.574177    0.000000    1.000000
   132  Na    c     0.006089    2.189161   -6.574177    0.000000    1.000000
   133  Na    c     4.409985    6.580113    6.602905    0.000000    1.000000
   134  Na    c    -0.004083    6.580113    6.602905    0.000000    1.000000
   135  Na    c     8.802686   -2.203036   -2.186067    0.000000    1.000000
   136  Na    c    -4.396784   -2.203036   -2.186067    0.000000    1.000000
   137  Cl    c     4.408727    8.841424   -0.000422    0.000000    1.485000
   138  Cl    c    -0.002825    8.841424   -0.000422    0.000000    1.485000
   139  Na    c     4.399682   -6.651596    2.200444    0.000000    1.000000
   140  Na    c     0.006220   -6.651596    2.200444    0.000000    1.000000
   141  O     c     2.202951   -2.207204   -6.594477    0.000000    0.183000
   142  O     c     2.202951   -6.608171   -2.195328    0.000000    0.183000
   143  Na    c     2.202951   -2.300179    8.795815    0.000000    1.000000
   144  Na    c     2.202951   -6.660805    4.403212    0.000000    1.000000
   145  Na    c     2.202951    4.396602   -6.643773    0.000000    1.000000
   146  Na    c     2.202951    8.794527   -2.249757    0.000000    1.000000
   147  Cl    c     4.411987    4.412874    8.837078    0.000000    1.485000
   148  Cl    c    -0.006084    4.412874    8.837078    0.000000    1.485000
   149  Cl    c     8.822621    0.002700   -4.416137    0.000000    1.485000
   150  Cl    c    -4.416718    0.002700   -4.416137    0.000000    1.485000
   151  Na    c     4.403306   -2.193510   -6.587714    0.000000    1.000000
   152  Na    c     0.002596   -2.193510   -6.587714    0.000000    1.000000
   153  Na    c     8.811220    2.200130    6.615363    0.000000    1.000000
   154  Na    c    -4.405318    2.200130    6.615363    0.000000    1.000000
   155  Cl    c     4.407050    8.842262    4.412481    0.000000    1.485000
   156  Cl    c    -0.001148    8.842262    4.412481    0.000000    1.485000
   157  Cl    c     8.833453   -4.407949   -0.003682    0.000000    1.485000
   158  Cl    c    -4.427551   -4.407949   -0.003682    0.000000    1.485000
   159  Na    c     4.408505   -6.587720   -2.187862    0.000000    1.000000
   160  Na    c    -0.002603   -6.587720   -2.187862    0.000000    1.000000
   161  Na    c     8.801353    6.536258    2.206546    0.000000    1.000000
   162  Na    c    -4.395450    6.536258    2.206546    0.000000    1.000000
   163  O     c     6.604861    2.200305   -6.600449    0.000000    0.183000
   164  O     c    -2.198959    2.200305   -6.600449    0.000000    0.183000
   165  O     c     6.621932    6.618849    6.622034    0.000000    0.183000
   166  O     c    -2.216030    6.618849    6.622034    0.000000    0.183000
   167  Na    c     6.595833    2.203610    8.814359    0.000000    1.000000
   168  Na    c    -2.189931    2.203610    8.814359    0.000000    1.000000
   169  Na    c     6.605577    6.598506   -4.402430    0.000000    1.000000
   170  Na    c    -2.199674    6.598506   -4.402430    0.000000    1.000000
   171  Na    c     6.614873    0.000394   -6.588288    0.000000    1.000000
   172  Na    c    -2.208971    0.000394   -6.588288    0.000000    1.000000
   173  Na    c     6.599129   -4.409844    6.593121    0.000000    1.000000
   174  Na    c    -2.193227   -4.409844    6.593121    0.000000    1.000000
   175  O     c     6.597914   -6.602280    2.203188    0.000000    0.183000
   176  O     c    -2.192012   -6.602280    2.203188    0.000000    0.183000
   177  O     c    11.007567    2.206934    2.206323    0.000000    0.183000
   178  O     c    -6.601664    2.206934    2.206323    0.000000    0.183000
   179  Na    c     6.603253   -6.575246    0.000090    0.000000    1.000000
   180  Na    c    -2.197350   -6.575246    0.000090    0.000000    1.000000
   181  Na    c    10.991589    2.189494    0.005004    0.000000    1.000000
   182  Na    c    -6.585687    2.189494    0.005004    0.000000    1.000000
   183  Na    c     6.635405    8.806812    2.204120    0.000000    1.000000
   184  Na    c    -2.229503    8.806812    2.204120    0.000000    1.000000
   185  Na    c    10.923130   -0.000424    2.209683    0.000000    1.000000
   186  Na    c    -6.517228   -0.000424    2.209683    0.000000    1.000000
   187  Cl    c     8.825803    4.414733   -4.415035    0.000000    1.485000
   188  Cl    c    -4.419900    4.414733   -4.415035    0.000000    1.485000
   189  Cl    c     8.835747   -4.404261    4.413929    0.000000    1.485000
   190  Cl    c    -4.429845   -4.404261    4.413929    0.000000    1.485000
   191  Na    c     8.811847    6.610492   -2.196252    0.000000    1.000000
   192  Na    c    -4.405945    6.610492   -2.196252    0.000000    1.000000
   193  Na    c     8.807720   -2.198710    6.605119    0.000000    1.000000
   194  Na    c    -4.401818   -2.198710    6.605119    0.000000    1.000000
   195  O     c     2.202951    6.594401   -6.595714    0.000000    0.183000
   196  O     c     2.202951   -6.604285    6.597882    0.000000    0.183000
   197  O     c     6.608086   -2.201493   -6.606337    0.000000    0.183000
   198  O     c    -2.202184   -2.201493   -6.606337    0.000000    0.183000
   199  Na    c     2.202951    6.544420    8.801246    0.000000    1.000000
   200  Na    c     2.202951   -6.554724   -4.394661    0.000000    1.000000
   201  Na    c     6.598298   -2.214223    8.812463    0.000000    1.000000
   202  Na    c    -2.192396   -2.214223    8.812463    0.000000    1.000000
   203  Na    c     2.202951    8.804802    6.635895    0.000000    1.000000
   204  Na    c     2.202951   -4.405659   -6.634570    0.000000    1.000000
   205  Na    c     6.592978    4.402551   -6.601178    0.000000    1.000000
   206  Na    c    -2.187075    4.402551   -6.601178    0.000000    1.000000
   207  O     c     6.618705   -6.616329   -2.211921    0.000000    0.183000
   208  O     c    -2.212802   -6.616329   -2.211921    0.000000    0.183000
   209  O     c    11.011640    2.202916   -2.199434    0.000000    0.183000
   210  O     c    -6.605737    2.202916   -2.199434    0.000000    0.183000
   211  O     c    11.001633   -2.205291    2.205533    0.000000    0.183000
   212  O     c    -6.595730   -2.205291    2.205533    0.000000    0.183000
   213  Na    c     6.592361   -6.592591    4.409169    0.000000    1.000000
   214  Na    c    -2.186459   -6.592591    4.409169    0.000000    1.000000
   215  Na    c    10.999854    2.196727    4.407946    0.000000    1.000000
   216  Na    c    -6.593952    2.196727    4.407946    0.000000    1.000000
   217  Na    c    10.991922   -2.194389    0.005183    0.000000    1.000000
   218  Na    c    -6.586019   -2.194389    0.005183    0.000000    1.000000
   219  Na    c     6.600111    8.810712   -2.201858    0.000000    1.000000
   220  Na    c    -2.194209    8.810712   -2.201858    0.000000    1.000000
   221  Na    c    10.999115    0.001013   -2.209353    0.000000    1.000000
   222  Na    c    -6.593212    0.001013   -2.209353    0.000000    1.000000
   223  Na    c    11.048813    4.403650    2.202232    0.000000    1.000000
   224  Na    c    -6.642910    4.403650    2.202232    0.000000    1.000000
   225  Cl    c     4.410113    8.823826   -4.409085    0.000000    1.485000
   226  Cl    c    -0.004211    8.823826   -4.409085    0.000000    1.485000
   227  Cl    c     4.411908   -4.404211    8.836781    0.000000    1.485000
   228  Cl    c    -0.006006   -4.404211    8.836781    0.000000    1.485000
   229  Na    c     4.402701    6.606686   -6.590019    0.000000    1.000000
   230  Na    c     0.003201    6.606686   -6.590019    0.000000    1.000000
   231  Na    c     4.407615   -6.586008    6.601764    0.000000    1.000000
   232  Na    c    -0.001713   -6.586008    6.601764    0.000000    1.000000
   233  O     c     2.202951    2.210869   11.014916    0.000000    0.183000
   234  O     c     2.202951   11.028055    2.205222    0.000000    0.183000
   235  O     c    11.010482   -2.200085   -2.200182    0.000000    0.183000
   236  O     c    -6.604580   -2.200085   -2.200182    0.000000    0.183000
   237  Na    c     2.202951    2.164673   -8.795722    0.000000    1.000000
   238  Na    c     2.202951   10.997509   -0.004075    0.000000    1.000000
   239  Na    c    10.998456   -2.200172    4.406761    0.000000    1.000000
   240  Na    c    -6.592554   -2.200172    4.406761    0.000000    1.000000
   241  Na    c     2.202951   -0.002466   10.961139    0.000000    1.000000
   242  Na    c     2.202951   -8.833750    2.199218    0.000000    1.000000
   243  Na    c    11.005851    4.405191   -2.188606    0.000000    1.000000
   244  Na    c    -6.599949    4.405191   -2.188606    0.000000    1.000000
   245  Cl    c     4.405696    0.001243   -8.826901    0.000000    1.485000
   246  Cl    c     0.000206    0.001243   -8.826901    0.000000    1.485000
   247  Cl    c     8.826297    0.004361    8.825756    0.000000    1.485000
   248  Cl    c    -4.420395    0.004361    8.825756    0.000000    1.485000
   249  Cl    c     8.821523    8.824917   -0.002170    0.000000    1.485000
   250  Cl    c    -4.415620    8.824917   -0.002170    0.000000    1.485000
   251  Cl    c     8.823698   -4.411563   -4.421273    0.000000    1.485000
   252  Cl    c    -4.417796   -4.411563   -4.421273    0.000000    1.485000
   253  Na    c     4.403418    2.187587   11.009721    0.000000    1.000000
   254  Na    c     0.002484    2.187587   11.009721    0.000000    1.000000
[...]
    260 y          6.608853      6.587216    -0.021638    Cartesian   -0.33
    260 z         -2.202951     -2.171725     0.031226    Cartesian   -1.42
    261 x          2.202951      2.202951     0.000000    Cartesian    0.00
    261 y         -2.202951     -2.185721     0.017230    Cartesian   -0.78
    261 z          6.608853      6.586486    -0.022368    Cartesian   -0.34
    262 x          6.608853      6.610447     0.001593    Cartesian    0.02
    262 y         -2.202951     -2.209264    -0.006312    Cartesian    0.29
    262 z         -2.202951     -2.201394     0.001557    Cartesian   -0.07
    263 x          8.811805      8.836353     0.024548    Cartesian    0.28
    263 y          0.000000      0.006149     0.006149    Cartesian    0.00
    263 z          0.000000      0.006995     0.006995    Cartesian    0.00
    264 x          4.405902      4.419209     0.013307    Cartesian    0.30
    264 y          4.405902      4.404907    -0.000995    Cartesian   -0.02
    264 z         -4.405902     -4.424288    -0.018385    Cartesian    0.42
    265 x          4.405902      4.482815     0.076913    Cartesian    1.75
    265 y         -4.405902     -4.499742    -0.093840    Cartesian    2.13
    265 z          4.405902      4.486012     0.080109    Cartesian    1.82
    266 x          6.608853      6.618511     0.009657    Cartesian    0.15
    266 y          2.202951      2.211551     0.008600    Cartesian    0.39
    266 z          6.608853      6.625962     0.017108    Cartesian    0.26
    267 x          6.608853      6.605279    -0.003575    Cartesian   -0.05
    267 y          6.608853      6.611044     0.002191    Cartesian    0.03
    267 z          2.202951      2.209947     0.006996    Cartesian    0.32
    268 x          8.811805      8.841856     0.030051    Cartesian    0.34
    268 y          0.000000      0.006866     0.006866    Cartesian    0.00
    268 z          4.405902      4.412512     0.006610    Cartesian    0.15
    269 x          8.811805      8.840652     0.028847    Cartesian    0.33
    269 y          4.405902      4.409983     0.004080    Cartesian    0.09
    269 z          0.000000      0.000602     0.000602    Cartesian    0.00
    270 x          2.202951      2.202951     0.000000    Cartesian    0.00
    270 y          2.202951      2.205330     0.002379    Cartesian    0.11
    270 z         -6.608853     -6.578557     0.030297    Cartesian   -0.46
    271 x          2.202951      2.202951     0.000000    Cartesian    0.00
    271 y          6.608853      6.604180    -0.004674    Cartesian   -0.07
    271 z          6.608853      6.604318    -0.004535    Cartesian   -0.07
    272 x          2.202951      2.202951     0.000000    Cartesian    0.00
    272 y         -6.608853     -6.653293    -0.044440    Cartesian    0.67
    272 z          2.202951      2.205886     0.002935    Cartesian    0.13
    273 x          6.608853      6.618853     0.009999    Cartesian    0.15
    273 y          6.608853      6.616751     0.007897    Cartesian    0.12
    273 z         -2.202951     -2.209564    -0.006613    Cartesian    0.30
    274 x          6.608853      6.615102     0.006248    Cartesian    0.09
    274 y         -2.202951     -2.211265    -0.008314    Cartesian    0.38
    274 z          6.608853      6.619380     0.010526    Cartesian    0.16
    275 x          4.405902      4.410113     0.004210    Cartesian    0.10
    275 y          0.000000     -0.000521    -0.000521    Cartesian    0.00
    275 z          8.811805      8.845191     0.033386    Cartesian    0.38
    276 x          4.405902      4.412338     0.006436    Cartesian    0.15
    276 y         -4.405902     -4.411223    -0.005321    Cartesian    0.12
    276 z         -4.405902     -4.433705    -0.027803    Cartesian    0.63
    277 x          8.811805      8.844869     0.033064    Cartesian    0.38
    277 y          4.405902      4.410974     0.005072    Cartesian    0.12
    277 z          4.405902      4.417652     0.011750    Cartesian    0.27
    278 x          4.405902      4.408225     0.002323    Cartesian    0.05
    278 y          8.811805      8.844222     0.032417    Cartesian    0.37
    278 z          0.000000     -0.000028    -0.000028    Cartesian    0.00
    279 x          2.202951      2.202951     0.000000    Cartesian    0.00
    279 y         -2.202951     -2.207220    -0.004269    Cartesian    0.19
    279 z         -6.608853     -6.594479     0.014374    Cartesian   -0.22
    280 x          2.202951      2.202951     0.000000    Cartesian    0.00
    280 y         -6.608853     -6.608184     0.000670    Cartesian   -0.01
    280 z         -2.202951     -2.195308     0.007643    Cartesian   -0.35
    281 x          4.405902      4.412849     0.006946    Cartesian    0.16
    281 y          4.405902      4.414096     0.008193    Cartesian    0.19
    281 z          8.811805      8.841771     0.029967    Cartesian    0.34
    282 x          8.811805      8.825718     0.013913    Cartesian    0.16
    282 y          0.000000      0.002572     0.002572    Cartesian    0.00
    282 z         -4.405902     -4.418996    -0.013094    Cartesian    0.30
    283 x          4.405902      4.406371     0.000468    Cartesian    0.01
    283 y          8.811805      8.845508     0.033703    Cartesian    0.38
    283 z          4.405902      4.412164     0.006262    Cartesian    0.14
    284 x          8.811805      8.838600     0.026795    Cartesian    0.30
    284 y         -4.405902     -4.408315    -0.002412    Cartesian    0.05
    284 z          0.000000     -0.004962    -0.004962    Cartesian    0.00
    285 x          6.608853      6.604857    -0.003996    Cartesian   -0.06
    285 y          2.202951      2.200303    -0.002648    Cartesian   -0.12
    285 z         -6.608853     -6.600455     0.008398    Cartesian   -0.13
    286 x          6.608853      6.621943     0.013089    Cartesian    0.20
    286 y          6.608853      6.618853     0.010000    Cartesian    0.15
    286 z          6.608853      6.622045     0.013191    Cartesian    0.20
    287 x          6.608853      6.597888    -0.010965    Cartesian   -0.17
    287 y         -6.608853     -6.602301     0.006552    Cartesian   -0.10
    287 z          2.202951      2.203189     0.000238    Cartesian    0.01
    288 x         11.014756     11.007570    -0.007186    Cartesian   -0.07
    288 y          2.202951      2.206951     0.004000    Cartesian    0.18
    288 z          2.202951      2.206323     0.003372    Cartesian    0.15
    289 x          8.811805      8.828757     0.016952    Cartesian    0.19
    289 y          4.405902      4.416491     0.010589    Cartesian    0.24
    289 z         -4.405902     -4.417494    -0.011592    Cartesian    0.26
    290 x          8.811805      8.840875     0.029070    Cartesian    0.33
    290 y         -4.405902     -4.404278     0.001624    Cartesian   -0.04
    290 z          4.405902      4.414805     0.008903    Cartesian    0.20
    291 x          2.202951      2.202951     0.000000    Cartesian    0.00
    291 y          6.608853      6.594381    -0.014472    Cartesian   -0.22
    291 z         -6.608853     -6.595737     0.013116    Cartesian   -0.20
    292 x          2.202951      2.202951     0.000000    Cartesian    0.00
    292 y         -6.608853     -6.604310     0.004544    Cartesian   -0.07
    292 z          6.608853      6.597856    -0.010997    Cartesian   -0.17
    293 x          6.608853      6.608088    -0.000766    Cartesian   -0.01
    293 y         -2.202951     -2.201490     0.001461    Cartesian   -0.07
    293 z         -6.608853     -6.606339     0.002514    Cartesian   -0.04
    294 x          6.608853      6.618715     0.009861    Cartesian    0.15
    294 y         -6.608853     -6.616331    -0.007477    Cartesian    0.11
    294 z         -2.202951     -2.211930    -0.008979    Cartesian    0.41
    295 x         11.014756     11.011645    -0.003111    Cartesian   -0.03
    295 y          2.202951      2.202913    -0.000038    Cartesian   -0.00
    295 z         -2.202951     -2.199433     0.003518    Cartesian   -0.16
    296 x         11.014756     11.001641    -0.013115    Cartesian   -0.12
    296 y         -2.202951     -2.205305    -0.002354    Cartesian    0.11
    296 z          2.202951      2.205533     0.002581    Cartesian    0.12
    297 x          4.405902      4.411045     0.005143    Cartesian    0.12
    297 y          8.811805      8.827557     0.015753    Cartesian    0.18
    297 z         -4.405902     -4.410654    -0.004751    Cartesian    0.11
    298 x          4.405902      4.412603     0.006700    Cartesian    0.15
    298 y         -4.405902     -4.403741     0.002162    Cartesian   -0.05
    298 z          8.811805      8.841469     0.029665    Cartesian    0.34
    299 x          2.202951      2.202951     0.000000    Cartesian    0.00
    299 y          2.202951      2.210894     0.007943    Cartesian    0.36
    299 z         11.014756     11.014919     0.000163    Cartesian    0.00
    300 x          2.202951      2.202951     0.000000    Cartesian    0.00
    300 y         11.014756     11.028036     0.013280    Cartesian    0.12
    300 z          2.202951      2.205229     0.002277    Cartesian    0.10
    301 x         11.014756     11.010485    -0.004271    Cartesian   -0.04
    301 y         -2.202951     -2.200082     0.002869    Cartesian   -0.13
    301 z         -2.202951     -2.200183     0.002769    Cartesian   -0.13
    302 x          4.405902      4.405991     0.000089    Cartesian    0.00
    302 y          0.000000      0.001317     0.001317    Cartesian    0.00
    302 z         -8.811805     -8.830661    -0.018857    Cartesian    0.21
    303 x          8.811805      8.828779     0.016974    Cartesian    0.19
    303 y          0.000000      0.005571     0.005571    Cartesian    0.00
    303 z          8.811805      8.827655     0.015850    Cartesian    0.18
    304 x          8.811805      8.823243     0.011439    Cartesian    0.13
    304 y          8.811805      8.827669     0.015865    Cartesian    0.18
    304 z          0.000000     -0.002479    -0.002479    Cartesian    0.00
    305 x          8.811805      8.825685     0.013880    Cartesian    0.16
    305 y         -4.405902     -4.412109    -0.006207    Cartesian    0.14
    305 z         -4.405902     -4.423719    -0.017817    Cartesian    0.40
    306 x          4.405902      4.409484     0.003582    Cartesian    0.08
    306 y         -8.811805     -8.839798    -0.027994    Cartesian    0.32
    306 z          0.000000     -0.003742    -0.003742    Cartesian    0.00
    307 x          2.202951      2.202951     0.000000    Cartesian    0.00
    307 y         11.014756     11.012264    -0.002492    Cartesian   -0.02
    307 z         -2.202951     -2.210150    -0.007198    Cartesian    0.33
    308 x          2.202951      2.202951     0.000000    Cartesian    0.00
    308 y         -2.202951     -2.212789    -0.009838    Cartesian    0.45
    308 z         11.014756     11.010488    -0.004268    Cartesian   -0.04
    309 x          6.608853      6.607895    -0.000958    Cartesian   -0.01
    309 y          6.608853      6.608921     0.000068    Cartesian    0.00
    309 z         -6.608853     -6.608102     0.000752    Cartesian   -0.01
    310 x          6.608853      6.618728     0.009875    Cartesian    0.15
    310 y         -6.608853     -6.616218    -0.007365    Cartesian    0.11
    310 z          6.608853      6.618842     0.009989    Cartesian    0.15
    311 x         11.014756     11.018916     0.004160    Cartesian    0.04
    311 y          2.202951      2.203577     0.000625    Cartesian    0.03
    311 z          6.608853      6.610985     0.002131    Cartesian    0.03
    312 x         11.014756     11.016026     0.001270    Cartesian    0.01
    312 y          6.608853      6.602559    -0.006295    Cartesian   -0.10
    312 z          2.202951      2.204401     0.001449    Cartesian    0.07
    313 x          8.811805      8.827806     0.016001    Cartesian    0.18
    313 y          8.811805      8.829901     0.018096    Cartesian    0.21
    313 z          4.405902      4.410175     0.004273    Cartesian    0.10
    314 x          4.405902      4.406133     0.000231    Cartesian    0.01
    314 y          4.405902      4.408959     0.003057    Cartesian    0.07
    314 z         -8.811805     -8.825651    -0.013846    Cartesian    0.16
    315 x          4.405902      4.408053     0.002150    Cartesian    0.05
    315 y         -8.811805     -8.842503    -0.030699    Cartesian    0.35
    315 z          4.405902      4.406664     0.000762    Cartesian    0.02
    316 x          8.811805      8.833141     0.021337    Cartesian    0.24
    316 y          4.405902      4.414461     0.008559    Cartesian    0.19
    316 z          8.811805      8.829099     0.017294    Cartesian    0.20
    317 x          2.202951      2.202951     0.000000    Cartesian    0.00
    317 y         -6.608853     -6.607642     0.001211    Cartesian   -0.02
    317 z         -6.608853     -6.611671    -0.002817    Cartesian    0.04
    318 x          6.608853      6.609364     0.000511    Cartesian    0.01
    318 y          2.202951      2.202013    -0.000939    Cartesian   -0.04
    318 z         11.014756     11.019141     0.004385    Cartesian    0.04
    319 x          6.608853      6.614181     0.005327    Cartesian    0.08
    319 y         11.014756     11.017010     0.002255    Cartesian    0.02
    319 z          2.202951      2.202526    -0.000426    Cartesian   -0.02
    320 x         11.014756     11.017187     0.002431    Cartesian    0.02
    320 y          6.608853      6.611838     0.002985    Cartesian    0.05
    320 z         -2.202951     -2.202007     0.000944    Cartesian   -0.04
    321 x         11.014756     11.017587     0.002831    Cartesian    0.03
    321 y         -2.202951     -2.200905     0.002046    Cartesian   -0.09
    321 z          6.608853      6.611819     0.002965    Cartesian    0.04
    322 x          4.405902      4.412500     0.006598    Cartesian    0.15
    322 y          8.811805      8.830228     0.018424    Cartesian    0.21
    322 z          8.811805      8.825532     0.013727    Cartesian    0.16
    323 x         13.217707     13.242535     0.024828    Cartesian    0.19
    323 y          0.000000     -0.000043    -0.000043    Cartesian    0.00
    323 z          0.000000     -0.001553    -0.001553    Cartesian    0.00
    324 x          6.608853      6.611576     0.002722    Cartesian    0.04
    324 y         11.014756     11.020327     0.005571    Cartesian    0.05
    324 z         -2.202951     -2.205642    -0.002690    Cartesian    0.12
    325 x          2.202951      2.202951     0.000000    Cartesian    0.00
    325 y          6.608853      6.608224    -0.000629    Cartesian   -0.01
    325 z         11.014756     11.018264     0.003508    Cartesian    0.03
    326 x          2.202951      2.202951     0.000000    Cartesian    0.00
    326 y         11.014756     11.017392     0.002636    Cartesian    0.02
    326 z          6.608853      6.615126     0.006273    Cartesian    0.09
    327 x          6.608853      6.613162     0.004309    Cartesian    0.07
    327 y         -2.202951     -2.204783    -0.001832    Cartesian    0.08
    327 z         11.014756     11.021614     0.006858    Cartesian    0.06
    328 x          4.405902      4.409191     0.003288    Cartesian    0.07
    328 y         -4.405902     -4.413845    -0.007943    Cartesian    0.18
    328 z         -8.811805     -8.830964    -0.019159    Cartesian    0.22
    329 x          4.405902      4.412846     0.006944    Cartesian    0.16
    329 y         -8.811805     -8.833122    -0.021317    Cartesian    0.24
    329 z         -4.405902     -4.422699    -0.016797    Cartesian    0.38
    330 x          8.811805      8.826331     0.014526    Cartesian    0.16
    330 y          8.811805      8.829466     0.017661    Cartesian    0.20
    330 z         -4.405902     -4.420079    -0.014176    Cartesian    0.32
    331 x          8.811805      8.832265     0.020461    Cartesian    0.23
    331 y         -4.405902     -4.414872    -0.008970    Cartesian    0.20
    331 z          8.811805      8.834029     0.022224    Cartesian    0.25
    332 x         13.217707     13.245249     0.027542    Cartesian    0.21
    332 y          0.000000     -0.000435    -0.000435    Cartesian    0.00
    332 z          4.405902      4.408158     0.002255    Cartesian    0.05
    333 x         13.217707     13.238328     0.020621    Cartesian    0.16
    333 y          4.405902      4.412677     0.006774    Cartesian    0.15
    333 z          0.000000     -0.001887    -0.001887    Cartesian    0.00
    334 x          6.608853      6.611900     0.003046    Cartesian    0.05
    334 y         -6.608853     -6.614238    -0.005385    Cartesian    0.08
    334 z         -6.608853     -6.614103    -0.005250    Cartesian    0.08
    335 x         11.014756     11.018129     0.003373    Cartesian    0.03
    335 y          2.202951      2.206481     0.003530    Cartesian    0.16
    335 z         -6.608853     -6.611238    -0.002385    Cartesian    0.04
    336 x         11.014756     11.021484     0.006728    Cartesian    0.06
    336 y          6.608853      6.614174     0.005320    Cartesian    0.08
    336 z          6.608853      6.612877     0.004024    Cartesian    0.06
    337 x         11.014756     11.019752     0.004996    Cartesian    0.05
    337 y         -6.608853     -6.608140     0.000713    Cartesian   -0.01
    337 z          2.202951      2.205756     0.002805    Cartesian    0.13
    338 x         13.217707     13.240563     0.022857    Cartesian    0.17
    338 y          4.405902      4.414930     0.009027    Cartesian    0.20
    338 z          4.405902      4.410501     0.004599    Cartesian    0.10
    339 x          8.811805      8.821750     0.009946    Cartesian    0.11
    339 y          0.000000     -0.001441    -0.001441    Cartesian    0.00
    339 z         -8.811805     -8.833111    -0.021306    Cartesian    0.24
    340 x          8.811805      8.829052     0.017248    Cartesian    0.20
    340 y         -8.811805     -8.837476    -0.025672    Cartesian    0.29
    340 z          0.000000     -0.005854    -0.005854    Cartesian    0.00
--------------------------------------------------------------------------------


  Time to end of optimisation  =       29.6579 seconds


  Peak dynamic memory used =     107.84 MB 


  Timing analysis for GULP :

--------------------------------------------------------------------------------
  Task / Subroutine                                          Time (Seconds)
--------------------------------------------------------------------------------
  Calculation of reciprocal space energy and derivatives          0.0008
  Calculation of reciprocal space energy using symmetry           0.0014
  Calculation of real space energy and derivatives                0.0045
  Calculation of real space energy using symmetry                 0.0138
  Calculation for region 1 energy and derivatives (2-b)          15.5539
  Calculation for region 2a energy                               12.8865
  Calculation for region 2b energy                                0.0039
  Calculation and manipulation of Hessian matrix                  0.0734
  Calculation of matrix inversion                                 0.9349
  Symmetry generation of equivalent positions                     0.0051
--------------------------------------------------------------------------------
  Total CPU time                                                 29.6580
--------------------------------------------------------------------------------


  Dump file written as Na3OCl.grs


  Job Finished at 13:25.06 26th September  2021                               

