********************************************************************************
*                       GENERAL UTILITY LATTICE PROGRAM                        *
*                                 Julian Gale                                  *
*                       Curtin Institute for Computation                       *
*                    School of Molecular and Life Sciences                     *
*                    Curtin University, Western Australia                      *
********************************************************************************
* Version = 5.2.0 * Last modified =  10th September 2020                       *
********************************************************************************
*  optimise     - perform optimisation run                                     *
*  conp         - constant pressure calculation                                *
*  property     - calculate properties for final geometry                      *
*  defect       - perform defect calculation after bulk run                    *
*  compare      - compare initial and final structures                         *
********************************************************************************

  Job Started  at 14:37.25 30th December   2020                               

  Number of CPUs =     1


  Total number of configurations input =      1

********************************************************************************
*  Input for Configuration =   1                                               *
********************************************************************************

  Formula = ClONa3                                                      

  Number of irreducible atoms/shells =       5


  Total number atoms/shells =       7

  Dimensionality = 3               :  Bulk   


  Symmetry :

  Crystal family                   :  Cubic       
  Crystal class  (Groth - 1921)    :  Cubic Hexakisoctahedral              

  Space group (centrosymmetric)    :  P M 3 M         

  Patterson group                  :  P m -3 m 

  Cartesian lattice vectors (Angstroms) :

        4.504000    0.000000    0.000000
        0.000000    4.504000    0.000000
        0.000000    0.000000    4.504000

  Cell parameters (Angstroms/Degrees):

  a =       4.5040    alpha =  90.0000
  b =       4.5040    beta  =  90.0000
  c =       4.5040    gamma =  90.0000

  Initial cell volume =          91.368216 Angs**3

  Temperature of configuration =   0.00     K 

  Pressure of configuration =         0.000 GPa 

  Fractional coordinates of asymmetric unit :

--------------------------------------------------------------------------------
   No.  Atomic       x           y          z         Charge      Occupancy
        Label      (Frac)      (Frac)     (Frac)        (e)         (Frac)  
--------------------------------------------------------------------------------
      1 Cl    c    0.000000    0.000000    0.000000     1.48500    1.000000    
      2 O     c    0.500000    0.500000    0.500000     0.18300    1.000000    
      3 Na    c    0.500000    0.500000    0.000000     1.00000    1.000000    
      4 Cl    s    0.000000    0.000000    0.000000    -2.48500    1.000000    
      5 O     s    0.500000    0.500000    0.500000    -2.18300    1.000000    
--------------------------------------------------------------------------------


  Constraints : 

--------------------------------------------------------------------------------
  Constraint no.      Unconstrained     Constrained    Coefficient    Offset
                         Variable         Variable
--------------------------------------------------------------------------------
           1              Strain 1        Strain 2       1.00000      0.0000
           2              Strain 1        Strain 3       1.00000      0.0000
--------------------------------------------------------------------------------


********************************************************************************
*  General input information                                                   *
********************************************************************************

  Species output for all configurations : 

--------------------------------------------------------------------------------
  Species    Type    Atomic    Atomic    Charge       Radii (Angs)     Library
                     Number     Mass       (e)     Cova   Ionic  VDW   Symbol
--------------------------------------------------------------------------------
    Na       Core       11      22.99   1.000000   0.970  0.000  2.300          
    O        Core        8      16.00   0.183000   0.730  0.000  1.360          
    O        Shell       8       0.00  -2.183000   0.730  0.000  1.360          
    Cl       Core       17      35.45   1.485000   0.990  0.000  1.650          
    Cl       Shell      17       0.00  -2.485000   0.990  0.000  1.650          
    Mg       Core       12      24.31   0.415000   1.100  0.000  0.000          
    Mg       Shell      12       0.00   1.585000   1.100  0.000  0.000          
    Ca       Core       20      40.08  -1.135000   0.990  0.000  0.000          
    Ca       Shell      20       0.00   3.135000   0.990  0.000  0.000          
    Sr       Core       38      87.62  -1.251000   1.120  0.000  0.000          
    Sr       Shell      38       0.00   3.251000   1.120  0.000  0.000          
    Ba       Core       56     137.33  -7.203000   1.340  0.000  0.000          
    Ba       Shell      56       0.00   9.203000   1.340  0.000  0.000          
--------------------------------------------------------------------------------


  Lattice summation method               =    Ewald          (3-D)
                                         =    Parry          (2-D)
                                         =    Saunders et al (1-D)
  Accuracy factor for lattice sums       =   12.000


  Analytic derivatives to be used

  Time limit = Infinity

  Maximum range for interatomic potentials =    100000.000000 Angstroms

  General interatomic potentials :

--------------------------------------------------------------------------------
Atom  Types   Potential      Parameter       Value         Units   Cutoffs(Ang)
  1     2                                                            Min /  Max 
--------------------------------------------------------------------------------
O    c O    s Spring (c-s)  Spring k 2       593.71600    eV*Ang^-2 0.000  0.800
                            Spring k 4       0.0000000    eV*Ang^-4 
--------------------------------------------------------------------------------
Cl   c Cl   s Spring (c-s)  Spring k 2       29.380000    eV*Ang^-2 0.000  0.800
                            Spring k 4       0.0000000    eV*Ang^-4 
--------------------------------------------------------------------------------
Mg   c Mg   s Spring (c-s)  Spring k 2       361.60000    eV*Ang^-2 0.000  0.800
                            Spring k 4       0.0000000    eV*Ang^-4 
--------------------------------------------------------------------------------
Ca   c Ca   s Spring (c-s)  Spring k 2       110.20000    eV*Ang^-2 0.000  0.800
                            Spring k 4       0.0000000    eV*Ang^-4 
--------------------------------------------------------------------------------
Sr   c Sr   s Spring (c-s)  Spring k 2       71.700000    eV*Ang^-2 0.000  0.800
                            Spring k 4       0.0000000    eV*Ang^-4 
--------------------------------------------------------------------------------
Ba   c Ba   s Spring (c-s)  Spring k 2       495.20000    eV*Ang^-2 0.000  0.800
                            Spring k 4       0.0000000    eV*Ang^-4 
--------------------------------------------------------------------------------
Na   c Na   c Buckingham    Buckingham A     1788.1900    eV        0.000 12.000
                            Buckingham rho  0.15900000    Ang       
                            Buckingham C     0.0000000    eV*Ang^6  
--------------------------------------------------------------------------------
Na   c O    s Buckingham    Buckingham A     1225.1100    eV        0.000 12.000
                            Buckingham rho  0.30700000    Ang       
                            Buckingham C     0.0000000    eV*Ang^6  
--------------------------------------------------------------------------------
Na   c Cl   s Buckingham    Buckingham A     2292.5300    eV        0.000 12.000
                            Buckingham rho  0.29000000    Ang       
                            Buckingham C     0.0000000    eV*Ang^6  
--------------------------------------------------------------------------------
O    s O    s Buckingham    Buckingham A     22764.300    eV        0.000 12.000
                            Buckingham rho  0.14900000    Ang       
                            Buckingham C     13.190000    eV*Ang^6  
--------------------------------------------------------------------------------
O    s Cl   s Buckingham    Buckingham A     8286.9100    eV        0.000 12.000
                            Buckingham rho  0.25900000    Ang       
                            Buckingham C     62.200000    eV*Ang^6  
--------------------------------------------------------------------------------
Cl   s Cl   s Buckingham    Buckingham A     1227.2000    eV        0.000 12.000
                            Buckingham rho  0.32100000    Ang       
                            Buckingham C     14.530000    eV*Ang^6  
--------------------------------------------------------------------------------
O    s Mg   s Buckingham    Buckingham A     1428.5000    eV        0.000 12.000
                            Buckingham rho  0.29450000    Ang       
                            Buckingham C     0.0000000    eV*Ang^6  
--------------------------------------------------------------------------------
Mg   s Cl   s Buckingham    Buckingham A     4914.5400    eV        0.000 12.000
                            Buckingham rho  0.25700000    Ang       
                            Buckingham C     0.0000000    eV*Ang^6  
--------------------------------------------------------------------------------
O    s Ca   s Buckingham    Buckingham A     1090.4000    eV        0.000 12.000
                            Buckingham rho  0.34370000    Ang       
                            Buckingham C     0.0000000    eV*Ang^6  
--------------------------------------------------------------------------------
Cl   s Ca   s Buckingham    Buckingham A     2302.0000    eV        0.000 12.000
                            Buckingham rho  0.34020000    Ang       
                            Buckingham C     0.0000000    eV*Ang^6  
--------------------------------------------------------------------------------
O    s Sr   s Buckingham    Buckingham A     959.10000    eV        0.000 12.000
                            Buckingham rho  0.37210000    Ang       
                            Buckingham C     0.0000000    eV*Ang^6  
--------------------------------------------------------------------------------
Cl   s Sr   s Buckingham    Buckingham A     2191.0900    eV        0.000 12.000
                            Buckingham rho  0.34570000    Ang       
                            Buckingham C     0.0000000    eV*Ang^6  
--------------------------------------------------------------------------------
O    s Ba   s Buckingham    Buckingham A     905.70000    eV        0.000 12.000
                            Buckingham rho  0.39760000    Ang       
                            Buckingham C     0.0000000    eV*Ang^6  
--------------------------------------------------------------------------------
Cl   s Ba   s Buckingham    Buckingham A     2704.5500    eV        0.000 12.000
                            Buckingham rho  0.35280000    Ang       
                            Buckingham C     0.0000000    eV*Ang^6  
--------------------------------------------------------------------------------

********************************************************************************
*  Output for configuration   1                                                *
********************************************************************************


  Components of energy : 

--------------------------------------------------------------------------------
  Interatomic potentials     =           5.11892891 eV    
  Monopole - monopole (real) =         -10.03624526 eV    
  Monopole - monopole (recip)=         -29.53581274 eV    
  Monopole - monopole (total)=         -39.57205800 eV    
--------------------------------------------------------------------------------
  Total lattice energy       =         -34.45312908 eV    
--------------------------------------------------------------------------------
  Total lattice energy       =           -3324.2003 kJ/(mole unit cells)
--------------------------------------------------------------------------------


  Number of variables =        1

  Maximum number of calculations  =          1000
  Maximum Hessian update interval =            10
  Maximum step size               =   1.000000000
  Maximum parameter tolerance     =   0.000010000
  Maximum function  tolerance     =   0.000010000
  Maximum gradient  tolerance     =   0.001000000
  Maximum gradient  component     =   0.010000000

  Symmetry constrained optimisation

  Symmetry used for second derivatives

  Cell parameters to be optimised using strains

  Newton-Raphson optimiser to be used

  BFGS hessian update to be used

  Lower half triangular hessian to be used

  Start of bulk optimisation :

  Cycle:      0 Energy:       -34.453129  Gnorm:      0.097141  CPU:    0.009
  ** Hessian calculated **
  Cycle:      1 Energy:       -34.453149  Gnorm:      0.000108  CPU:    0.010


  **** Optimisation achieved ****


  Final energy =     -34.45314929 eV
  Final Gnorm  =       0.00000018

  Components of energy : 

--------------------------------------------------------------------------------
  Interatomic potentials     =           5.10244234 eV    
  Monopole - monopole (real) =         -10.03206906 eV    
  Monopole - monopole (recip)=         -29.52352256 eV    
  Monopole - monopole (total)=         -39.55559162 eV    
--------------------------------------------------------------------------------
  Total lattice energy       =         -34.45314929 eV    
--------------------------------------------------------------------------------
  Total lattice energy       =           -3324.2022 kJ/(mole unit cells)
--------------------------------------------------------------------------------

  Final asymmetric unit coordinates :

--------------------------------------------------------------------------------
   No.  Atomic        x           y           z         Radius
        Label       (Frac)      (Frac)      (Frac)       (Angs) 
--------------------------------------------------------------------------------
     1  Cl    c     0.000000    0.000000    0.000000    0.000000
     2  O     c     0.500000    0.500000    0.500000    0.000000
     3  Na    c     0.500000    0.500000    0.000000    0.000000
     4  Cl    s     0.000000    0.000000    0.000000    0.000000
     5  O     s     0.500000    0.500000    0.500000    0.000000
--------------------------------------------------------------------------------

  Final Cartesian lattice vectors (Angstroms) :

        4.505875    0.000000    0.000000
        0.000000    4.505875    0.000000
        0.000000    0.000000    4.505875


  Final cell parameters and derivatives :

--------------------------------------------------------------------------------
       a            4.505875 Angstrom     dE/de1(xx)    -0.000000 eV/strain
       b            4.505875 Angstrom     dE/de2(yy)     0.000000 eV/strain
       c            4.505875 Angstrom     dE/de3(zz)     0.000000 eV/strain
       alpha       90.000000 Degrees      dE/de4(yz)     0.000000 eV/strain
       beta        90.000000 Degrees      dE/de5(xz)     0.000000 eV/strain
       gamma       90.000000 Degrees      dE/de6(xy)     0.000000 eV/strain
--------------------------------------------------------------------------------

  Primitive cell volume =            91.482369 Angs**3

  Density of cell =      2.185834 g/cm**3

  Non-primitive cell volume =            91.482369 Angs**3


  Final internal derivatives :

--------------------------------------------------------------------------------
   No.  Atomic          a             b             c           Radius
        Label          (eV)          (eV)          (eV)        (eV/Angs)
--------------------------------------------------------------------------------
      1 Cl    c       0.000000      0.000000      0.000000      0.000000
      2 O     c       0.000000      0.000000      0.000000      0.000000
      3 Na    c       0.000000      0.000000      0.000000      0.000000
      4 Cl    s       0.000000      0.000000      0.000000      0.000000
      5 O     s       0.000000      0.000000      0.000000      0.000000
--------------------------------------------------------------------------------
  Maximum abs         0.000000      0.000000      0.000000      0.000000
--------------------------------------------------------------------------------

  Comparison of initial and final structures : 

--------------------------------------------------------------------------------
  Parameter   Initial value   Final value   Difference    Units      Percent
--------------------------------------------------------------------------------
    Volume        91.368216     91.482369     0.114153    Angs**3      0.12
    a              4.504000      4.505875     0.001875    Angstroms    0.04
    b              4.504000      4.505875     0.001875    Angstroms    0.04
    c              4.504000      4.505875     0.001875    Angstroms    0.04
    alpha         90.000000     90.000000     0.000000    Degrees      0.00
    beta          90.000000     90.000000     0.000000    Degrees      0.00
    gamma         90.000000     90.000000     0.000000    Degrees      0.00
      1 x          0.000000      0.000000     0.000000    Fractional   0.00
      1 y          0.000000      0.000000     0.000000    Fractional   0.00
      1 z          0.000000      0.000000     0.000000    Fractional   0.00
      2 x          0.500000      0.500000     0.000000    Fractional   0.00
      2 y          0.500000      0.500000     0.000000    Fractional   0.00
      2 z          0.500000      0.500000     0.000000    Fractional   0.00
      3 x          0.500000      0.500000     0.000000    Fractional   0.00
      3 y          0.500000      0.500000     0.000000    Fractional   0.00
      3 z          0.000000      0.000000     0.000000    Fractional   0.00
      4 x          0.000000      0.000000     0.000000    Fractional   0.00
      4 y          0.000000      0.000000     0.000000    Fractional   0.00
      4 z          0.000000      0.000000     0.000000    Fractional   0.00
      5 x          0.500000      0.500000     0.000000    Fractional   0.00
      5 y          0.500000      0.500000     0.000000    Fractional   0.00
      5 z          0.500000      0.500000     0.000000    Fractional   0.00
--------------------------------------------------------------------------------


  Born effective charge tensors : 

-------------------------------------------------------------------------------
  Atom             x           y             z
-------------------------------------------------------------------------------
    1 Cl    x      -1.0190      0.0000      0.0000
            y       0.0000     -1.0190      0.0000
            z       0.0000      0.0000     -1.0190
-------------------------------------------------------------------------------
    2 O     x      -2.2652     -0.0000     -0.0000
            y      -0.0000     -2.2652     -0.0000
            z      -0.0000     -0.0000     -2.2652
-------------------------------------------------------------------------------
    3 Na    x       1.2267      0.0000      0.0000
            y       0.0000      1.2267      0.0000
            z       0.0000     -0.0000      0.8308
-------------------------------------------------------------------------------




  Elastic Constant Matrix: (Units=GPa)

-------------------------------------------------------------------------------
  Indices      1         2         3         4         5         6    
-------------------------------------------------------------------------------
       1     95.9547   20.0541   20.0541   -0.0000    0.0000    0.0000
       2     20.0541   95.9547   20.0541    0.0000   -0.0000    0.0000
       3     20.0541   20.0541   95.9547    0.0000   -0.0000    0.0000
       4     -0.0000    0.0000    0.0000   20.0541    0.0000    0.0000
       5      0.0000   -0.0000   -0.0000    0.0000   20.0541    0.0000
       6      0.0000    0.0000    0.0000    0.0000    0.0000   20.0541
-------------------------------------------------------------------------------


  Elastic Compliance Matrix: (Units=1/GPa)

-------------------------------------------------------------------------------
  Indices      1         2         3         4         5         6    
-------------------------------------------------------------------------------
       1    0.011233 -0.001942 -0.001942  0.000000 -0.000000 -0.000000
       2   -0.001942  0.011233 -0.001942 -0.000000  0.000000 -0.000000
       3   -0.001942 -0.001942  0.011233 -0.000000  0.000000  0.000000
       4    0.000000 -0.000000 -0.000000  0.049865 -0.000000 -0.000000
       5   -0.000000  0.000000  0.000000 -0.000000  0.049865 -0.000000
       6   -0.000000 -0.000000  0.000000 -0.000000 -0.000000  0.049865
-------------------------------------------------------------------------------

  Mechanical properties :

-------------------------------------------------------------------------------
  Convention :                    Reuss         Voigt         Hill
-------------------------------------------------------------------------------
  Bulk  Modulus (GPa)     =      45.35429      45.35429      45.35429
  Shear Modulus (GPa)     =      24.71625      27.21257      25.96441
-------------------------------------------------------------------------------
  Velocity S-wave (km/s)  =       3.36266       3.52839       3.44652
  Velocity P-wave (km/s)  =       5.98547       6.11135       6.04873
-------------------------------------------------------------------------------
  Compressibility (1/GPa) =    0.02204863
-------------------------------------------------------------------------------
  Stress axis :                     x             y             z
-------------------------------------------------------------------------------
  Youngs Moduli (GPa)     =      89.02139      89.02139      89.02139
-------------------------------------------------------------------------------
  Poissons Ratio (x)      =                     0.17287       0.17287
  Poissons Ratio (y)      =       0.17287                     0.17287
  Poissons Ratio (z)      =       0.17287       0.17287
-------------------------------------------------------------------------------


  Piezoelectric Strain Matrix: (Units=C/m**2)

-------------------------------------------------------------------------------
  Indices      1         2         3         4         5         6    
-------------------------------------------------------------------------------
       x    -0.00000  -0.00000  -0.00000   0.00000   0.00000   0.00000
       y     0.00000   0.00000  -0.00000   0.00000   0.00000   0.00000
       z    -0.00000  -0.00000  -0.00000   0.00000   0.00000   0.00000
-------------------------------------------------------------------------------


  Piezoelectric Stress Matrix: (Units=10**-11 C/N)

-------------------------------------------------------------------------------
  Indices      1         2         3         4         5         6    
-------------------------------------------------------------------------------
       x    -0.00000  -0.00000  -0.00000   0.00000   0.00000   0.00000
       y     0.00000   0.00000  -0.00000   0.00000   0.00000   0.00000
       z    -0.00000  -0.00000  -0.00000   0.00000   0.00000   0.00000
-------------------------------------------------------------------------------


  Static dielectric constant tensor : 

-------------------------------------------------------------------------------
              x         y         z
-------------------------------------------------------------------------------
       x    23.97175   0.00000  -0.00000
       y     0.00000  23.97175  -0.00000
       z    -0.00000  -0.00000  23.97175
--------------------------------------------------------------------------------

  High frequency dielectric constant tensor : 

-------------------------------------------------------------------------------
              x         y         z
-------------------------------------------------------------------------------
       x     1.47640  -0.00000   0.00000
       y    -0.00000   1.47640  -0.00000
       z     0.00000  -0.00000   1.47640
-------------------------------------------------------------------------------

  Static refractive indices : 

-------------------------------------------------------------------------------
    1 =    4.89610      2 =    4.89610      3 =    4.89610
-------------------------------------------------------------------------------

  High frequency refractive indices : 

-------------------------------------------------------------------------------
    1 =    1.21507      2 =    1.21507      3 =    1.21507
-------------------------------------------------------------------------------


  Time to end of optimisation =       0.0155 seconds

********************************************************************************
*  Defect calculation for configuration   1 :                                  *
********************************************************************************

  Total number of defects =      1

  Total charge on defect  =  -1.00

  Defect centre is at   0.5000   0.5000   0.0000  Frac

  Region 1 radius =  15.0000      Number of ions =   1078

  Number of symmetry inequivalent region 1 ions  =    112

  Region 2 radius =  24.0000      Number of ions =   3320

  Number of symmetry inequivalent region 2a ions =    272

  Region 2a mode = 4 : screened electrostatics due to region 1 
                       neglect correction to region 1 forces from 2a
                       region 2a displacements based on defects only

  Region 2a ions will only interact with defects in region 1

  Vacancies:

--------------------------------------------------------------------------------
    Specification type     Symbol/Number         x          y          z
--------------------------------------------------------------------------------
    Fractional                               0.500000   0.500000   0.000000
--------------------------------------------------------------------------------


  Symmetry reduced region 1 (Relative to defect centre) :

--------------------------------------------------------------------------------
   No.   Atomic       x            y             z       Radius  Multiplicity   
         Label      (Angs)       (Angs)        (Angs)    (Angs)     
--------------------------------------------------------------------------------
     1  O     c      0.0000       0.0000      -2.2529 *  0.0000     2          
     2  Cl    c      2.2529 *     2.2529       0.0000    0.0000     4          
     3  Na    c      2.2529 *     0.0000      -2.2529 *  0.0000     8          
     4  Na    c      0.0000       0.0000       4.5059 *  0.0000     2          
     5  Na    c      0.0000       4.5059 *     0.0000    0.0000     4          
     6  O     c      0.0000       4.5059 *    -2.2529 *  0.0000     8          
     7  Cl    c      2.2529 *     2.2529       4.5059 *  0.0000     8          
     8  Na    c      2.2529 *     4.5059 *    -2.2529 *  0.0000    16          
     9  Na    c      0.0000       4.5059 *     4.5059 *  0.0000     8          
    10  Na    c      4.5059 *     4.5059       0.0000    0.0000     4          
    11  O     c      0.0000       0.0000       6.7588 *  0.0000     2          
    12  O     c      4.5059 *     4.5059      -2.2529 *  0.0000     8          
    13  Cl    c      2.2529 *     6.7588 *     0.0000    0.0000     8          
    14  Na    c      2.2529 *     0.0000       6.7588 *  0.0000     8          
    15  Na    c      6.7588 *     0.0000      -2.2529 *  0.0000     8          
    16  Na    c      4.5059 *     4.5059       4.5059 *  0.0000     8          
    17  O     c      0.0000       4.5059 *     6.7588 *  0.0000     8          
    18  Cl    c      2.2529 *     6.7588 *     4.5059 *  0.0000    16          
    19  Na    c      2.2529 *     4.5059 *     6.7588 *  0.0000    16          
    20  Na    c      6.7588 *     4.5059 *    -2.2529 *  0.0000    16          
    21  Na    c      0.0000       0.0000       9.0117 *  0.0000     2          
    22  Na    c      0.0000       9.0117 *     0.0000    0.0000     4          
    23  O     c      0.0000       9.0117 *    -2.2529 *  0.0000     8          
    24  O     c      4.5059 *     4.5059       6.7588 *  0.0000     8          
    25  Cl    c      2.2529 *     2.2529       9.0117 *  0.0000     8          
    26  Cl    c      6.7588 *     6.7588       0.0000    0.0000     4          
    27  Na    c      2.2529 *     9.0117 *    -2.2529 *  0.0000    16          
    28  Na    c      6.7588 *     0.0000       6.7588 *  0.0000     8          
    29  Na    c      0.0000       4.5059 *     9.0117 *  0.0000     8          
    30  Na    c      0.0000       9.0117 *     4.5059 *  0.0000     8          
    31  Na    c      4.5059 *     9.0117 *     0.0000    0.0000     8          
    32  O     c      4.5059 *     9.0117 *    -2.2529 *  0.0000    16          
    33  Cl    c      6.7588 *     6.7588       4.5059 *  0.0000     8          
    34  Na    c      6.7588 *     4.5059 *     6.7588 *  0.0000    16          
    35  Na    c      4.5059 *     4.5059       9.0117 *  0.0000     8          
    36  Na    c      4.5059 *     9.0117 *     4.5059 *  0.0000    16          
    37  O     c      0.0000       0.0000      11.2647 *  0.0000     2          
    38  O     c      0.0000       9.0117 *     6.7588 *  0.0000     8          
    39  Cl    c      2.2529 *    11.2647 *     0.0000    0.0000     8          
    40  Na    c      2.2529 *     0.0000      11.2647 *  0.0000     8          
    41  Na    c     11.2647 *     0.0000      -2.2529 *  0.0000     8          
    42  Cl    c      2.2529 *     6.7588 *     9.0117 *  0.0000    16          
    43  Na    c      2.2529 *     9.0117 *     6.7588 *  0.0000    16          
    44  Na    c      6.7588 *     9.0117 *    -2.2529 *  0.0000    16          
    45  O     c      0.0000       4.5059 *    11.2647 *  0.0000     8          
    46  O     c      4.5059 *     9.0117 *     6.7588 *  0.0000    16          
    47  Cl    c      2.2529 *    11.2647 *     4.5059 *  0.0000    16          
    48  Na    c      2.2529 *     4.5059 *    11.2647 *  0.0000    16          
    49  Na    c     11.2647 *     4.5059 *    -2.2529 *  0.0000    16          
    50  Na    c      0.0000       9.0117 *     9.0117 *  0.0000     8          
    51  Na    c      9.0117 *     9.0117       0.0000    0.0000     4          
    52  O     c      4.5059 *     4.5059      11.2647 *  0.0000     8          
    53  O     c      9.0117 *     9.0117      -2.2529 *  0.0000     8          
    54  Cl    c      6.7588 *     6.7588       9.0117 *  0.0000     8          
    55  Cl    c      6.7588 *    11.2647 *     0.0000    0.0000     8          
    56  Na    c      6.7588 *     0.0000      11.2647 *  0.0000     8          
    57  Na    c      6.7588 *     9.0117 *     6.7588 *  0.0000    16          
    58  Na    c     11.2647 *     0.0000       6.7588 *  0.0000     8          
    59  Na    c      0.0000     -13.5176 *     0.0000    0.0000     4          
    60  Na    c      0.0000       0.0000      13.5176 *  0.0000     2          
    61  Na    c      4.5059 *     9.0117 *     9.0117 *  0.0000    16          
    62  Na    c      9.0117 *     9.0117       4.5059 *  0.0000     8          
    63  O     c      0.0000     -13.5176 *    -2.2529 *  0.0000     8          
    64  Na    c      2.2529 *   -13.5176 *    -2.2529 *  0.0000    16          
    65  Na    c      6.7588 *     4.5059 *    11.2647 *  0.0000    16          
    66  Na    c     11.2647 *     4.5059 *     6.7588 *  0.0000    16          
    67  Cl    c      2.2529 *     2.2529      13.5176 *  0.0000     8          
    68  Cl    c      6.7588 *    11.2647 *     4.5059 *  0.0000    16          
    69  Na    c      0.0000     -13.5176 *     4.5059 *  0.0000     8          
    70  Na    c      4.5059 *   -13.5176 *     0.0000    0.0000     8          
    71  Na    c      0.0000       4.5059 *    13.5176 *  0.0000     8          
    72  O     c      0.0000       9.0117 *    11.2647 *  0.0000     8          
    73  O     c      4.5059 *   -13.5176 *    -2.2529 *  0.0000    16          
    74  O     c      9.0117 *     9.0117       6.7588 *  0.0000     8          
    75  Cl    c      2.2529 *    11.2647 *     9.0117 *  0.0000    16          
    76  Na    c      2.2529 *     9.0117 *    11.2647 *  0.0000    16          
    77  Na    c     11.2647 *     9.0117 *    -2.2529 *  0.0000    16          
    78  Na    c      4.5059 *   -13.5176 *     4.5059 *  0.0000    16          
    79  Na    c      4.5059 *     4.5059      13.5176 *  0.0000     8          
    80  O     s      0.0000       0.0000      -2.2529 *  0.0000     2          
    81  Cl    s      2.2529 *     2.2529       0.0000    0.0000     4          
    82  O     s      0.0000       4.5059 *    -2.2529 *  0.0000     8          
    83  Cl    s      2.2529 *     2.2529       4.5059 *  0.0000     8          
    84  O     s      0.0000       0.0000       6.7588 *  0.0000     2          
    85  O     s      4.5059 *     4.5059      -2.2529 *  0.0000     8          
    86  Cl    s      2.2529 *     6.7588 *     0.0000    0.0000     8          
    87  O     s      0.0000       4.5059 *     6.7588 *  0.0000     8          
    88  Cl    s      2.2529 *     6.7588 *     4.5059 *  0.0000    16          
    89  O     s      0.0000       9.0117 *    -2.2529 *  0.0000     8          
    90  O     s      4.5059 *     4.5059       6.7588 *  0.0000     8          
    91  Cl    s      2.2529 *     2.2529       9.0117 *  0.0000     8          
    92  Cl    s      6.7588 *     6.7588       0.0000    0.0000     4          
    93  O     s      4.5059 *     9.0117 *    -2.2529 *  0.0000    16          
    94  Cl    s      6.7588 *     6.7588       4.5059 *  0.0000     8          
    95  O     s      0.0000       0.0000      11.2647 *  0.0000     2          
    96  O     s      0.0000       9.0117 *     6.7588 *  0.0000     8          
    97  Cl    s      2.2529 *    11.2647 *     0.0000    0.0000     8          
    98  Cl    s      2.2529 *     6.7588 *     9.0117 *  0.0000    16          
    99  O     s      0.0000       4.5059 *    11.2647 *  0.0000     8          
   100  O     s      4.5059 *     9.0117 *     6.7588 *  0.0000    16          
   101  Cl    s      2.2529 *    11.2647 *     4.5059 *  0.0000    16          
   102  O     s      4.5059 *     4.5059      11.2647 *  0.0000     8          
   103  O     s      9.0117 *     9.0117      -2.2529 *  0.0000     8          
   104  Cl    s      6.7588 *     6.7588       9.0117 *  0.0000     8          
   105  Cl    s      6.7588 *    11.2647 *     0.0000    0.0000     8          
   106  O     s      0.0000     -13.5176 *    -2.2529 *  0.0000     8          
   107  Cl    s      2.2529 *     2.2529      13.5176 *  0.0000     8          
   108  Cl    s      6.7588 *    11.2647 *     4.5059 *  0.0000    16          
   109  O     s      0.0000       9.0117 *    11.2647 *  0.0000     8          
   110  O     s      4.5059 *   -13.5176 *    -2.2529 *  0.0000    16          
   111  O     s      9.0117 *     9.0117       6.7588 *  0.0000     8          
   112  Cl    s      2.2529 *    11.2647 *     9.0117 *  0.0000    16          
--------------------------------------------------------------------------------


  Constraints on symmetry reduced coordinates :

--------------------------------------------------------------------------------
  Constraint no.      Unconstrained     Constrained    Coefficient    
                         Variable         Variable
--------------------------------------------------------------------------------
           1                 2 x             2 y         1.00000
           2                 7 x             7 y         1.00000
           3                10 x            10 y         1.00000
           4                12 x            12 y         1.00000
           5                16 x            16 y         1.00000
           6                24 x            24 y         1.00000
           7                25 x            25 y         1.00000
           8                26 x            26 y         1.00000
           9                33 x            33 y         1.00000
          10                35 x            35 y         1.00000
          11                51 x            51 y         1.00000
          12                52 x            52 y         1.00000
          13                53 x            53 y         1.00000
          14                54 x            54 y         1.00000
          15                62 x            62 y         1.00000
          16                67 x            67 y         1.00000
          17                74 x            74 y         1.00000
          18                79 x            79 y         1.00000
          19                81 x            81 y         1.00000
          20                83 x            83 y         1.00000
          21                85 x            85 y         1.00000
          22                90 x            90 y         1.00000
          23                91 x            91 y         1.00000
          24                92 x            92 y         1.00000
          25                94 x            94 y         1.00000
          26               102 x           102 y         1.00000
          27               103 x           103 y         1.00000
          28               104 x           104 y         1.00000
          29               107 x           107 y         1.00000
          30               111 x           111 y         1.00000
--------------------------------------------------------------------------------


  Components of defect energy : 

--------------------------------------------------------------------------------
  Region 1 - region 1                   =    -13.93850423 eV
  Region 1 - region 2a (unrelaxed)      =     22.50563070 eV
  Region 1 - 2a (relaxed - correction)  =     -0.34152551 eV
  Region 1 (Total)                      =      8.22560095 eV
  Region 2a                             =      0.17072399 eV
  Region 2b                             =     -0.28886388 eV
--------------------------------------------------------------------------------
  Total defect energy                   =      8.10746107 eV
--------------------------------------------------------------------------------

  Largest displacement in region 2 =   0.0130 Angstroms


  Number of variables =      240

  Maximum number of calculations  =        1000
  Maximum Hessian update interval =          10
  Maximum step size               =   1.0000000
  Maximum parameter tolerance     =   0.0000100
  Maximum function  tolerance     =   0.0000100
  Maximum gradient  tolerance     =   0.0010000

  Symmetry adapted optimisation

  Symmetry to be used for second derivatives

  Newton-Raphson optimiser to be used

  BFGS hessian update to be used

  Lower half triangular hessian to be used

  Start of defect optimisation :

  Cycle:      0 Defect Energy:   8.107461  Gnorm:     0.162748  CPU:    4.331
  ** Hessian calculated **
  Cycle:      1 Defect Energy:   6.479982  Gnorm:     0.116913  CPU:    9.584
  Cycle:      2 Defect Energy:   5.248806  Gnorm:     0.054944  CPU:   13.622
  Cycle:      3 Defect Energy:   4.923140  Gnorm:     0.020503  CPU:   17.604
  Cycle:      4 Defect Energy:   4.834222  Gnorm:     0.006453  CPU:   20.455
  Cycle:      5 Defect Energy:   4.833832  Gnorm:     0.005062  CPU:   20.939
  ** Hessian calculated **
  Cycle:      6 Defect Energy:   4.828289  Gnorm:     0.004917  CPU:   22.842
  Cycle:      7 Defect Energy:   4.819697  Gnorm:     0.004793  CPU:   23.755
  ** Hessian calculated **
  Cycle:      8 Defect Energy:   4.817881  Gnorm:     0.002115  CPU:   25.933
  Cycle:      9 Defect Energy:   4.816785  Gnorm:     0.001494  CPU:   26.894
  Cycle:     10 Defect Energy:   4.815641  Gnorm:     0.001197  CPU:   27.887
  Cycle:     11 Defect Energy:   4.814103  Gnorm:     0.001258  CPU:   28.790
  Cycle:     12 Defect Energy:   4.812208  Gnorm:     0.001602  CPU:   29.691
  Cycle:     13 Defect Energy:   4.809491  Gnorm:     0.002293  CPU:   30.589
  Cycle:     14 Defect Energy:   4.805778  Gnorm:     0.003051  CPU:   31.581
  Cycle:     15 Defect Energy:   4.800161  Gnorm:     0.004204  CPU:   32.480
  Cycle:     16 Defect Energy:   4.791111  Gnorm:     0.005691  CPU:   33.357
  ** Hessian calculated **
  Cycle:     17 Defect Energy:   4.787504  Gnorm:     0.003728  CPU:   35.354
  Cycle:     18 Defect Energy:   4.784064  Gnorm:     0.003117  CPU:   36.071
  Cycle:     19 Defect Energy:   4.780350  Gnorm:     0.002843  CPU:   37.109
  Cycle:     20 Defect Energy:   4.775908  Gnorm:     0.003119  CPU:   38.155
  Cycle:     21 Defect Energy:   4.769689  Gnorm:     0.003723  CPU:   39.034
  Cycle:     22 Defect Energy:   4.760918  Gnorm:     0.005006  CPU:   39.787
  Cycle:     23 Defect Energy:   4.747476  Gnorm:     0.006891  CPU:   40.425
  Cycle:     24 Defect Energy:   4.726964  Gnorm:     0.010055  CPU:   41.320
  Cycle:     25 Defect Energy:   4.696857  Gnorm:     0.015120  CPU:   42.245
  ** Hessian calculated **
  Cycle:     26 Defect Energy:   4.664560  Gnorm:     0.010250  CPU:   44.109
  Cycle:     27 Defect Energy:   4.632273  Gnorm:     0.007905  CPU:   44.625
  Cycle:     28 Defect Energy:   4.598692  Gnorm:     0.006598  CPU:   45.326
  Cycle:     29 Defect Energy:   4.559022  Gnorm:     0.006951  CPU:   45.957
  Cycle:     30 Defect Energy:   4.509120  Gnorm:     0.009018  CPU:   46.484
  Cycle:     31 Defect Energy:   4.440445  Gnorm:     0.012409  CPU:   47.085
  Cycle:     32 Defect Energy:   4.350340  Gnorm:     0.016626  CPU:   47.924
  Cycle:     33 Defect Energy:   4.280164  Gnorm:     0.020542  CPU:   48.844
  Cycle:     34 Defect Energy:   4.207510  Gnorm:     0.023053  CPU:   51.739
  Cycle:     35 Defect Energy:   4.071131  Gnorm:     0.026536  CPU:   60.856
  ** Hessian calculated **
  Cycle:     36 Defect Energy:   3.904355  Gnorm:     0.022185  CPU:   67.656
  Cycle:     37 Defect Energy:   3.701031  Gnorm:     0.012782  CPU:   72.162
  Cycle:     38 Defect Energy:   3.660132  Gnorm:     0.008133  CPU:   72.807
  Cycle:     39 Defect Energy:   3.644346  Gnorm:     0.005827  CPU:   73.440
  Cycle:     40 Defect Energy:   3.643108  Gnorm:     0.004473  CPU:   74.064
  ** Hessian calculated **
  Cycle:     41 Defect Energy:   3.635879  Gnorm:     0.003142  CPU:   75.530
  Cycle:     42 Defect Energy:   3.632203  Gnorm:     0.002212  CPU:   76.058
  Cycle:     43 Defect Energy:   3.630227  Gnorm:     0.001546  CPU:   76.626
  Cycle:     44 Defect Energy:   3.629140  Gnorm:     0.001074  CPU:   77.196
  Cycle:     45 Defect Energy:   3.628525  Gnorm:     0.000739  CPU:   77.726
  Cycle:     46 Defect Energy:   3.628169  Gnorm:     0.000504  CPU:   78.298
  Cycle:     47 Defect Energy:   3.627957  Gnorm:     0.000339  CPU:   78.870
  Cycle:     48 Defect Energy:   3.627828  Gnorm:     0.000227  CPU:   79.428
  Cycle:     49 Defect Energy:   3.627750  Gnorm:     0.000152  CPU:   80.070
  Cycle:     50 Defect Energy:   3.627702  Gnorm:     0.000105  CPU:   80.613
  ** Hessian calculated **
  Cycle:     51 Defect Energy:   3.627667  Gnorm:     0.000078  CPU:   81.874
  Cycle:     52 Defect Energy:   3.627651  Gnorm:     0.000061  CPU:   82.412


  **** Optimisation achieved ****


  Final defect energy  =        3.62764342
  Final defect Gnorm   =        0.00004813

  Components of defect energy : 

--------------------------------------------------------------------------------
  Region 1 - region 1                   =    -16.74628144 eV
  Region 1 - region 2a (unrelaxed)      =     20.80250446 eV
  Region 1 - 2a (relaxed - correction)  =     -0.27924167 eV
  Region 1 (Total)                      =      3.77698136 eV
  Region 2a                             =      0.13952594 eV
  Region 2b                             =     -0.28886388 eV
--------------------------------------------------------------------------------
  Total defect energy                   =      3.62764342 eV
--------------------------------------------------------------------------------

  Largest displacement in region 2 =   0.0130 Angstroms

  Final coordinates of region 1 :

--------------------------------------------------------------------------------
   No.  Atomic        x           y           z          Radius      Charge
        Label       (Angs)      (Angs)      (Angs)       (Angs)       (e) 
--------------------------------------------------------------------------------
     1  O     c     2.252937    2.252937   -2.314994    0.000000    0.183000
     2  O     c     2.252937    2.252937    2.314994    0.000000    0.183000
     3  Cl    c     4.634533    4.634533    0.000000    0.000000    1.485000
     4  Cl    c     4.634533   -0.128658    0.000000    0.000000    1.485000
     5  Cl    c    -0.128658    4.634533    0.000000    0.000000    1.485000
     6  Cl    c    -0.128658   -0.128658    0.000000    0.000000    1.485000
     7  Na    c     4.432406    2.252937   -1.839884    0.000000    1.000000
     8  Na    c     4.432406    2.252937    1.839884    0.000000    1.000000
     9  Na    c     0.073469    2.252937   -1.839884    0.000000    1.000000
    10  Na    c     0.073469    2.252937    1.839884    0.000000    1.000000
    11  Na    c     2.252937    4.432406   -1.839884    0.000000    1.000000
    12  Na    c     2.252937    4.432406    1.839884    0.000000    1.000000
    13  Na    c     2.252937    0.073469   -1.839884    0.000000    1.000000
    14  Na    c     2.252937    0.073469    1.839884    0.000000    1.000000
    15  Na    c     2.252937    2.252937    4.516578    0.000000    1.000000
    16  Na    c     2.252937    2.252937   -4.516578    0.000000    1.000000
    17  Na    c     2.252937    7.152060    0.000000    0.000000    1.000000
    18  Na    c     2.252937   -2.646185    0.000000    0.000000    1.000000
    19  Na    c     7.152060    2.252937    0.000000    0.000000    1.000000
    20  Na    c    -2.646185    2.252937    0.000000    0.000000    1.000000
    21  O     c     2.252937    6.736104   -2.221476    0.000000    0.183000
    22  O     c     2.252937    6.736104    2.221476    0.000000    0.183000
    23  O     c     2.252937   -2.230229   -2.221476    0.000000    0.183000
    24  O     c     2.252937   -2.230229    2.221476    0.000000    0.183000
    25  O     c     6.736104    2.252937   -2.221476    0.000000    0.183000
    26  O     c     6.736104    2.252937    2.221476    0.000000    0.183000
    27  O     c    -2.230229    2.252937   -2.221476    0.000000    0.183000
    28  O     c    -2.230229    2.252937    2.221476    0.000000    0.183000
    29  Cl    c     4.543267    4.543267    4.688469    0.000000    1.485000
    30  Cl    c     4.543267    4.543267   -4.688469    0.000000    1.485000
    31  Cl    c     4.543267   -0.037392    4.688469    0.000000    1.485000
    32  Cl    c     4.543267   -0.037392   -4.688469    0.000000    1.485000
    33  Cl    c    -0.037392    4.543267    4.688469    0.000000    1.485000
    34  Cl    c    -0.037392    4.543267   -4.688469    0.000000    1.485000
    35  Cl    c    -0.037392   -0.037392    4.688469    0.000000    1.485000
    36  Cl    c    -0.037392   -0.037392   -4.688469    0.000000    1.485000
    37  Na    c     4.512608    6.763572   -2.074798    0.000000    1.000000
    38  Na    c     4.512608    6.763572    2.074798    0.000000    1.000000
    39  Na    c     4.512608   -2.257697   -2.074798    0.000000    1.000000
    40  Na    c     4.512608   -2.257697    2.074798    0.000000    1.000000
    41  Na    c    -0.006733    6.763572   -2.074798    0.000000    1.000000
    42  Na    c    -0.006733    6.763572    2.074798    0.000000    1.000000
    43  Na    c    -0.006733   -2.257697   -2.074798    0.000000    1.000000
    44  Na    c    -0.006733   -2.257697    2.074798    0.000000    1.000000
    45  Na    c     6.763572    4.512608   -2.074798    0.000000    1.000000
    46  Na    c     6.763572    4.512608    2.074798    0.000000    1.000000
    47  Na    c     6.763572   -0.006733   -2.074798    0.000000    1.000000
    48  Na    c     6.763572   -0.006733    2.074798    0.000000    1.000000
    49  Na    c    -2.257697    4.512608   -2.074798    0.000000    1.000000
    50  Na    c    -2.257697    4.512608    2.074798    0.000000    1.000000
    51  Na    c    -2.257697   -0.006733   -2.074798    0.000000    1.000000
    52  Na    c    -2.257697   -0.006733    2.074798    0.000000    1.000000
    53  Na    c     2.252937    6.334981    4.467561    0.000000    1.000000
    54  Na    c     2.252937    6.334981   -4.467561    0.000000    1.000000
    55  Na    c     2.252937   -1.829107    4.467561    0.000000    1.000000
    56  Na    c     2.252937   -1.829107   -4.467561    0.000000    1.000000
    57  Na    c     6.334981    2.252937    4.467561    0.000000    1.000000
    58  Na    c     6.334981    2.252937   -4.467561    0.000000    1.000000
    59  Na    c    -1.829107    2.252937    4.467561    0.000000    1.000000
    60  Na    c    -1.829107    2.252937   -4.467561    0.000000    1.000000
    61  Na    c     6.972850    6.972850    0.000000    0.000000    1.000000
    62  Na    c     6.972850   -2.466975    0.000000    0.000000    1.000000
    63  Na    c    -2.466975    6.972850    0.000000    0.000000    1.000000
    64  Na    c    -2.466975   -2.466975    0.000000    0.000000    1.000000
    65  O     c     2.252937    2.252937    6.809132    0.000000    0.183000
    66  O     c     2.252937    2.252937   -6.809132    0.000000    0.183000
    67  O     c     6.773505    6.773505   -2.276600    0.000000    0.183000
    68  O     c     6.773505    6.773505    2.276600    0.000000    0.183000
    69  O     c     6.773505   -2.267630   -2.276600    0.000000    0.183000
    70  O     c     6.773505   -2.267630    2.276600    0.000000    0.183000
    71  O     c    -2.267630    6.773505   -2.276600    0.000000    0.183000
    72  O     c    -2.267630    6.773505    2.276600    0.000000    0.183000
    73  O     c    -2.267630   -2.267630   -2.276600    0.000000    0.183000
    74  O     c    -2.267630   -2.267630    2.276600    0.000000    0.183000
    75  Cl    c     4.514517    9.003582    0.000000    0.000000    1.485000
    76  Cl    c     4.514517   -4.497707    0.000000    0.000000    1.485000
    77  Cl    c     9.003582    4.514517    0.000000    0.000000    1.485000
    78  Cl    c     9.003582   -0.008642    0.000000    0.000000    1.485000
    79  Cl    c    -0.008642    9.003582    0.000000    0.000000    1.485000
    80  Cl    c    -0.008642   -4.497707    0.000000    0.000000    1.485000
    81  Cl    c    -4.497707    4.514517    0.000000    0.000000    1.485000
    82  Cl    c    -4.497707   -0.008642    0.000000    0.000000    1.485000
    83  Na    c     4.509386    2.252937    6.881787    0.000000    1.000000
    84  Na    c     4.509386    2.252937   -6.881787    0.000000    1.000000
    85  Na    c    -0.003511    2.252937    6.881787    0.000000    1.000000
    86  Na    c    -0.003511    2.252937   -6.881787    0.000000    1.000000
    87  Na    c     2.252937    4.509386    6.881787    0.000000    1.000000
    88  Na    c     2.252937    4.509386   -6.881787    0.000000    1.000000
    89  Na    c     2.252937   -0.003511    6.881787    0.000000    1.000000
    90  Na    c     2.252937   -0.003511   -6.881787    0.000000    1.000000
    91  Na    c     8.982725    2.252937   -2.667327    0.000000    1.000000
    92  Na    c     8.982725    2.252937    2.667327    0.000000    1.000000
    93  Na    c    -4.476850    2.252937   -2.667327    0.000000    1.000000
    94  Na    c    -4.476850    2.252937    2.667327    0.000000    1.000000
    95  Na    c     2.252937    8.982725   -2.667327    0.000000    1.000000
    96  Na    c     2.252937    8.982725    2.667327    0.000000    1.000000
    97  Na    c     2.252937   -4.476850   -2.667327    0.000000    1.000000
    98  Na    c     2.252937   -4.476850    2.667327    0.000000    1.000000
    99  Na    c     6.509747    6.509747    4.501719    0.000000    1.000000
   100  Na    c     6.509747    6.509747   -4.501719    0.000000    1.000000
   101  Na    c     6.509747   -2.003872    4.501719    0.000000    1.000000
   102  Na    c     6.509747   -2.003872   -4.501719    0.000000    1.000000
   103  Na    c    -2.003872    6.509747    4.501719    0.000000    1.000000
   104  Na    c    -2.003872    6.509747   -4.501719    0.000000    1.000000
   105  Na    c    -2.003872   -2.003872    4.501719    0.000000    1.000000
   106  Na    c    -2.003872   -2.003872   -4.501719    0.000000    1.000000
   107  O     c     2.252937    6.773763    6.733297    0.000000    0.183000
   108  O     c     2.252937    6.773763   -6.733297    0.000000    0.183000
   109  O     c     2.252937   -2.267888    6.733297    0.000000    0.183000
   110  O     c     2.252937   -2.267888   -6.733297    0.000000    0.183000
   111  O     c     6.773763    2.252937    6.733297    0.000000    0.183000
   112  O     c     6.773763    2.252937   -6.733297    0.000000    0.183000
   113  O     c    -2.267888    2.252937    6.733297    0.000000    0.183000
   114  O     c    -2.267888    2.252937   -6.733297    0.000000    0.183000
   115  Cl    c     4.542632    9.034004    4.503984    0.000000    1.485000
   116  Cl    c     4.542632    9.034004   -4.503984    0.000000    1.485000
   117  Cl    c     4.542632   -4.528129    4.503984    0.000000    1.485000
   118  Cl    c     4.542632   -4.528129   -4.503984    0.000000    1.485000
   119  Cl    c     9.034004    4.542632    4.503984    0.000000    1.485000
   120  Cl    c     9.034004    4.542632   -4.503984    0.000000    1.485000
   121  Cl    c     9.034004   -0.036757    4.503984    0.000000    1.485000
   122  Cl    c     9.034004   -0.036757   -4.503984    0.000000    1.485000
   123  Cl    c    -0.036757    9.034004    4.503984    0.000000    1.485000
   124  Cl    c    -0.036757    9.034004   -4.503984    0.000000    1.485000
   125  Cl    c    -0.036757   -4.528129    4.503984    0.000000    1.485000
   126  Cl    c    -0.036757   -4.528129   -4.503984    0.000000    1.485000
   127  Cl    c    -4.528129    4.542632    4.503984    0.000000    1.485000
   128  Cl    c    -4.528129    4.542632   -4.503984    0.000000    1.485000
   129  Cl    c    -4.528129   -0.036757    4.503984    0.000000    1.485000
   130  Cl    c    -4.528129   -0.036757   -4.503984    0.000000    1.485000
   131  Na    c     4.510880    6.756097    6.834549    0.000000    1.000000
   132  Na    c     4.510880    6.756097   -6.834549    0.000000    1.000000
   133  Na    c     4.510880   -2.250223    6.834549    0.000000    1.000000
   134  Na    c     4.510880   -2.250223   -6.834549    0.000000    1.000000
   135  Na    c    -0.005005    6.756097    6.834549    0.000000    1.000000
   136  Na    c    -0.005005    6.756097   -6.834549    0.000000    1.000000
   137  Na    c    -0.005005   -2.250223    6.834549    0.000000    1.000000
   138  Na    c    -0.005005   -2.250223   -6.834549    0.000000    1.000000
   139  Na    c     6.756097    4.510880    6.834549    0.000000    1.000000
   140  Na    c     6.756097    4.510880   -6.834549    0.000000    1.000000
   141  Na    c     6.756097   -0.005005    6.834549    0.000000    1.000000
   142  Na    c     6.756097   -0.005005   -6.834549    0.000000    1.000000
   143  Na    c    -2.250223    4.510880    6.834549    0.000000    1.000000
   144  Na    c    -2.250223    4.510880   -6.834549    0.000000    1.000000
   145  Na    c    -2.250223   -0.005005    6.834549    0.000000    1.000000
   146  Na    c    -2.250223   -0.005005   -6.834549    0.000000    1.000000
   147  Na    c     9.015377    6.762056   -2.570467    0.000000    1.000000
   148  Na    c     9.015377    6.762056    2.570467    0.000000    1.000000
   149  Na    c     9.015377   -2.256181   -2.570467    0.000000    1.000000
   150  Na    c     9.015377   -2.256181    2.570467    0.000000    1.000000
   151  Na    c    -4.509502    6.762056   -2.570467    0.000000    1.000000
   152  Na    c    -4.509502    6.762056    2.570467    0.000000    1.000000
   153  Na    c    -4.509502   -2.256181   -2.570467    0.000000    1.000000
   154  Na    c    -4.509502   -2.256181    2.570467    0.000000    1.000000
   155  Na    c     6.762056    9.015377   -2.570467    0.000000    1.000000
   156  Na    c     6.762056    9.015377    2.570467    0.000000    1.000000
   157  Na    c     6.762056   -4.509502   -2.570467    0.000000    1.000000
   158  Na    c     6.762056   -4.509502    2.570467    0.000000    1.000000
   159  Na    c    -2.256181    9.015377   -2.570467    0.000000    1.000000
   160  Na    c    -2.256181    9.015377    2.570467    0.000000    1.000000
   161  Na    c    -2.256181   -4.509502   -2.570467    0.000000    1.000000
   162  Na    c    -2.256181   -4.509502    2.570467    0.000000    1.000000
   163  Na    c     2.252937    2.252937    9.027982    0.000000    1.000000
   164  Na    c     2.252937    2.252937   -9.027982    0.000000    1.000000
   165  Na    c     2.252937   10.855327    0.000000    0.000000    1.000000
   166  Na    c     2.252937   -6.349452    0.000000    0.000000    1.000000
   167  Na    c    10.855327    2.252937    0.000000    0.000000    1.000000
   168  Na    c    -6.349452    2.252937    0.000000    0.000000    1.000000
   169  O     c     2.252937   11.234615   -2.249370    0.000000    0.183000
   170  O     c     2.252937   11.234615    2.249370    0.000000    0.183000
   171  O     c     2.252937   -6.728740   -2.249370    0.000000    0.183000
   172  O     c     2.252937   -6.728740    2.249370    0.000000    0.183000
   173  O     c    11.234615    2.252937   -2.249370    0.000000    0.183000
   174  O     c    11.234615    2.252937    2.249370    0.000000    0.183000
   175  O     c    -6.728740    2.252937   -2.249370    0.000000    0.183000
   176  O     c    -6.728740    2.252937    2.249370    0.000000    0.183000
   177  O     c     6.779367    6.779367    6.730292    0.000000    0.183000
   178  O     c     6.779367    6.779367   -6.730292    0.000000    0.183000
   179  O     c     6.779367   -2.273492    6.730292    0.000000    0.183000
   180  O     c     6.779367   -2.273492   -6.730292    0.000000    0.183000
   181  O     c    -2.273492    6.779367    6.730292    0.000000    0.183000
   182  O     c    -2.273492    6.779367   -6.730292    0.000000    0.183000
   183  O     c    -2.273492   -2.273492    6.730292    0.000000    0.183000
   184  O     c    -2.273492   -2.273492   -6.730292    0.000000    0.183000
   185  Cl    c     4.485452    4.485452    9.040830    0.000000    1.485000
   186  Cl    c     4.485452    4.485452   -9.040830    0.000000    1.485000
   187  Cl    c     4.485452    0.020423    9.040830    0.000000    1.485000
   188  Cl    c     4.485452    0.020423   -9.040830    0.000000    1.485000
   189  Cl    c     0.020423    4.485452    9.040830    0.000000    1.485000
   190  Cl    c     0.020423    4.485452   -9.040830    0.000000    1.485000
   191  Cl    c     0.020423    0.020423    9.040830    0.000000    1.485000
   192  Cl    c     0.020423    0.020423   -9.040830    0.000000    1.485000
   193  Cl    c     9.065463    9.065463    0.000000    0.000000    1.485000
   194  Cl    c     9.065463   -4.559588    0.000000    0.000000    1.485000
   195  Cl    c    -4.559588    9.065463    0.000000    0.000000    1.485000
   196  Cl    c    -4.559588   -4.559588    0.000000    0.000000    1.485000
   197  Na    c     4.506361   11.229191   -2.222014    0.000000    1.000000
   198  Na    c     4.506361   11.229191    2.222014    0.000000    1.000000
   199  Na    c     4.506361   -6.723316   -2.222014    0.000000    1.000000
   200  Na    c     4.506361   -6.723316    2.222014    0.000000    1.000000
   201  Na    c    -0.000486   11.229191   -2.222014    0.000000    1.000000
   202  Na    c    -0.000486   11.229191    2.222014    0.000000    1.000000
   203  Na    c    -0.000486   -6.723316   -2.222014    0.000000    1.000000
   204  Na    c    -0.000486   -6.723316    2.222014    0.000000    1.000000
   205  Na    c    11.229191    4.506361   -2.222014    0.000000    1.000000
   206  Na    c    11.229191    4.506361    2.222014    0.000000    1.000000
   207  Na    c    11.229191   -0.000486   -2.222014    0.000000    1.000000
   208  Na    c    11.229191   -0.000486    2.222014    0.000000    1.000000
   209  Na    c    -6.723316    4.506361   -2.222014    0.000000    1.000000
   210  Na    c    -6.723316    4.506361    2.222014    0.000000    1.000000
   211  Na    c    -6.723316   -0.000486   -2.222014    0.000000    1.000000
   212  Na    c    -6.723316   -0.000486    2.222014    0.000000    1.000000
   213  Na    c     9.002536    2.252937    6.365468    0.000000    1.000000
   214  Na    c     9.002536    2.252937   -6.365468    0.000000    1.000000
   215  Na    c    -4.496661    2.252937    6.365468    0.000000    1.000000
   216  Na    c    -4.496661    2.252937   -6.365468    0.000000    1.000000
   217  Na    c     2.252937    9.002536    6.365468    0.000000    1.000000
   218  Na    c     2.252937    9.002536   -6.365468    0.000000    1.000000
   219  Na    c     2.252937   -4.496661    6.365468    0.000000    1.000000
   220  Na    c     2.252937   -4.496661   -6.365468    0.000000    1.000000
   221  Na    c     2.252937    7.017835    8.980312    0.000000    1.000000
   222  Na    c     2.252937    7.017835   -8.980312    0.000000    1.000000
   223  Na    c     2.252937   -2.511960    8.980312    0.000000    1.000000
   224  Na    c     2.252937   -2.511960   -8.980312    0.000000    1.000000
   225  Na    c     7.017835    2.252937    8.980312    0.000000    1.000000
   226  Na    c     7.017835    2.252937   -8.980312    0.000000    1.000000
   227  Na    c    -2.511960    2.252937    8.980312    0.000000    1.000000
   228  Na    c    -2.511960    2.252937   -8.980312    0.000000    1.000000
   229  Na    c     2.252937   11.642473    4.486548    0.000000    1.000000
   230  Na    c     2.252937   11.642473   -4.486548    0.000000    1.000000
   231  Na    c     2.252937   -7.136598    4.486548    0.000000    1.000000
   232  Na    c     2.252937   -7.136598   -4.486548    0.000000    1.000000
   233  Na    c    11.642473    2.252937    4.486548    0.000000    1.000000
   234  Na    c    11.642473    2.252937   -4.486548    0.000000    1.000000
   235  Na    c    -7.136598    2.252937    4.486548    0.000000    1.000000
   236  Na    c    -7.136598    2.252937   -4.486548    0.000000    1.000000
   237  Na    c     6.803264   10.917033    0.000000    0.000000    1.000000
   238  Na    c     6.803264   -6.411158    0.000000    0.000000    1.000000
   239  Na    c    10.917033    6.803264    0.000000    0.000000    1.000000
   240  Na    c    10.917033   -2.297389    0.000000    0.000000    1.000000
   241  Na    c    -2.297389   10.917033    0.000000    0.000000    1.000000
   242  Na    c    -2.297389   -6.411158    0.000000    0.000000    1.000000
   243  Na    c    -6.411158    6.803264    0.000000    0.000000    1.000000
   244  Na    c    -6.411158   -2.297389    0.000000    0.000000    1.000000
   245  O     c     6.760814   11.261200   -2.245748    0.000000    0.183000
   246  O     c     6.760814   11.261200    2.245748    0.000000    0.183000
   247  O     c     6.760814   -6.755325   -2.245748    0.000000    0.183000
   248  O     c     6.760814   -6.755325    2.245748    0.000000    0.183000
   249  O     c    11.261200    6.760814   -2.245748    0.000000    0.183000
   250  O     c    11.261200    6.760814    2.245748    0.000000    0.183000
   251  O     c    11.261200   -2.254939   -2.245748    0.000000    0.183000
   252  O     c    11.261200   -2.254939    2.245748    0.000000    0.183000
   253  O     c    -2.254939   11.261200   -2.245748    0.000000    0.183000
   254  O     c    -2.254939   11.261200    2.245748    0.000000    0.183000
   255  O     c    -2.254939   -6.755325   -2.245748    0.000000    0.183000
   256  O     c    -2.254939   -6.755325    2.245748    0.000000    0.183000
   257  O     c    -6.755325    6.760814   -2.245748    0.000000    0.183000
   258  O     c    -6.755325    6.760814    2.245748    0.000000    0.183000
   259  O     c    -6.755325   -2.254939   -2.245748    0.000000    0.183000
   260  O     c    -6.755325   -2.254939    2.245748    0.000000    0.183000
   261  Cl    c     9.043744    9.043744    4.504128    0.000000    1.485000
   262  Cl    c     9.043744    9.043744   -4.504128    0.000000    1.485000
   263  Cl    c     9.043744   -4.537869    4.504128    0.000000    1.485000
   264  Cl    c     9.043744   -4.537869   -4.504128    0.000000    1.485000
   265  Cl    c    -4.537869    9.043744    4.504128    0.000000    1.485000
   266  Cl    c    -4.537869    9.043744   -4.504128    0.000000    1.485000
   267  Cl    c    -4.537869   -4.537869    4.504128    0.000000    1.485000
   268  Cl    c    -4.537869   -4.537869   -4.504128    0.000000    1.485000
   269  Na    c     9.025683    6.778915    6.473549    0.000000    1.000000
   270  Na    c     9.025683    6.778915   -6.473549    0.000000    1.000000
   271  Na    c     9.025683   -2.273040    6.473549    0.000000    1.000000
   272  Na    c     9.025683   -2.273040   -6.473549    0.000000    1.000000
   273  Na    c    -4.519808    6.778915    6.473549    0.000000    1.000000
   274  Na    c    -4.519808    6.778915   -6.473549    0.000000    1.000000
   275  Na    c    -4.519808   -2.273040    6.473549    0.000000    1.000000
   276  Na    c    -4.519808   -2.273040   -6.473549    0.000000    1.000000
   277  Na    c     6.778915    9.025683    6.473549    0.000000    1.000000
   278  Na    c     6.778915    9.025683   -6.473549    0.000000    1.000000
   279  Na    c     6.778915   -4.519808    6.473549    0.000000    1.000000
   280  Na    c     6.778915   -4.519808   -6.473549    0.000000    1.000000
   281  Na    c    -2.273040    9.025683    6.473549    0.000000    1.000000
   282  Na    c    -2.273040    9.025683   -6.473549    0.000000    1.000000
   283  Na    c    -2.273040   -4.519808    6.473549    0.000000    1.000000
   284  Na    c    -2.273040   -4.519808   -6.473549    0.000000    1.000000
   285  Na    c     6.953830    6.953830    8.978961    0.000000    1.000000
   286  Na    c     6.953830    6.953830   -8.978961    0.000000    1.000000
   287  Na    c     6.953830   -2.447956    8.978961    0.000000    1.000000
   288  Na    c     6.953830   -2.447956   -8.978961    0.000000    1.000000
   289  Na    c    -2.447956    6.953830    8.978961    0.000000    1.000000
   290  Na    c    -2.447956    6.953830   -8.978961    0.000000    1.000000
   291  Na    c    -2.447956   -2.447956    8.978961    0.000000    1.000000
   292  Na    c    -2.447956   -2.447956   -8.978961    0.000000    1.000000
   293  Na    c     6.727476   11.593535    4.490176    0.000000    1.000000
   294  Na    c     6.727476   11.593535   -4.490176    0.000000    1.000000
   295  Na    c     6.727476   -7.087660    4.490176    0.000000    1.000000
   296  Na    c     6.727476   -7.087660   -4.490176    0.000000    1.000000
   297  Na    c    11.593535    6.727476    4.490176    0.000000    1.000000
   298  Na    c    11.593535    6.727476   -4.490176    0.000000    1.000000
   299  Na    c    11.593535   -2.221601    4.490176    0.000000    1.000000
   300  Na    c    11.593535   -2.221601   -4.490176    0.000000    1.000000
   301  Na    c    -2.221601   11.593535    4.490176    0.000000    1.000000
   302  Na    c    -2.221601   11.593535   -4.490176    0.000000    1.000000
   303  Na    c    -2.221601   -7.087660    4.490176    0.000000    1.000000
   304  Na    c    -2.221601   -7.087660   -4.490176    0.000000    1.000000
   305  Na    c    -7.087660    6.727476    4.490176    0.000000    1.000000
   306  Na    c    -7.087660    6.727476   -4.490176    0.000000    1.000000
   307  Na    c    -7.087660   -2.221601    4.490176    0.000000    1.000000
   308  Na    c    -7.087660   -2.221601   -4.490176    0.000000    1.000000
   309  O     c     2.252937    2.252937   11.256589    0.000000    0.183000
   310  O     c     2.252937    2.252937  -11.256589    0.000000    0.183000
   311  O     c     2.252937   11.253625    6.730616    0.000000    0.183000
   312  O     c     2.252937   11.253625   -6.730616    0.000000    0.183000
   313  O     c     2.252937   -6.747750    6.730616    0.000000    0.183000
   314  O     c     2.252937   -6.747750   -6.730616    0.000000    0.183000
   315  O     c    11.253625    2.252937    6.730616    0.000000    0.183000
   316  O     c    11.253625    2.252937   -6.730616    0.000000    0.183000
   317  O     c    -6.747750    2.252937    6.730616    0.000000    0.183000
   318  O     c    -6.747750    2.252937   -6.730616    0.000000    0.183000
   319  Cl    c     4.507672   13.551173    0.000000    0.000000    1.485000
   320  Cl    c     4.507672   -9.045298    0.000000    0.000000    1.485000
   321  Cl    c    13.551173    4.507672    0.000000    0.000000    1.485000
   322  Cl    c    13.551173   -0.001797    0.000000    0.000000    1.485000
   323  Cl    c    -0.001797   13.551173    0.000000    0.000000    1.485000
   324  Cl    c    -0.001797   -9.045298    0.000000    0.000000    1.485000
   325  Cl    c    -9.045298    4.507672    0.000000    0.000000    1.485000
   326  Cl    c    -9.045298   -0.001797    0.000000    0.000000    1.485000
   327  Na    c     4.516872    2.252937   11.151627    0.000000    1.000000
   328  Na    c     4.516872    2.252937  -11.151627    0.000000    1.000000
   329  Na    c    -0.010997    2.252937   11.151627    0.000000    1.000000
   330  Na    c    -0.010997    2.252937  -11.151627    0.000000    1.000000
   331  Na    c     2.252937    4.516872   11.151627    0.000000    1.000000
   332  Na    c     2.252937    4.516872  -11.151627    0.000000    1.000000
   333  Na    c     2.252937   -0.010997   11.151627    0.000000    1.000000
   334  Na    c     2.252937   -0.010997  -11.151627    0.000000    1.000000
   335  Na    c    13.493290    2.252937   -1.948730    0.000000    1.000000
   336  Na    c    13.493290    2.252937    1.948730    0.000000    1.000000
   337  Na    c    -8.987415    2.252937   -1.948730    0.000000    1.000000
   338  Na    c    -8.987415    2.252937    1.948730    0.000000    1.000000
   339  Na    c     2.252937   13.493290   -1.948730    0.000000    1.000000
   340  Na    c     2.252937   13.493290    1.948730    0.000000    1.000000
   341  Na    c     2.252937   -8.987415   -1.948730    0.000000    1.000000
   342  Na    c     2.252937   -8.987415    1.948730    0.000000    1.000000
   343  Cl    c     4.511397    9.026981    9.048079    0.000000    1.485000
   344  Cl    c     4.511397    9.026981   -9.048079    0.000000    1.485000
   345  Cl    c     4.511397   -4.521106    9.048079    0.000000    1.485000
   346  Cl    c     4.511397   -4.521106   -9.048079    0.000000    1.485000
   347  Cl    c     9.026981    4.511397    9.048079    0.000000    1.485000
   348  Cl    c     9.026981    4.511397   -9.048079    0.000000    1.485000
   349  Cl    c     9.026981   -0.005522    9.048079    0.000000    1.485000
   350  Cl    c     9.026981   -0.005522   -9.048079    0.000000    1.485000
   351  Cl    c    -0.005522    9.026981    9.048079    0.000000    1.485000
   352  Cl    c    -0.005522    9.026981   -9.048079    0.000000    1.485000
   353  Cl    c    -0.005522   -4.521106    9.048079    0.000000    1.485000
   354  Cl    c    -0.005522   -4.521106   -9.048079    0.000000    1.485000
   355  Cl    c    -4.521106    4.511397    9.048079    0.000000    1.485000
   356  Cl    c    -4.521106    4.511397   -9.048079    0.000000    1.485000
   357  Cl    c    -4.521106   -0.005522    9.048079    0.000000    1.485000
   358  Cl    c    -4.521106   -0.005522   -9.048079    0.000000    1.485000
   359  Na    c     4.505495   11.205040    6.745489    0.000000    1.000000
   360  Na    c     4.505495   11.205040   -6.745489    0.000000    1.000000
   361  Na    c     4.505495   -6.699165    6.745489    0.000000    1.000000
   362  Na    c     4.505495   -6.699165   -6.745489    0.000000    1.000000
   363  Na    c     0.000380   11.205040    6.745489    0.000000    1.000000
   364  Na    c     0.000380   11.205040   -6.745489    0.000000    1.000000
   365  Na    c     0.000380   -6.699165    6.745489    0.000000    1.000000
   366  Na    c     0.000380   -6.699165   -6.745489    0.000000    1.000000
   367  Na    c    11.205040    4.505495    6.745489    0.000000    1.000000
   368  Na    c    11.205040    4.505495   -6.745489    0.000000    1.000000
   369  Na    c    11.205040    0.000380    6.745489    0.000000    1.000000
   370  Na    c    11.205040    0.000380   -6.745489    0.000000    1.000000
   371  Na    c    -6.699165    4.505495    6.745489    0.000000    1.000000
   372  Na    c    -6.699165    4.505495   -6.745489    0.000000    1.000000
   373  Na    c    -6.699165    0.000380    6.745489    0.000000    1.000000
   374  Na    c    -6.699165    0.000380   -6.745489    0.000000    1.000000
   375  Na    c     9.012007   11.257657   -2.281861    0.000000    1.000000
   376  Na    c     9.012007   11.257657    2.281861    0.000000    1.000000
   377  Na    c     9.012007   -6.751782   -2.281861    0.000000    1.000000
   378  Na    c     9.012007   -6.751782    2.281861    0.000000    1.000000
   379  Na    c    -4.506132   11.257657   -2.281861    0.000000    1.000000
   380  Na    c    -4.506132   11.257657    2.281861    0.000000    1.000000
   381  Na    c    -4.506132   -6.751782   -2.281861    0.000000    1.000000
   382  Na    c    -4.506132   -6.751782    2.281861    0.000000    1.000000
   383  Na    c    11.257657    9.012007   -2.281861    0.000000    1.000000
   384  Na    c    11.257657    9.012007    2.281861    0.000000    1.000000
   385  Na    c    11.257657   -4.506132   -2.281861    0.000000    1.000000
   386  Na    c    11.257657   -4.506132    2.281861    0.000000    1.000000
   387  Na    c    -6.751782    9.012007   -2.281861    0.000000    1.000000
   388  Na    c    -6.751782    9.012007    2.281861    0.000000    1.000000
   389  Na    c    -6.751782   -4.506132   -2.281861    0.000000    1.000000
   390  Na    c    -6.751782   -4.506132    2.281861    0.000000    1.000000
   391  O     c     2.252937    6.770501   11.237297    0.000000    0.183000
   392  O     c     2.252937    6.770501  -11.237297    0.000000    0.183000
   393  O     c     2.252937   -2.264626   11.237297    0.000000    0.183000
   394  O     c     2.252937   -2.264626  -11.237297    0.000000    0.183000
   395  O     c     6.770501    2.252937   11.237297    0.000000    0.183000
   396  O     c     6.770501    2.252937  -11.237297    0.000000    0.183000
   397  O     c    -2.264626    2.252937   11.237297    0.000000    0.183000
   398  O     c    -2.264626    2.252937  -11.237297    0.000000    0.183000
   399  O     c     6.759576   11.273852    6.740414    0.000000    0.183000
   400  O     c     6.759576   11.273852   -6.740414    0.000000    0.183000
   401  O     c     6.759576   -6.767977    6.740414    0.000000    0.183000
   402  O     c     6.759576   -6.767977   -6.740414    0.000000    0.183000
   403  O     c    11.273852    6.759576    6.740414    0.000000    0.183000
   404  O     c    11.273852    6.759576   -6.740414    0.000000    0.183000
   405  O     c    11.273852   -2.253701    6.740414    0.000000    0.183000
   406  O     c    11.273852   -2.253701   -6.740414    0.000000    0.183000
   407  O     c    -2.253701   11.273852    6.740414    0.000000    0.183000
   408  O     c    -2.253701   11.273852   -6.740414    0.000000    0.183000
   409  O     c    -2.253701   -6.767977    6.740414    0.000000    0.183000
   410  O     c    -2.253701   -6.767977   -6.740414    0.000000    0.183000
   411  O     c    -6.767977    6.759576    6.740414    0.000000    0.183000
   412  O     c    -6.767977    6.759576   -6.740414    0.000000    0.183000
   413  O     c    -6.767977   -2.253701    6.740414    0.000000    0.183000
   414  O     c    -6.767977   -2.253701   -6.740414    0.000000    0.183000
   415  Cl    c     4.508969   13.531132    4.511971    0.000000    1.485000
   416  Cl    c     4.508969   13.531132   -4.511971    0.000000    1.485000
   417  Cl    c     4.508969   -9.025257    4.511971    0.000000    1.485000
   418  Cl    c     4.508969   -9.025257   -4.511971    0.000000    1.485000
   419  Cl    c    13.531132    4.508969    4.511971    0.000000    1.485000
   420  Cl    c    13.531132    4.508969   -4.511971    0.000000    1.485000
   421  Cl    c    13.531132   -0.003094    4.511971    0.000000    1.485000
   422  Cl    c    13.531132   -0.003094   -4.511971    0.000000    1.485000
   423  Cl    c    -0.003094   13.531132    4.511971    0.000000    1.485000
   424  Cl    c    -0.003094   13.531132   -4.511971    0.000000    1.485000
   425  Cl    c    -0.003094   -9.025257    4.511971    0.000000    1.485000
   426  Cl    c    -0.003094   -9.025257   -4.511971    0.000000    1.485000
   427  Cl    c    -9.025257    4.508969    4.511971    0.000000    1.485000
   428  Cl    c    -9.025257    4.508969   -4.511971    0.000000    1.485000
   429  Cl    c    -9.025257   -0.003094    4.511971    0.000000    1.485000
   430  Cl    c    -9.025257   -0.003094   -4.511971    0.000000    1.485000
   431  Na    c     4.511094    6.750309   11.124015    0.000000    1.000000
   432  Na    c     4.511094    6.750309  -11.124015    0.000000    1.000000
   433  Na    c     4.511094   -2.244435   11.124015    0.000000    1.000000
   434  Na    c     4.511094   -2.244435  -11.124015    0.000000    1.000000
   435  Na    c    -0.005219    6.750309   11.124015    0.000000    1.000000
   436  Na    c    -0.005219    6.750309  -11.124015    0.000000    1.000000
   437  Na    c    -0.005219   -2.244435   11.124015    0.000000    1.000000
   438  Na    c    -0.005219   -2.244435  -11.124015    0.000000    1.000000
   439  Na    c     6.750309    4.511094   11.124015    0.000000    1.000000
   440  Na    c     6.750309    4.511094  -11.124015    0.000000    1.000000
   441  Na    c     6.750309   -0.005219   11.124015    0.000000    1.000000
   442  Na    c     6.750309   -0.005219  -11.124015    0.000000    1.000000
   443  Na    c    -2.244435    4.511094   11.124015    0.000000    1.000000
[...]
     32 y         11.264687     11.261200    -0.003488    Cartesian   -0.03
     32 z         -2.252937     -2.245748     0.007189    Cartesian   -0.32
     33 x          9.011750      9.043744     0.031994    Cartesian    0.36
     33 y          9.011750      9.043744     0.031994    Cartesian    0.36
     33 z          4.505875      4.504128    -0.001747    Cartesian   -0.04
     34 x          9.011750      9.025683     0.013934    Cartesian    0.15
     34 y          6.758812      6.778915     0.020102    Cartesian    0.30
     34 z          6.758812      6.473549    -0.285264    Cartesian   -4.22
     35 x          6.758812      6.953830     0.195018    Cartesian    2.89
     35 y          6.758812      6.953830     0.195018    Cartesian    2.89
     35 z          9.011750      8.978961    -0.032789    Cartesian   -0.36
     36 x          6.758812      6.727476    -0.031336    Cartesian   -0.46
     36 y         11.264687     11.593535     0.328848    Cartesian    2.92
     36 z          4.505875      4.490176    -0.015699    Cartesian   -0.35
     37 x          2.252937      2.252937     0.000000    Cartesian    0.00
     37 y          2.252937      2.252937     0.000000    Cartesian    0.00
     37 z         11.264687     11.256589    -0.008098    Cartesian   -0.07
     38 x          2.252937      2.252937     0.000000    Cartesian    0.00
     38 y         11.264687     11.253625    -0.011063    Cartesian   -0.10
     38 z          6.758812      6.730616    -0.028197    Cartesian   -0.42
     39 x          4.505875      4.507672     0.001797    Cartesian    0.04
     39 y         13.517625     13.551173     0.033549    Cartesian    0.25
     39 z          0.000000      0.000000     0.000000    Cartesian    0.00
     40 x          4.505875      4.516872     0.010997    Cartesian    0.24
     40 y          2.252937      2.252937     0.000000    Cartesian    0.00
     40 z         11.264687     11.151627    -0.113061    Cartesian   -1.00
     41 x         13.517625     13.493290    -0.024335    Cartesian   -0.18
     41 y          2.252937      2.252937     0.000000    Cartesian    0.00
     41 z         -2.252937     -1.948730     0.304208    Cartesian  -13.50
     42 x          4.505875      4.511397     0.005522    Cartesian    0.12
     42 y          9.011750      9.026981     0.015232    Cartesian    0.17
     42 z          9.011750      9.048079     0.036329    Cartesian    0.40
     43 x          4.505875      4.505495    -0.000380    Cartesian   -0.01
     43 y         11.264687     11.205040    -0.059648    Cartesian   -0.53
     43 z          6.758812      6.745489    -0.013323    Cartesian   -0.20
     44 x          9.011750      9.012007     0.000257    Cartesian    0.00
     44 y         11.264687     11.257657    -0.007031    Cartesian   -0.06
     44 z         -2.252937     -2.281861    -0.028924    Cartesian    1.28
     45 x          2.252937      2.252937     0.000000    Cartesian    0.00
     45 y          6.758812      6.770501     0.011689    Cartesian    0.17
     45 z         11.264687     11.237297    -0.027390    Cartesian   -0.24
     46 x          6.758812      6.759576     0.000764    Cartesian    0.01
     46 y         11.264687     11.273852     0.009165    Cartesian    0.08
     46 z          6.758812      6.740414    -0.018398    Cartesian   -0.27
     47 x          4.505875      4.508969     0.003094    Cartesian    0.07
     47 y         13.517625     13.531132     0.013507    Cartesian    0.10
     47 z          4.505875      4.511971     0.006096    Cartesian    0.14
     48 x          4.505875      4.511094     0.005219    Cartesian    0.12
     48 y          6.758812      6.750309    -0.008503    Cartesian   -0.13
     48 z         11.264687     11.124015    -0.140672    Cartesian   -1.25
     49 x         13.517625     13.508372    -0.009252    Cartesian   -0.07
     49 y          6.758812      6.771067     0.012254    Cartesian    0.18
     49 z         -2.252937     -1.967429     0.285508    Cartesian  -12.67
     50 x          2.252937      2.252937     0.000000    Cartesian    0.00
     50 y         11.264687     10.992558    -0.272129    Cartesian   -2.42
     50 z          9.011750      8.990969    -0.020781    Cartesian   -0.23
     51 x         11.264687     11.226248    -0.038439    Cartesian   -0.34
     51 y         11.264687     11.226248    -0.038439    Cartesian   -0.34
     51 z          0.000000      0.000000     0.000000    Cartesian    0.00
     52 x          6.758812      6.764417     0.005604    Cartesian    0.08
     52 y          6.758812      6.764417     0.005604    Cartesian    0.08
     52 z         11.264687     11.246365    -0.018322    Cartesian   -0.16
     53 x         11.264687     11.265924     0.001236    Cartesian    0.01
     53 y         11.264687     11.265924     0.001236    Cartesian    0.01
     53 z         -2.252937     -2.253261    -0.000323    Cartesian    0.01
     54 x          9.011750      9.043015     0.031265    Cartesian    0.35
     54 y          9.011750      9.043015     0.031265    Cartesian    0.35
     54 z          9.011750      9.046028     0.034278    Cartesian    0.38
     55 x          9.011750      9.033721     0.021971    Cartesian    0.24
     55 y         13.517625     13.539136     0.021511    Cartesian    0.16
     55 z          0.000000      0.000000     0.000000    Cartesian    0.00
     56 x          9.011750      9.007280    -0.004470    Cartesian   -0.05
     56 y          2.252937      2.252937     0.000000    Cartesian    0.00
     56 z         11.264687     11.450423     0.185736    Cartesian    1.65
     57 x          9.011750      9.014921     0.003171    Cartesian    0.04
     57 y         11.264687     11.279944     0.015257    Cartesian    0.14
     57 z          6.758812      6.717618    -0.041195    Cartesian   -0.61
     58 x         13.517625     13.506883    -0.010742    Cartesian   -0.08
     58 y          2.252937      2.252937     0.000000    Cartesian    0.00
     58 z          6.758812      6.969981     0.211169    Cartesian    3.12
     59 x          2.252937      2.252937     0.000000    Cartesian    0.00
     59 y        -11.264687    -11.418586    -0.153898    Cartesian    1.37
     59 z          0.000000      0.000000     0.000000    Cartesian    0.00
     60 x          2.252937      2.252937     0.000000    Cartesian    0.00
     60 y          2.252937      2.252937     0.000000    Cartesian    0.00
     60 z         13.517625     13.501406    -0.016219    Cartesian   -0.12
     61 x          6.758812      6.814641     0.055828    Cartesian    0.83
     61 y         11.264687     11.083702    -0.180985    Cartesian   -1.61
     61 z          9.011750      9.000628    -0.011121    Cartesian   -0.12
     62 x         11.264687     11.296309     0.031622    Cartesian    0.28
     62 y         11.264687     11.296309     0.031622    Cartesian    0.28
     62 z          4.505875      4.502385    -0.003490    Cartesian   -0.08
     63 x          2.252937      2.252937     0.000000    Cartesian    0.00
     63 y        -11.264687    -11.247424     0.017263    Cartesian   -0.15
     63 z         -2.252937     -2.240322     0.012615    Cartesian   -0.56
     64 x          4.505875      4.502633    -0.003242    Cartesian   -0.07
     64 y        -11.264687    -11.215830     0.048858    Cartesian   -0.43
     64 z         -2.252937     -2.342440    -0.089503    Cartesian    3.97
     65 x          9.011750      9.008470    -0.003280    Cartesian   -0.04
     65 y          6.758812      6.728843    -0.029969    Cartesian   -0.44
     65 z         11.264687     11.385998     0.121311    Cartesian    1.08
     66 x         13.517625     13.517161    -0.000464    Cartesian   -0.00
     66 y          6.758812      6.723264    -0.035549    Cartesian   -0.53
     66 z          6.758812      6.943133     0.184321    Cartesian    2.73
     67 x          4.505875      4.520750     0.014875    Cartesian    0.33
     67 y          4.505875      4.520750     0.014875    Cartesian    0.33
     67 z         13.517625     13.566245     0.048620    Cartesian    0.36
     68 x          9.011750      9.041246     0.029496    Cartesian    0.33
     68 y         13.517625     13.517876     0.000251    Cartesian    0.00
     68 z          4.505875      4.512570     0.006695    Cartesian    0.15
     69 x          2.252937      2.252937     0.000000    Cartesian    0.00
     69 y        -11.264687    -11.158814     0.105874    Cartesian   -0.94
     69 z          4.505875      4.506055     0.000180    Cartesian    0.00
     70 x          6.758812      6.675420    -0.083393    Cartesian   -1.23
     70 y        -11.264687    -11.416199    -0.151512    Cartesian    1.35
     70 z          0.000000      0.000000     0.000000    Cartesian    0.00
     71 x          2.252937      2.252937     0.000000    Cartesian    0.00
     71 y          6.758812      6.661681    -0.097132    Cartesian   -1.44
     71 z         13.517625     13.500949    -0.016675    Cartesian   -0.12
     72 x          2.252937      2.252937     0.000000    Cartesian    0.00
     72 y         11.264687     11.255422    -0.009265    Cartesian   -0.08
     72 z         11.264687     11.256162    -0.008526    Cartesian   -0.08
     73 x          6.758812      6.757177    -0.001635    Cartesian   -0.02
     73 y        -11.264687    -11.257532     0.007156    Cartesian   -0.06
     73 z         -2.252937     -2.235096     0.017842    Cartesian   -0.79
     74 x         11.264687     11.270165     0.005477    Cartesian    0.05
     74 y         11.264687     11.270165     0.005477    Cartesian    0.05
     74 z          6.758812      6.756247    -0.002566    Cartesian   -0.04
     75 x          4.505875      4.512033     0.006158    Cartesian    0.14
     75 y         13.517625     13.582351     0.064726    Cartesian    0.48
     75 z          9.011750      9.005046    -0.006704    Cartesian   -0.07
     76 x          4.505875      4.505671    -0.000204    Cartesian   -0.00
     76 y         11.264687     11.290830     0.026142    Cartesian    0.23
     76 z         11.264687     11.193782    -0.070905    Cartesian   -0.63
     77 x         13.517625     13.516025    -0.001600    Cartesian   -0.01
     77 y         11.264687     11.258722    -0.005965    Cartesian   -0.05
     77 z         -2.252937     -2.230295     0.022642    Cartesian   -1.01
     78 x          6.758812      6.778790     0.019978    Cartesian    0.30
     78 y        -11.264687    -11.160479     0.104209    Cartesian   -0.93
     78 z          4.505875      4.499504    -0.006371    Cartesian   -0.14
     79 x          6.758812      6.663716    -0.095096    Cartesian   -1.41
     79 y          6.758812      6.663716    -0.095096    Cartesian   -1.41
     79 z         13.517625     13.508273    -0.009352    Cartesian   -0.07
     80 x          2.252937      2.252937     0.000000    Cartesian    0.00
     80 y          2.252937      2.252937     0.000000    Cartesian    0.00
     80 z         -2.252937     -2.315100    -0.062162    Cartesian    2.76
     81 x          4.505875      4.636052     0.130177    Cartesian    2.89
     81 y          4.505875      4.636052     0.130177    Cartesian    2.89
     81 z          0.000000      0.000000     0.000000    Cartesian    0.00
     82 x          2.252937      2.252937     0.000000    Cartesian    0.00
     82 y          6.758812      6.736166    -0.022646    Cartesian   -0.34
     82 z         -2.252937     -2.221420     0.031518    Cartesian   -1.40
     83 x          4.505875      4.559875     0.054000    Cartesian    1.20
     83 y          4.505875      4.559875     0.054000    Cartesian    1.20
     83 z          4.505875      4.702421     0.196547    Cartesian    4.36
     84 x          2.252937      2.252937     0.000000    Cartesian    0.00
     84 y          2.252937      2.252937     0.000000    Cartesian    0.00
     84 z          6.758812      6.809278     0.050465    Cartesian    0.75
     85 x          6.758812      6.773495     0.014682    Cartesian    0.22
     85 y          6.758812      6.773495     0.014682    Cartesian    0.22
     85 z         -2.252937     -2.276677    -0.023740    Cartesian    1.05
     86 x          4.505875      4.504263    -0.001612    Cartesian   -0.04
     86 y          9.011750      9.003336    -0.008413    Cartesian   -0.09
     86 z          0.000000      0.000000     0.000000    Cartesian    0.00
     87 x          2.252937      2.252937     0.000000    Cartesian    0.00
     87 y          6.758812      6.773745     0.014932    Cartesian    0.22
     87 z          6.758812      6.733353    -0.025460    Cartesian   -0.38
     88 x          4.505875      4.543596     0.037721    Cartesian    0.84
     88 y          9.011750      9.036071     0.024321    Cartesian    0.27
     88 z          4.505875      4.503882    -0.001993    Cartesian   -0.04
     89 x          2.252937      2.252937     0.000000    Cartesian    0.00
     89 y         11.264687     11.234636    -0.030051    Cartesian   -0.27
     89 z         -2.252937     -2.249383     0.003554    Cartesian   -0.16
     90 x          6.758812      6.779357     0.020545    Cartesian    0.30
     90 y          6.758812      6.779357     0.020545    Cartesian    0.30
     90 z          6.758812      6.730240    -0.028572    Cartesian   -0.42
     91 x          4.505875      4.480857    -0.025018    Cartesian   -0.56
     91 y          4.505875      4.480857    -0.025018    Cartesian   -0.56
     91 z          9.011750      9.045441     0.033691    Cartesian    0.37
     92 x          9.011750      9.066349     0.054599    Cartesian    0.61
     92 y          9.011750      9.066349     0.054599    Cartesian    0.61
     92 z          0.000000      0.000000     0.000000    Cartesian    0.00
     93 x          6.758812      6.760822     0.002009    Cartesian    0.03
     93 y         11.264687     11.261199    -0.003488    Cartesian   -0.03
     93 z         -2.252937     -2.245762     0.007176    Cartesian   -0.32
     94 x          9.011750      9.038038     0.026288    Cartesian    0.29
     94 y          9.011750      9.038038     0.026288    Cartesian    0.29
     94 z          4.505875      4.503225    -0.002650    Cartesian   -0.06
     95 x          2.252937      2.252937     0.000000    Cartesian    0.00
     95 y          2.252937      2.252937     0.000000    Cartesian    0.00
     95 z         11.264687     11.256496    -0.008191    Cartesian   -0.07
     96 x          2.252937      2.252937     0.000000    Cartesian    0.00
     96 y         11.264687     11.253648    -0.011039    Cartesian   -0.10
     96 z          6.758812      6.730608    -0.028204    Cartesian   -0.42
     97 x          4.505875      4.507089     0.001214    Cartesian    0.03
     97 y         13.517625     13.555544     0.037919    Cartesian    0.28
     97 z          0.000000      0.000000     0.000000    Cartesian    0.00
     98 x          4.505875      4.505481    -0.000394    Cartesian   -0.01
     98 y          9.011750      9.028803     0.017053    Cartesian    0.19
     98 z          9.011750      9.053845     0.042095    Cartesian    0.47
     99 x          2.252937      2.252937     0.000000    Cartesian    0.00
     99 y          6.758812      6.770526     0.011714    Cartesian    0.17
     99 z         11.264687     11.237289    -0.027399    Cartesian   -0.24
    100 x          6.758812      6.759577     0.000764    Cartesian    0.01
    100 y         11.264687     11.273878     0.009190    Cartesian    0.08
    100 z          6.758812      6.740409    -0.018404    Cartesian   -0.27
    101 x          4.505875      4.508902     0.003027    Cartesian    0.07
    101 y         13.517625     13.526114     0.008489    Cartesian    0.06
    101 z          4.505875      4.511915     0.006040    Cartesian    0.13
    102 x          6.758812      6.764431     0.005619    Cartesian    0.08
    102 y          6.758812      6.764431     0.005619    Cartesian    0.08
    102 z         11.264687     11.246394    -0.018293    Cartesian   -0.16
    103 x         11.264687     11.265924     0.001237    Cartesian    0.01
    103 y         11.264687     11.265924     0.001237    Cartesian    0.01
    103 z         -2.252937     -2.253268    -0.000331    Cartesian    0.01
    104 x          9.011750      9.041318     0.029568    Cartesian    0.33
    104 y          9.011750      9.041318     0.029568    Cartesian    0.33
    104 z          9.011750      9.050736     0.038986    Cartesian    0.43
    105 x          9.011750      9.030063     0.018313    Cartesian    0.20
    105 y         13.517625     13.541695     0.024070    Cartesian    0.18
    105 z          0.000000      0.000000     0.000000    Cartesian    0.00
    106 x          2.252937      2.252937     0.000000    Cartesian    0.00
    106 y        -11.264687    -11.247442     0.017245    Cartesian   -0.15
    106 z         -2.252937     -2.240288     0.012650    Cartesian   -0.56
    107 x          4.505875      4.524730     0.018855    Cartesian    0.42
    107 y          4.505875      4.524730     0.018855    Cartesian    0.42
    107 z         13.517625     13.574537     0.056912    Cartesian    0.42
    108 x          9.011750      9.040850     0.029100    Cartesian    0.32
    108 y         13.517625     13.514562    -0.003063    Cartesian   -0.02
    108 z          4.505875      4.513973     0.008098    Cartesian    0.18
    109 x          2.252937      2.252937     0.000000    Cartesian    0.00
    109 y         11.264687     11.255389    -0.009299    Cartesian   -0.08
    109 z         11.264687     11.256201    -0.008487    Cartesian   -0.08
    110 x          6.758812      6.757172    -0.001640    Cartesian   -0.02
    110 y        -11.264687    -11.257555     0.007133    Cartesian   -0.06
    110 z         -2.252937     -2.235046     0.017892    Cartesian   -0.79
    111 x         11.264687     11.270180     0.005493    Cartesian    0.05
    111 y         11.264687     11.270180     0.005493    Cartesian    0.05
    111 z          6.758812      6.756232    -0.002580    Cartesian   -0.04
    112 x          4.505875      4.513046     0.007171    Cartesian    0.16
    112 y         13.517625     13.591042     0.073417    Cartesian    0.54
    112 z          9.011750      8.999978    -0.011772    Cartesian   -0.13
--------------------------------------------------------------------------------


  Time to end of optimisation  =       82.9316 seconds


  Peak dynamic memory used =     199.25 MB 


  Timing analysis for GULP :

--------------------------------------------------------------------------------
  Task / Subroutine                                          Time (Seconds)
--------------------------------------------------------------------------------
  Calculation of reciprocal space energy and derivatives          0.0004
  Calculation of reciprocal space energy using symmetry           0.0005
  Calculation of real space energy and derivatives                0.0020
  Calculation of real space energy using symmetry                 0.0047
  Calculation for region 1 energy and derivatives (2-b)          33.9597
  Calculation for region 2a energy                               47.4954
  Calculation for region 2b energy                                0.0003
  Calculation and manipulation of Hessian matrix                  1.1236
  Calculation of matrix inversion                                 0.0759
  Symmetry generation of equivalent positions                     0.0026
--------------------------------------------------------------------------------
  Total CPU time                                                 82.9317
--------------------------------------------------------------------------------


  Dump file written as Na3OCl.grs


  Job Finished at 14:38.53 30th December   2020                               

