********************************************************************************
*                       GENERAL UTILITY LATTICE PROGRAM                        *
*                                 Julian Gale                                  *
*                       Curtin Institute for Computation                       *
*                    School of Molecular and Life Sciences                     *
*                    Curtin University, Western Australia                      *
********************************************************************************
* Version = 5.2.0 * Last modified =  10th September 2020                       *
********************************************************************************
*  optimise     - perform optimisation run                                     *
*  conp         - constant pressure calculation                                *
*  property     - calculate properties for final geometry                      *
*  defect       - perform defect calculation after bulk run                    *
*  compare      - compare initial and final structures                         *
********************************************************************************

  Job Started  at 13:51.53  3rd February   2021                               

  Number of CPUs =     1


  Total number of configurations input =      1

********************************************************************************
*  Input for Configuration =   1                                               *
********************************************************************************

  Formula = ClONa3                                                      

  Number of irreducible atoms/shells =       5


  Total number atoms/shells =       7

  Dimensionality = 3               :  Bulk   


  Symmetry :

  Crystal family                   :  Cubic       
  Crystal class  (Groth - 1921)    :  Cubic Hexakisoctahedral              

  Space group (centrosymmetric)    :  P M 3 M         

  Patterson group                  :  P m -3 m 

  Cartesian lattice vectors (Angstroms) :

        4.504000    0.000000    0.000000
        0.000000    4.504000    0.000000
        0.000000    0.000000    4.504000

  Cell parameters (Angstroms/Degrees):

  a =       4.5040    alpha =  90.0000
  b =       4.5040    beta  =  90.0000
  c =       4.5040    gamma =  90.0000

  Initial cell volume =          91.368216 Angs**3

  Temperature of configuration =   0.00     K 

  Pressure of configuration =         0.000 GPa 

  Fractional coordinates of asymmetric unit :

--------------------------------------------------------------------------------
   No.  Atomic       x           y          z         Charge      Occupancy
        Label      (Frac)      (Frac)     (Frac)        (e)         (Frac)  
--------------------------------------------------------------------------------
      1 Cl    c    0.000000    0.000000    0.000000     1.48500    1.000000    
      2 O     c    0.500000    0.500000    0.500000     0.18300    1.000000    
      3 Na    c    0.500000    0.500000    0.000000     1.00000    1.000000    
      4 Cl    s    0.000000    0.000000    0.000000    -2.48500    1.000000    
      5 O     s    0.500000    0.500000    0.500000    -2.18300    1.000000    
--------------------------------------------------------------------------------


  Constraints : 

--------------------------------------------------------------------------------
  Constraint no.      Unconstrained     Constrained    Coefficient    Offset
                         Variable         Variable
--------------------------------------------------------------------------------
           1              Strain 1        Strain 2       1.00000      0.0000
           2              Strain 1        Strain 3       1.00000      0.0000
--------------------------------------------------------------------------------


********************************************************************************
*  General input information                                                   *
********************************************************************************

  Species output for all configurations : 

--------------------------------------------------------------------------------
  Species    Type    Atomic    Atomic    Charge       Radii (Angs)     Library
                     Number     Mass       (e)     Cova   Ionic  VDW   Symbol
--------------------------------------------------------------------------------
    Na       Core       11      22.99   1.000000   0.970  0.000  2.300          
    O        Core        8      16.00   0.183000   0.730  0.000  1.360          
    O        Shell       8       0.00  -2.183000   0.730  0.000  1.360          
    Cl       Core       17      35.45   1.485000   0.990  0.000  1.650          
    Cl       Shell      17       0.00  -2.485000   0.990  0.000  1.650          
    Mg       Core       12      24.31   0.415000   1.100  0.000  0.000          
    Mg       Shell      12       0.00   1.585000   1.100  0.000  0.000          
    Ca       Core       20      40.08  -1.135000   0.990  0.000  0.000          
    Ca       Shell      20       0.00   3.135000   0.990  0.000  0.000          
    Sr       Core       38      87.62  -1.251000   1.120  0.000  0.000          
    Sr       Shell      38       0.00   3.251000   1.120  0.000  0.000          
    Ba       Core       56     137.33  -7.203000   1.340  0.000  0.000          
    Ba       Shell      56       0.00   9.203000   1.340  0.000  0.000          
--------------------------------------------------------------------------------


  Lattice summation method               =    Ewald          (3-D)
                                         =    Parry          (2-D)
                                         =    Saunders et al (1-D)
  Accuracy factor for lattice sums       =   12.000


  Analytic derivatives to be used

  Time limit = Infinity

  Maximum range for interatomic potentials =    100000.000000 Angstroms

  General interatomic potentials :

--------------------------------------------------------------------------------
Atom  Types   Potential      Parameter       Value         Units   Cutoffs(Ang)
  1     2                                                            Min /  Max 
--------------------------------------------------------------------------------
O    c O    s Spring (c-s)  Spring k 2       593.71600    eV*Ang^-2 0.000  0.800
                            Spring k 4       0.0000000    eV*Ang^-4 
--------------------------------------------------------------------------------
Cl   c Cl   s Spring (c-s)  Spring k 2       29.380000    eV*Ang^-2 0.000  0.800
                            Spring k 4       0.0000000    eV*Ang^-4 
--------------------------------------------------------------------------------
Mg   c Mg   s Spring (c-s)  Spring k 2       361.60000    eV*Ang^-2 0.000  0.800
                            Spring k 4       0.0000000    eV*Ang^-4 
--------------------------------------------------------------------------------
Ca   c Ca   s Spring (c-s)  Spring k 2       110.20000    eV*Ang^-2 0.000  0.800
                            Spring k 4       0.0000000    eV*Ang^-4 
--------------------------------------------------------------------------------
Sr   c Sr   s Spring (c-s)  Spring k 2       71.700000    eV*Ang^-2 0.000  0.800
                            Spring k 4       0.0000000    eV*Ang^-4 
--------------------------------------------------------------------------------
Ba   c Ba   s Spring (c-s)  Spring k 2       495.20000    eV*Ang^-2 0.000  0.800
                            Spring k 4       0.0000000    eV*Ang^-4 
--------------------------------------------------------------------------------
Na   c Na   c Buckingham    Buckingham A     1788.1900    eV        0.000 12.000
                            Buckingham rho  0.15900000    Ang       
                            Buckingham C     0.0000000    eV*Ang^6  
--------------------------------------------------------------------------------
Na   c O    s Buckingham    Buckingham A     588.38000    eV        0.000 12.000
                            Buckingham rho  0.33800000    Ang       
                            Buckingham C     0.0000000    eV*Ang^6  
--------------------------------------------------------------------------------
Na   c Cl   s Buckingham    Buckingham A     1170.4100    eV        0.000 12.000
                            Buckingham rho  0.31500000    Ang       
                            Buckingham C     0.0000000    eV*Ang^6  
--------------------------------------------------------------------------------
O    s O    s Buckingham    Buckingham A     22764.300    eV        0.000 12.000
                            Buckingham rho  0.14900000    Ang       
                            Buckingham C     13.190000    eV*Ang^6  
--------------------------------------------------------------------------------
O    s Cl   s Buckingham    Buckingham A     8286.9100    eV        0.000 12.000
                            Buckingham rho  0.25900000    Ang       
                            Buckingham C     62.200000    eV*Ang^6  
--------------------------------------------------------------------------------
Cl   s Cl   s Buckingham    Buckingham A     1227.2000    eV        0.000 12.000
                            Buckingham rho  0.32100000    Ang       
                            Buckingham C     14.530000    eV*Ang^6  
--------------------------------------------------------------------------------
O    s Mg   s Buckingham    Buckingham A     1428.5000    eV        0.000 12.000
                            Buckingham rho  0.29450000    Ang       
                            Buckingham C     0.0000000    eV*Ang^6  
--------------------------------------------------------------------------------
Mg   s Cl   s Buckingham    Buckingham A     4914.5400    eV        0.000 12.000
                            Buckingham rho  0.25700000    Ang       
                            Buckingham C     0.0000000    eV*Ang^6  
--------------------------------------------------------------------------------
O    s Ca   s Buckingham    Buckingham A     1090.4000    eV        0.000 12.000
                            Buckingham rho  0.34370000    Ang       
                            Buckingham C     0.0000000    eV*Ang^6  
--------------------------------------------------------------------------------
Cl   s Ca   s Buckingham    Buckingham A     2302.0000    eV        0.000 12.000
                            Buckingham rho  0.34020000    Ang       
                            Buckingham C     0.0000000    eV*Ang^6  
--------------------------------------------------------------------------------
O    s Sr   s Buckingham    Buckingham A     959.10000    eV        0.000 12.000
                            Buckingham rho  0.37210000    Ang       
                            Buckingham C     0.0000000    eV*Ang^6  
--------------------------------------------------------------------------------
Cl   s Sr   s Buckingham    Buckingham A     2191.0900    eV        0.000 12.000
                            Buckingham rho  0.34570000    Ang       
                            Buckingham C     0.0000000    eV*Ang^6  
--------------------------------------------------------------------------------
O    s Ba   s Buckingham    Buckingham A     905.70000    eV        0.000 12.000
                            Buckingham rho  0.39760000    Ang       
                            Buckingham C     0.0000000    eV*Ang^6  
--------------------------------------------------------------------------------
Cl   s Ba   s Buckingham    Buckingham A     2704.5500    eV        0.000 12.000
                            Buckingham rho  0.35280000    Ang       
                            Buckingham C     0.0000000    eV*Ang^6  
--------------------------------------------------------------------------------

********************************************************************************
*  Output for configuration   1                                                *
********************************************************************************


  Components of energy : 

--------------------------------------------------------------------------------
  Interatomic potentials     =           4.94315381 eV    
  Monopole - monopole (real) =         -10.03624526 eV    
  Monopole - monopole (recip)=         -29.53581274 eV    
  Monopole - monopole (total)=         -39.57205800 eV    
--------------------------------------------------------------------------------
  Total lattice energy       =         -34.62890419 eV    
--------------------------------------------------------------------------------
  Total lattice energy       =           -3341.1599 kJ/(mole unit cells)
--------------------------------------------------------------------------------


  Number of variables =        1

  Maximum number of calculations  =          1000
  Maximum Hessian update interval =            10
  Maximum step size               =   1.000000000
  Maximum parameter tolerance     =   0.000010000
  Maximum function  tolerance     =   0.000010000
  Maximum gradient  tolerance     =   0.001000000
  Maximum gradient  component     =   0.010000000

  Symmetry constrained optimisation

  Symmetry used for second derivatives

  Cell parameters to be optimised using strains

  Newton-Raphson optimiser to be used

  BFGS hessian update to be used

  Lower half triangular hessian to be used

  Start of bulk optimisation :

  Cycle:      0 Energy:       -34.628904  Gnorm:      4.328237  CPU:    0.006
  ** Hessian calculated **
  Cycle:      1 Energy:       -34.677667  Gnorm:      0.044008  CPU:    0.007
  Cycle:      2 Energy:       -34.677671  Gnorm:      0.003653  CPU:    0.008


  **** Optimisation achieved ****


  Final energy =     -34.67767136 eV
  Final Gnorm  =       0.00000010

  Components of energy : 

--------------------------------------------------------------------------------
  Interatomic potentials     =           5.77546103 eV    
  Monopole - monopole (real) =         -10.25970290 eV    
  Monopole - monopole (recip)=         -30.19342950 eV    
  Monopole - monopole (total)=         -40.45313239 eV    
--------------------------------------------------------------------------------
  Total lattice energy       =         -34.67767136 eV    
--------------------------------------------------------------------------------
  Total lattice energy       =           -3345.8652 kJ/(mole unit cells)
--------------------------------------------------------------------------------

  Final asymmetric unit coordinates :

--------------------------------------------------------------------------------
   No.  Atomic        x           y           z         Radius
        Label       (Frac)      (Frac)      (Frac)       (Angs) 
--------------------------------------------------------------------------------
     1  Cl    c     0.000000    0.000000    0.000000    0.000000
     2  O     c     0.500000    0.500000    0.500000    0.000000
     3  Na    c     0.500000    0.500000    0.000000    0.000000
     4  Cl    s     0.000000    0.000000    0.000000    0.000000
     5  O     s     0.500000    0.500000    0.500000    0.000000
--------------------------------------------------------------------------------

  Final Cartesian lattice vectors (Angstroms) :

        4.405902    0.000000    0.000000
        0.000000    4.405902    0.000000
        0.000000    0.000000    4.405902


  Final cell parameters and derivatives :

--------------------------------------------------------------------------------
       a            4.405902 Angstrom     dE/de1(xx)     0.000000 eV/strain
       b            4.405902 Angstrom     dE/de2(yy)     0.000000 eV/strain
       c            4.405902 Angstrom     dE/de3(zz)     0.000000 eV/strain
       alpha       90.000000 Degrees      dE/de4(yz)     0.000000 eV/strain
       beta        90.000000 Degrees      dE/de5(xz)     0.000000 eV/strain
       gamma       90.000000 Degrees      dE/de6(xy)     0.000000 eV/strain
--------------------------------------------------------------------------------

  Primitive cell volume =            85.527266 Angs**3

  Density of cell =      2.338030 g/cm**3

  Non-primitive cell volume =            85.527266 Angs**3


  Final internal derivatives :

--------------------------------------------------------------------------------
   No.  Atomic          a             b             c           Radius
        Label          (eV)          (eV)          (eV)        (eV/Angs)
--------------------------------------------------------------------------------
      1 Cl    c       0.000000      0.000000      0.000000      0.000000
      2 O     c       0.000000      0.000000      0.000000      0.000000
      3 Na    c       0.000000      0.000000      0.000000      0.000000
      4 Cl    s       0.000000      0.000000      0.000000      0.000000
      5 O     s       0.000000      0.000000      0.000000      0.000000
--------------------------------------------------------------------------------
  Maximum abs         0.000000      0.000000      0.000000      0.000000
--------------------------------------------------------------------------------

  Comparison of initial and final structures : 

--------------------------------------------------------------------------------
  Parameter   Initial value   Final value   Difference    Units      Percent
--------------------------------------------------------------------------------
    Volume        91.368216     85.527266    -5.840950    Angs**3     -6.39
    a              4.504000      4.405902    -0.098098    Angstroms   -2.18
    b              4.504000      4.405902    -0.098098    Angstroms   -2.18
    c              4.504000      4.405902    -0.098098    Angstroms   -2.18
    alpha         90.000000     90.000000     0.000000    Degrees      0.00
    beta          90.000000     90.000000     0.000000    Degrees      0.00
    gamma         90.000000     90.000000     0.000000    Degrees      0.00
      1 x          0.000000      0.000000     0.000000    Fractional   0.00
      1 y          0.000000      0.000000     0.000000    Fractional   0.00
      1 z          0.000000      0.000000     0.000000    Fractional   0.00
      2 x          0.500000      0.500000     0.000000    Fractional   0.00
      2 y          0.500000      0.500000     0.000000    Fractional   0.00
      2 z          0.500000      0.500000     0.000000    Fractional   0.00
      3 x          0.500000      0.500000     0.000000    Fractional   0.00
      3 y          0.500000      0.500000     0.000000    Fractional   0.00
      3 z          0.000000      0.000000     0.000000    Fractional   0.00
      4 x          0.000000      0.000000     0.000000    Fractional   0.00
      4 y          0.000000      0.000000     0.000000    Fractional   0.00
      4 z          0.000000      0.000000     0.000000    Fractional   0.00
      5 x          0.500000      0.500000     0.000000    Fractional   0.00
      5 y          0.500000      0.500000     0.000000    Fractional   0.00
      5 z          0.500000      0.500000     0.000000    Fractional   0.00
--------------------------------------------------------------------------------


  Born effective charge tensors : 

-------------------------------------------------------------------------------
  Atom             x           y             z
-------------------------------------------------------------------------------
    1 Cl    x      -0.9918     -0.0000     -0.0000
            y      -0.0000     -0.9918     -0.0000
            z      -0.0000     -0.0000     -0.9918
-------------------------------------------------------------------------------
    2 O     x      -2.2939      0.0000      0.0000
            y       0.0000     -2.2939      0.0000
            z       0.0000      0.0000     -2.2939
-------------------------------------------------------------------------------
    3 Na    x       1.2243      0.0000      0.0000
            y       0.0000      1.2243     -0.0000
            z       0.0000      0.0000      0.8372
-------------------------------------------------------------------------------




  Elastic Constant Matrix: (Units=GPa)

-------------------------------------------------------------------------------
  Indices      1         2         3         4         5         6    
-------------------------------------------------------------------------------
       1     82.7680   24.3534   24.3534   -0.0000    0.0000   -0.0000
       2     24.3534   82.7680   24.3534    0.0000   -0.0000   -0.0000
       3     24.3534   24.3534   82.7680    0.0000   -0.0000    0.0000
       4     -0.0000    0.0000    0.0000   24.3534   -0.0000    0.0000
       5      0.0000   -0.0000   -0.0000   -0.0000   24.3534    0.0000
       6     -0.0000   -0.0000    0.0000    0.0000    0.0000   24.3534
-------------------------------------------------------------------------------


  Elastic Compliance Matrix: (Units=1/GPa)

-------------------------------------------------------------------------------
  Indices      1         2         3         4         5         6    
-------------------------------------------------------------------------------
       1    0.013948 -0.003171 -0.003171  0.000000 -0.000000  0.000000
       2   -0.003171  0.013948 -0.003171 -0.000000  0.000000 -0.000000
       3   -0.003171 -0.003171  0.013948 -0.000000  0.000000 -0.000000
       4    0.000000 -0.000000 -0.000000  0.041062  0.000000 -0.000000
       5   -0.000000  0.000000  0.000000  0.000000  0.041062 -0.000000
       6    0.000000 -0.000000 -0.000000 -0.000000 -0.000000  0.041062
-------------------------------------------------------------------------------

  Mechanical properties :

-------------------------------------------------------------------------------
  Convention :                    Reuss         Voigt         Hill
-------------------------------------------------------------------------------
  Bulk  Modulus (GPa)     =      43.82493      43.82493      43.82493
  Shear Modulus (GPa)     =      26.08758      26.29496      26.19127
-------------------------------------------------------------------------------
  Velocity S-wave (km/s)  =       3.34035       3.35360       3.34698
  Velocity P-wave (km/s)  =       5.79842       5.80861       5.80351
-------------------------------------------------------------------------------
  Compressibility (1/GPa) =    0.02281806
-------------------------------------------------------------------------------
  Stress axis :                     x             y             z
-------------------------------------------------------------------------------
  Youngs Moduli (GPa)     =      71.69479      71.69479      71.69479
-------------------------------------------------------------------------------
  Poissons Ratio (x)      =                     0.22734       0.22734
  Poissons Ratio (y)      =       0.22734                     0.22734
  Poissons Ratio (z)      =       0.22734       0.22734
-------------------------------------------------------------------------------


  Piezoelectric Strain Matrix: (Units=C/m**2)

-------------------------------------------------------------------------------
  Indices      1         2         3         4         5         6    
-------------------------------------------------------------------------------
       x    -0.00000  -0.00000  -0.00000  -0.00000   0.00000  -0.00000
       y     0.00000  -0.00000   0.00000   0.00000  -0.00000   0.00000
       z    -0.00000  -0.00000   0.00000  -0.00000   0.00000  -0.00000
-------------------------------------------------------------------------------


  Piezoelectric Stress Matrix: (Units=10**-11 C/N)

-------------------------------------------------------------------------------
  Indices      1         2         3         4         5         6    
-------------------------------------------------------------------------------
       x     0.00000  -0.00000  -0.00000  -0.00000   0.00000  -0.00000
       y     0.00000  -0.00000   0.00000   0.00000  -0.00000   0.00000
       z    -0.00000  -0.00000   0.00000  -0.00000   0.00000  -0.00000
-------------------------------------------------------------------------------


  Static dielectric constant tensor : 

-------------------------------------------------------------------------------
              x         y         z
-------------------------------------------------------------------------------
       x    11.08357   0.00000   0.00000
       y     0.00000  11.08357   0.00000
       z     0.00000   0.00000  11.08357
--------------------------------------------------------------------------------

  High frequency dielectric constant tensor : 

-------------------------------------------------------------------------------
              x         y         z
-------------------------------------------------------------------------------
       x     1.50771   0.00000   0.00000
       y     0.00000   1.50771   0.00000
       z     0.00000   0.00000   1.50771
-------------------------------------------------------------------------------

  Static refractive indices : 

-------------------------------------------------------------------------------
    1 =    3.32920      2 =    3.32920      3 =    3.32920
-------------------------------------------------------------------------------

  High frequency refractive indices : 

-------------------------------------------------------------------------------
    1 =    1.22789      2 =    1.22789      3 =    1.22789
-------------------------------------------------------------------------------


  Time to end of optimisation =       0.0111 seconds

********************************************************************************
*  Defect calculation for configuration   1 :                                  *
********************************************************************************

  Total number of defects =      1

  Total charge on defect  =   1.00

  Defect centre is at   0.5000   0.2500   0.2500  Frac

  Region 1 radius =  12.0000      Number of ions =    595

  Number of symmetry inequivalent region 1 ions  =    342

  Region 2 radius =  24.0000      Number of ions =   4174

  Number of symmetry inequivalent region 2a ions =   2231

  Region 2a mode = 4 : screened electrostatics due to region 1 
                       neglect correction to region 1 forces from 2a
                       region 2a displacements based on defects only

  Region 2a ions will only interact with defects in region 1

  Impurities:

--------------------------------------------------------------------------------
    Specification type     Symbol/Number         x          y          z
--------------------------------------------------------------------------------
    Frac/Symbol             Ba               0.500000   0.500000   0.000000
--------------------------------------------------------------------------------


  Symmetry reduced region 1 (Relative to defect centre) :

--------------------------------------------------------------------------------
   No.   Atomic       x            y             z       Radius  Multiplicity   
         Label      (Angs)       (Angs)        (Angs)    (Angs)     
--------------------------------------------------------------------------------
     1  O     c      0.0000       1.1015 *     1.1015 *  0.0000     1          
     2  Na    c      0.0000      -1.1015 *     1.1015 *  0.0000     1          
     3  Ba    c      0.0000       1.1015      -1.1015    0.0000     1    Defect
     4  Cl    c      2.2030 *    -1.1015 *    -1.1015 *  0.0000     2          
     5  Na    c      2.2030 *     1.1015 *     1.1015 *  0.0000     2          
     6  O     c      0.0000       1.1015 *    -3.3044 *  0.0000     1          
     7  O     c      0.0000      -3.3044 *     1.1015 *  0.0000     1          
     8  Na    c      0.0000       1.1015 *     3.3044 *  0.0000     1          
     9  Na    c      0.0000      -3.3044 *    -1.1015 *  0.0000     1          
    10  Na    c      0.0000      -1.1015 *    -3.3044 *  0.0000     1          
    11  Na    c      0.0000       3.3044 *     1.1015 *  0.0000     1          
    12  Cl    c      2.2030 *    -1.1015 *     3.3044 *  0.0000     2          
    13  Na    c      2.2030 *     1.1015 *    -3.3044 *  0.0000     2          
    14  Cl    c      2.2030 *     3.3044 *    -1.1015 *  0.0000     2          
    15  Na    c      2.2030 *    -3.3044 *     1.1015 *  0.0000     2          
    16  O     c      0.0000      -3.3044 *    -3.3044 *  0.0000     1          
    17  Na    c      0.0000      -3.3044 *     3.3044 *  0.0000     1          
    18  Na    c      0.0000       3.3044 *    -3.3044 *  0.0000     1          
    19  O     c      4.4059 *     1.1015 *     1.1015 *  0.0000     2          
    20  Na    c      4.4059 *     1.1015 *    -1.1015 *  0.0000     2          
    21  Na    c      4.4059 *    -1.1015 *     1.1015 *  0.0000     2          
    22  Cl    c      2.2030 *     3.3044 *     3.3044 *  0.0000     2          
    23  Na    c      2.2030 *    -3.3044 *    -3.3044 *  0.0000     2          
    24  O     c      0.0000       1.1015 *     5.5074 *  0.0000     1          
    25  O     c      0.0000       5.5074 *     1.1015 *  0.0000     1          
    26  O     c      4.4059 *     1.1015 *    -3.3044 *  0.0000     2          
    27  Na    c      0.0000       1.1015 *    -5.5074 *  0.0000     1          
    28  Na    c      0.0000       5.5074 *    -1.1015 *  0.0000     1          
    29  Na    c      4.4059 *     1.1015 *     3.3044 *  0.0000     2          
    30  Na    c      0.0000      -1.1015 *     5.5074 *  0.0000     1          
    31  Na    c      0.0000      -5.5074 *     1.1015 *  0.0000     1          
    32  Na    c      4.4059 *    -1.1015 *    -3.3044 *  0.0000     2          
    33  O     c      4.4059 *    -3.3044 *     1.1015 *  0.0000     2          
    34  Na    c      4.4059 *    -3.3044 *    -1.1015 *  0.0000     2          
    35  Na    c      4.4059 *     3.3044 *     1.1015 *  0.0000     2          
    36  Cl    c      2.2030 *    -1.1015 *    -5.5074 *  0.0000     2          
    37  Cl    c      2.2030 *    -5.5074 *    -1.1015 *  0.0000     2          
    38  Na    c      2.2030 *     1.1015 *     5.5074 *  0.0000     2          
    39  Na    c      2.2030 *     5.5074 *     1.1015 *  0.0000     2          
    40  O     c      0.0000       5.5074 *    -3.3044 *  0.0000     1          
    41  O     c      0.0000      -3.3044 *     5.5074 *  0.0000     1          
    42  Na    c      0.0000       5.5074 *     3.3044 *  0.0000     1          
    43  Na    c      0.0000      -3.3044 *    -5.5074 *  0.0000     1          
    44  Na    c      0.0000       3.3044 *     5.5074 *  0.0000     1          
    45  Na    c      0.0000      -5.5074 *    -3.3044 *  0.0000     1          
    46  O     c      4.4059 *    -3.3044 *    -3.3044 *  0.0000     2          
    47  Na    c      4.4059 *    -3.3044 *     3.3044 *  0.0000     2          
    48  Na    c      4.4059 *     3.3044 *    -3.3044 *  0.0000     2          
    49  Cl    c      6.6089 *    -1.1015 *    -1.1015 *  0.0000     2          
    50  Na    c      6.6089 *     1.1015 *     1.1015 *  0.0000     2          
    51  Cl    c      2.2030 *     3.3044 *    -5.5074 *  0.0000     2          
    52  Cl    c      2.2030 *    -5.5074 *     3.3044 *  0.0000     2          
    53  Na    c      2.2030 *     5.5074 *    -3.3044 *  0.0000     2          
    54  Na    c      2.2030 *    -3.3044 *     5.5074 *  0.0000     2          
    55  O     c      4.4059 *     1.1015 *     5.5074 *  0.0000     2          
    56  O     c      4.4059 *     5.5074 *     1.1015 *  0.0000     2          
    57  Na    c      4.4059 *     1.1015 *    -5.5074 *  0.0000     2          
    58  Na    c      4.4059 *     5.5074 *    -1.1015 *  0.0000     2          
    59  Na    c      4.4059 *    -1.1015 *     5.5074 *  0.0000     2          
    60  Na    c      4.4059 *    -5.5074 *     1.1015 *  0.0000     2          
    61  Cl    c      6.6089 *    -1.1015 *     3.3044 *  0.0000     2          
    62  Cl    c      6.6089 *     3.3044 *    -1.1015 *  0.0000     2          
    63  Na    c      6.6089 *     1.1015 *    -3.3044 *  0.0000     2          
    64  Na    c      6.6089 *    -3.3044 *     1.1015 *  0.0000     2          
    65  O     c      0.0000       1.1015 *    -7.7103 *  0.0000     1          
    66  O     c      0.0000       5.5074 *     5.5074 *  0.0000     1          
    67  O     c      0.0000      -7.7103 *     1.1015 *  0.0000     1          
    68  Na    c      0.0000       1.1015 *     7.7103 *  0.0000     1          
    69  Na    c      0.0000       5.5074 *    -5.5074 *  0.0000     1          
    70  Na    c      0.0000      -7.7103 *    -1.1015 *  0.0000     1          
    71  Na    c      0.0000      -1.1015 *    -7.7103 *  0.0000     1          
    72  Na    c      0.0000       7.7103 *     1.1015 *  0.0000     1          
    73  Na    c      0.0000      -5.5074 *     5.5074 *  0.0000     1          
    74  O     c      4.4059 *     5.5074 *    -3.3044 *  0.0000     2          
    75  O     c      4.4059 *    -3.3044 *     5.5074 *  0.0000     2          
    76  Na    c      4.4059 *     5.5074 *     3.3044 *  0.0000     2          
    77  Na    c      4.4059 *    -3.3044 *    -5.5074 *  0.0000     2          
    78  Na    c      4.4059 *     3.3044 *     5.5074 *  0.0000     2          
    79  Na    c      4.4059 *    -5.5074 *    -3.3044 *  0.0000     2          
    80  Cl    c      2.2030 *    -1.1015 *     7.7103 *  0.0000     2          
    81  Cl    c      2.2030 *    -5.5074 *    -5.5074 *  0.0000     2          
    82  Cl    c      6.6089 *     3.3044 *     3.3044 *  0.0000     2          
    83  Na    c      2.2030 *     1.1015 *    -7.7103 *  0.0000     2          
    84  Na    c      2.2030 *     5.5074 *     5.5074 *  0.0000     2          
    85  Na    c      6.6089 *    -3.3044 *    -3.3044 *  0.0000     2          
    86  Cl    c      2.2030 *     7.7103 *    -1.1015 *  0.0000     2          
    87  Na    c      2.2030 *    -7.7103 *     1.1015 *  0.0000     2          
    88  O     c      0.0000      -3.3044 *    -7.7103 *  0.0000     1          
    89  O     c      0.0000      -7.7103 *    -3.3044 *  0.0000     1          
    90  Na    c      0.0000      -3.3044 *     7.7103 *  0.0000     1          
    91  Na    c      0.0000      -7.7103 *     3.3044 *  0.0000     1          
    92  Na    c      0.0000       3.3044 *    -7.7103 *  0.0000     1          
    93  Na    c      0.0000       7.7103 *    -3.3044 *  0.0000     1          
    94  Cl    c      2.2030 *     3.3044 *     7.7103 *  0.0000     2          
    95  Cl    c      6.6089 *    -1.1015 *    -5.5074 *  0.0000     2          
    96  Na    c      2.2030 *    -3.3044 *    -7.7103 *  0.0000     2          
    97  Na    c      6.6089 *     1.1015 *     5.5074 *  0.0000     2          
    98  Cl    c      2.2030 *     7.7103 *     3.3044 *  0.0000     2          
    99  Cl    c      6.6089 *    -5.5074 *    -1.1015 *  0.0000     2          
   100  Na    c      2.2030 *    -7.7103 *    -3.3044 *  0.0000     2          
   101  Na    c      6.6089 *     5.5074 *     1.1015 *  0.0000     2          
   102  O     c      4.4059 *     1.1015 *    -7.7103 *  0.0000     2          
   103  O     c      4.4059 *     5.5074 *     5.5074 *  0.0000     2          
   104  Na    c      4.4059 *     1.1015 *     7.7103 *  0.0000     2          
   105  Na    c      4.4059 *     5.5074 *    -5.5074 *  0.0000     2          
   106  Na    c      4.4059 *    -1.1015 *    -7.7103 *  0.0000     2          
   107  Na    c      4.4059 *    -5.5074 *     5.5074 *  0.0000     2          
   108  O     c      4.4059 *    -7.7103 *     1.1015 *  0.0000     2          
   109  O     c      8.8118 *     1.1015 *     1.1015 *  0.0000     2          
   110  Na    c      4.4059 *    -7.7103 *    -1.1015 *  0.0000     2          
   111  Na    c      8.8118 *     1.1015 *    -1.1015 *  0.0000     2          
   112  Na    c      4.4059 *     7.7103 *     1.1015 *  0.0000     2          
   113  Na    c      8.8118 *    -1.1015 *     1.1015 *  0.0000     2          
   114  Cl    c      6.6089 *     3.3044 *    -5.5074 *  0.0000     2          
   115  Cl    c      6.6089 *    -5.5074 *     3.3044 *  0.0000     2          
   116  Na    c      6.6089 *     5.5074 *    -3.3044 *  0.0000     2          
   117  Na    c      6.6089 *    -3.3044 *     5.5074 *  0.0000     2          
   118  O     c      0.0000       5.5074 *    -7.7103 *  0.0000     1          
   119  O     c      0.0000      -7.7103 *     5.5074 *  0.0000     1          
   120  O     c      4.4059 *    -3.3044 *    -7.7103 *  0.0000     2          
   121  Na    c      0.0000       5.5074 *     7.7103 *  0.0000     1          
   122  Na    c      0.0000      -7.7103 *    -5.5074 *  0.0000     1          
   123  Na    c      4.4059 *    -3.3044 *     7.7103 *  0.0000     2          
   124  Na    c      0.0000       7.7103 *     5.5074 *  0.0000     1          
   125  Na    c      0.0000      -5.5074 *    -7.7103 *  0.0000     1          
   126  Na    c      4.4059 *     3.3044 *    -7.7103 *  0.0000     2          
   127  O     c      4.4059 *    -7.7103 *    -3.3044 *  0.0000     2          
   128  O     c      8.8118 *     1.1015 *    -3.3044 *  0.0000     2          
   129  O     c      8.8118 *    -3.3044 *     1.1015 *  0.0000     2          
   130  Na    c      4.4059 *    -7.7103 *     3.3044 *  0.0000     2          
   131  Na    c      8.8118 *     1.1015 *     3.3044 *  0.0000     2          
   132  Na    c      8.8118 *    -3.3044 *    -1.1015 *  0.0000     2          
   133  Na    c      4.4059 *     7.7103 *    -3.3044 *  0.0000     2          
   134  Na    c      8.8118 *    -1.1015 *    -3.3044 *  0.0000     2          
   135  Na    c      8.8118 *     3.3044 *     1.1015 *  0.0000     2          
   136  Cl    c      2.2030 *     7.7103 *    -5.5074 *  0.0000     2          
   137  Cl    c      2.2030 *    -5.5074 *     7.7103 *  0.0000     2          
   138  Na    c      2.2030 *     5.5074 *    -7.7103 *  0.0000     2          
   139  Na    c      2.2030 *    -7.7103 *     5.5074 *  0.0000     2          
   140  O     c      0.0000       1.1015 *     9.9133 *  0.0000     1          
   141  O     c      0.0000       9.9133 *     1.1015 *  0.0000     1          
   142  O     c      8.8118 *    -3.3044 *    -3.3044 *  0.0000     2          
   143  Na    c      0.0000       1.1015 *    -9.9133 *  0.0000     1          
   144  Na    c      0.0000       9.9133 *    -1.1015 *  0.0000     1          
   145  Na    c      8.8118 *    -3.3044 *     3.3044 *  0.0000     2          
   146  Na    c      0.0000      -1.1015 *     9.9133 *  0.0000     1          
   147  Na    c      0.0000      -9.9133 *     1.1015 *  0.0000     1          
   148  Na    c      8.8118 *     3.3044 *    -3.3044 *  0.0000     2          
   149  Cl    c      2.2030 *    -1.1015 *    -9.9133 *  0.0000     2          
   150  Cl    c      6.6089 *    -1.1015 *     7.7103 *  0.0000     2          
   151  Cl    c      6.6089 *     7.7103 *    -1.1015 *  0.0000     2          
   152  Cl    c      6.6089 *    -5.5074 *    -5.5074 *  0.0000     2          
   153  Na    c      2.2030 *     1.1015 *     9.9133 *  0.0000     2          
   154  Na    c      6.6089 *     1.1015 *    -7.7103 *  0.0000     2          
   155  Na    c      6.6089 *     5.5074 *     5.5074 *  0.0000     2          
   156  Na    c      6.6089 *    -7.7103 *     1.1015 *  0.0000     2          
   157  Cl    c      2.2030 *    -9.9133 *    -1.1015 *  0.0000     2          
   158  Na    c      2.2030 *     9.9133 *     1.1015 *  0.0000     2          
   159  O     c      0.0000       9.9133 *    -3.3044 *  0.0000     1          
   160  O     c      0.0000      -3.3044 *     9.9133 *  0.0000     1          
   161  O     c      4.4059 *     5.5074 *    -7.7103 *  0.0000     2          
   162  O     c      4.4059 *    -7.7103 *     5.5074 *  0.0000     2          
   163  O     c      8.8118 *     1.1015 *     5.5074 *  0.0000     2          
   164  O     c      8.8118 *     5.5074 *     1.1015 *  0.0000     2          
   165  Na    c      0.0000       9.9133 *     3.3044 *  0.0000     1          
   166  Na    c      0.0000      -3.3044 *    -9.9133 *  0.0000     1          
   167  Na    c      4.4059 *     5.5074 *     7.7103 *  0.0000     2          
   168  Na    c      4.4059 *    -7.7103 *    -5.5074 *  0.0000     2          
   169  Na    c      8.8118 *     1.1015 *    -5.5074 *  0.0000     2          
   170  Na    c      8.8118 *     5.5074 *    -1.1015 *  0.0000     2          
   171  Na    c      0.0000       3.3044 *     9.9133 *  0.0000     1          
   172  Na    c      0.0000      -9.9133 *    -3.3044 *  0.0000     1          
   173  Na    c      4.4059 *     7.7103 *     5.5074 *  0.0000     2          
   174  Na    c      4.4059 *    -5.5074 *    -7.7103 *  0.0000     2          
   175  Na    c      8.8118 *    -1.1015 *     5.5074 *  0.0000     2          
   176  Na    c      8.8118 *    -5.5074 *     1.1015 *  0.0000     2          
   177  Cl    c      6.6089 *     7.7103 *     3.3044 *  0.0000     2          
   178  Na    c      6.6089 *    -7.7103 *    -3.3044 *  0.0000     2          
   179  Cl    c      2.2030 *     3.3044 *    -9.9133 *  0.0000     2          
   180  Cl    c      2.2030 *    -9.9133 *     3.3044 *  0.0000     2          
   181  Cl    c      6.6089 *     3.3044 *     7.7103 *  0.0000     2          
   182  Na    c      2.2030 *     9.9133 *    -3.3044 *  0.0000     2          
   183  Na    c      2.2030 *    -3.3044 *     9.9133 *  0.0000     2          
   184  Na    c      6.6089 *    -3.3044 *    -7.7103 *  0.0000     2          
   185  O     c      0.0000      -7.7103 *    -7.7103 *  0.0000     1          
   186  O     c      4.4059 *     1.1015 *     9.9133 *  0.0000     2          
   187  O     c      4.4059 *     9.9133 *     1.1015 *  0.0000     2          
   188  O     c      8.8118 *     5.5074 *    -3.3044 *  0.0000     2          
   189  O     c      8.8118 *    -3.3044 *     5.5074 *  0.0000     2          
   190  Na    c      0.0000      -7.7103 *     7.7103 *  0.0000     1          
   191  Na    c      4.4059 *     1.1015 *    -9.9133 *  0.0000     2          
   192  Na    c      4.4059 *     9.9133 *    -1.1015 *  0.0000     2          
   193  Na    c      8.8118 *     5.5074 *     3.3044 *  0.0000     2          
   194  Na    c      8.8118 *    -3.3044 *    -5.5074 *  0.0000     2          
   195  Na    c      0.0000       7.7103 *    -7.7103 *  0.0000     1          
   196  Na    c      4.4059 *    -1.1015 *     9.9133 *  0.0000     2          
   197  Na    c      4.4059 *    -9.9133 *     1.1015 *  0.0000     2          
   198  Na    c      8.8118 *     3.3044 *     5.5074 *  0.0000     2          
   199  Na    c      8.8118 *    -5.5074 *    -3.3044 *  0.0000     2          
   200  Cl    c      2.2030 *     7.7103 *     7.7103 *  0.0000     2          
   201  Cl    c     11.0148 *    -1.1015 *    -1.1015 *  0.0000     2          
   202  Na    c      2.2030 *    -7.7103 *    -7.7103 *  0.0000     2          
   203  Na    c     11.0148 *     1.1015 *     1.1015 *  0.0000     2          
   204  O     c      4.4059 *     9.9133 *    -3.3044 *  0.0000     2          
   205  Na    c      4.4059 *     9.9133 *     3.3044 *  0.0000     2          
   206  Na    c      4.4059 *    -9.9133 *    -3.3044 *  0.0000     2          
   207  O     c      0.0000       5.5074 *     9.9133 *  0.0000     1          
   208  O     c      0.0000       9.9133 *     5.5074 *  0.0000     1          
   209  O     c      4.4059 *    -3.3044 *     9.9133 *  0.0000     2          
   210  Na    c      0.0000       5.5074 *    -9.9133 *  0.0000     1          
   211  Na    c      0.0000       9.9133 *    -5.5074 *  0.0000     1          
   212  Na    c      4.4059 *    -3.3044 *    -9.9133 *  0.0000     2          
   213  Na    c      0.0000      -5.5074 *     9.9133 *  0.0000     1          
   214  Na    c      0.0000      -9.9133 *     5.5074 *  0.0000     1          
   215  Na    c      4.4059 *     3.3044 *     9.9133 *  0.0000     2          
   216  Cl    c      2.2030 *    -5.5074 *    -9.9133 *  0.0000     2          
   217  Cl    c      2.2030 *    -9.9133 *    -5.5074 *  0.0000     2          
   218  Cl    c      6.6089 *     7.7103 *    -5.5074 *  0.0000     2          
   219  Cl    c      6.6089 *    -5.5074 *     7.7103 *  0.0000     2          
   220  Cl    c     11.0148 *    -1.1015 *     3.3044 *  0.0000     2          
   221  Cl    c     11.0148 *     3.3044 *    -1.1015 *  0.0000     2          
   222  Na    c      2.2030 *     5.5074 *     9.9133 *  0.0000     2          
   223  Na    c      2.2030 *     9.9133 *     5.5074 *  0.0000     2          
   224  Na    c      6.6089 *     5.5074 *    -7.7103 *  0.0000     2          
   225  Na    c      6.6089 *    -7.7103 *     5.5074 *  0.0000     2          
   226  Na    c     11.0148 *     1.1015 *    -3.3044 *  0.0000     2          
   227  Na    c     11.0148 *    -3.3044 *     1.1015 *  0.0000     2          
   228  O     c      4.4059 *    -7.7103 *    -7.7103 *  0.0000     2          
   229  O     c      8.8118 *     1.1015 *    -7.7103 *  0.0000     2          
   230  O     c      8.8118 *     5.5074 *     5.5074 *  0.0000     2          
   231  Na    c      4.4059 *    -7.7103 *     7.7103 *  0.0000     2          
   232  Na    c      8.8118 *     1.1015 *     7.7103 *  0.0000     2          
   233  Na    c      8.8118 *     5.5074 *    -5.5074 *  0.0000     2          
   234  Na    c      4.4059 *     7.7103 *    -7.7103 *  0.0000     2          
   235  Na    c      8.8118 *    -1.1015 *    -7.7103 *  0.0000     2          
   236  Na    c      8.8118 *    -5.5074 *     5.5074 *  0.0000     2          
   237  O     c      8.8118 *    -7.7103 *     1.1015 *  0.0000     2          
   238  Na    c      8.8118 *    -7.7103 *    -1.1015 *  0.0000     2          
   239  Na    c      8.8118 *     7.7103 *     1.1015 *  0.0000     2          
   240  Cl    c     11.0148 *     3.3044 *     3.3044 *  0.0000     2          
   241  Na    c     11.0148 *    -3.3044 *    -3.3044 *  0.0000     2          
   242  Cl    c      6.6089 *    -1.1015 *    -9.9133 *  0.0000     2          
   243  Cl    c      6.6089 *    -9.9133 *    -1.1015 *  0.0000     2          
   244  Na    c      6.6089 *     1.1015 *     9.9133 *  0.0000     2          
   245  Na    c      6.6089 *     9.9133 *     1.1015 *  0.0000     2          
   246  O     s      0.0000       1.1015 *     1.1015 *  0.0000     1          
   247  Ba    s      0.0000       1.1015      -1.1015    0.0000     1    Defect
   248  Cl    s      2.2030 *    -1.1015 *    -1.1015 *  0.0000     2          
   249  O     s      0.0000       1.1015 *    -3.3044 *  0.0000     1          
   250  O     s      0.0000      -3.3044 *     1.1015 *  0.0000     1          
   251  Cl    s      2.2030 *    -1.1015 *     3.3044 *  0.0000     2          
   252  Cl    s      2.2030 *     3.3044 *    -1.1015 *  0.0000     2          
   253  O     s      0.0000      -3.3044 *    -3.3044 *  0.0000     1          
   254  O     s      4.4059 *     1.1015 *     1.1015 *  0.0000     2          
   255  Cl    s      2.2030 *     3.3044 *     3.3044 *  0.0000     2          
   256  O     s      0.0000       1.1015 *     5.5074 *  0.0000     1          
   257  O     s      0.0000       5.5074 *     1.1015 *  0.0000     1          
   258  O     s      4.4059 *     1.1015 *    -3.3044 *  0.0000     2          
   259  O     s      4.4059 *    -3.3044 *     1.1015 *  0.0000     2          
   260  Cl    s      2.2030 *    -1.1015 *    -5.5074 *  0.0000     2          
   261  Cl    s      2.2030 *    -5.5074 *    -1.1015 *  0.0000     2          
   262  O     s      0.0000       5.5074 *    -3.3044 *  0.0000     1          
   263  O     s      0.0000      -3.3044 *     5.5074 *  0.0000     1          
   264  O     s      4.4059 *    -3.3044 *    -3.3044 *  0.0000     2          
   265  Cl    s      6.6089 *    -1.1015 *    -1.1015 *  0.0000     2          
   266  Cl    s      2.2030 *     3.3044 *    -5.5074 *  0.0000     2          
   267  Cl    s      2.2030 *    -5.5074 *     3.3044 *  0.0000     2          
   268  O     s      4.4059 *     1.1015 *     5.5074 *  0.0000     2          
   269  O     s      4.4059 *     5.5074 *     1.1015 *  0.0000     2          
   270  Cl    s      6.6089 *    -1.1015 *     3.3044 *  0.0000     2          
   271  Cl    s      6.6089 *     3.3044 *    -1.1015 *  0.0000     2          
   272  O     s      0.0000       1.1015 *    -7.7103 *  0.0000     1          
   273  O     s      0.0000       5.5074 *     5.5074 *  0.0000     1          
   274  O     s      0.0000      -7.7103 *     1.1015 *  0.0000     1          
   275  O     s      4.4059 *     5.5074 *    -3.3044 *  0.0000     2          
   276  O     s      4.4059 *    -3.3044 *     5.5074 *  0.0000     2          
   277  Cl    s      2.2030 *    -1.1015 *     7.7103 *  0.0000     2          
   278  Cl    s      2.2030 *    -5.5074 *    -5.5074 *  0.0000     2          
   279  Cl    s      6.6089 *     3.3044 *     3.3044 *  0.0000     2          
   280  Cl    s      2.2030 *     7.7103 *    -1.1015 *  0.0000     2          
   281  O     s      0.0000      -3.3044 *    -7.7103 *  0.0000     1          
   282  O     s      0.0000      -7.7103 *    -3.3044 *  0.0000     1          
   283  Cl    s      2.2030 *     3.3044 *     7.7103 *  0.0000     2          
   284  Cl    s      6.6089 *    -1.1015 *    -5.5074 *  0.0000     2          
   285  Cl    s      2.2030 *     7.7103 *     3.3044 *  0.0000     2          
   286  Cl    s      6.6089 *    -5.5074 *    -1.1015 *  0.0000     2          
   287  O     s      4.4059 *     1.1015 *    -7.7103 *  0.0000     2          
   288  O     s      4.4059 *     5.5074 *     5.5074 *  0.0000     2          
   289  O     s      4.4059 *    -7.7103 *     1.1015 *  0.0000     2          
   290  O     s      8.8118 *     1.1015 *     1.1015 *  0.0000     2          
   291  Cl    s      6.6089 *     3.3044 *    -5.5074 *  0.0000     2          
   292  Cl    s      6.6089 *    -5.5074 *     3.3044 *  0.0000     2          
   293  O     s      0.0000       5.5074 *    -7.7103 *  0.0000     1          
   294  O     s      0.0000      -7.7103 *     5.5074 *  0.0000     1          
   295  O     s      4.4059 *    -3.3044 *    -7.7103 *  0.0000     2          
   296  O     s      4.4059 *    -7.7103 *    -3.3044 *  0.0000     2          
   297  O     s      8.8118 *     1.1015 *    -3.3044 *  0.0000     2          
   298  O     s      8.8118 *    -3.3044 *     1.1015 *  0.0000     2          
   299  Cl    s      2.2030 *     7.7103 *    -5.5074 *  0.0000     2          
   300  Cl    s      2.2030 *    -5.5074 *     7.7103 *  0.0000     2          
   301  O     s      0.0000       1.1015 *     9.9133 *  0.0000     1          
   302  O     s      0.0000       9.9133 *     1.1015 *  0.0000     1          
   303  O     s      8.8118 *    -3.3044 *    -3.3044 *  0.0000     2          
   304  Cl    s      2.2030 *    -1.1015 *    -9.9133 *  0.0000     2          
   305  Cl    s      6.6089 *    -1.1015 *     7.7103 *  0.0000     2          
   306  Cl    s      6.6089 *     7.7103 *    -1.1015 *  0.0000     2          
   307  Cl    s      6.6089 *    -5.5074 *    -5.5074 *  0.0000     2          
   308  Cl    s      2.2030 *    -9.9133 *    -1.1015 *  0.0000     2          
   309  O     s      0.0000       9.9133 *    -3.3044 *  0.0000     1          
   310  O     s      0.0000      -3.3044 *     9.9133 *  0.0000     1          
   311  O     s      4.4059 *     5.5074 *    -7.7103 *  0.0000     2          
   312  O     s      4.4059 *    -7.7103 *     5.5074 *  0.0000     2          
   313  O     s      8.8118 *     1.1015 *     5.5074 *  0.0000     2          
   314  O     s      8.8118 *     5.5074 *     1.1015 *  0.0000     2          
   315  Cl    s      6.6089 *     7.7103 *     3.3044 *  0.0000     2          
   316  Cl    s      2.2030 *     3.3044 *    -9.9133 *  0.0000     2          
   317  Cl    s      2.2030 *    -9.9133 *     3.3044 *  0.0000     2          
   318  Cl    s      6.6089 *     3.3044 *     7.7103 *  0.0000     2          
   319  O     s      0.0000      -7.7103 *    -7.7103 *  0.0000     1          
   320  O     s      4.4059 *     1.1015 *     9.9133 *  0.0000     2          
   321  O     s      4.4059 *     9.9133 *     1.1015 *  0.0000     2          
   322  O     s      8.8118 *     5.5074 *    -3.3044 *  0.0000     2          
   323  O     s      8.8118 *    -3.3044 *     5.5074 *  0.0000     2          
   324  Cl    s      2.2030 *     7.7103 *     7.7103 *  0.0000     2          
   325  Cl    s     11.0148 *    -1.1015 *    -1.1015 *  0.0000     2          
   326  O     s      4.4059 *     9.9133 *    -3.3044 *  0.0000     2          
   327  O     s      0.0000       5.5074 *     9.9133 *  0.0000     1          
   328  O     s      0.0000       9.9133 *     5.5074 *  0.0000     1          
   329  O     s      4.4059 *    -3.3044 *     9.9133 *  0.0000     2          
   330  Cl    s      2.2030 *    -5.5074 *    -9.9133 *  0.0000     2          
   331  Cl    s      2.2030 *    -9.9133 *    -5.5074 *  0.0000     2          
   332  Cl    s      6.6089 *     7.7103 *    -5.5074 *  0.0000     2          
   333  Cl    s      6.6089 *    -5.5074 *     7.7103 *  0.0000     2          
   334  Cl    s     11.0148 *    -1.1015 *     3.3044 *  0.0000     2          
   335  Cl    s     11.0148 *     3.3044 *    -1.1015 *  0.0000     2          
   336  O     s      4.4059 *    -7.7103 *    -7.7103 *  0.0000     2          
   337  O     s      8.8118 *     1.1015 *    -7.7103 *  0.0000     2          
   338  O     s      8.8118 *     5.5074 *     5.5074 *  0.0000     2          
   339  O     s      8.8118 *    -7.7103 *     1.1015 *  0.0000     2          
   340  Cl    s     11.0148 *     3.3044 *     3.3044 *  0.0000     2          
   341  Cl    s      6.6089 *    -1.1015 *    -9.9133 *  0.0000     2          
   342  Cl    s      6.6089 *    -9.9133 *    -1.1015 *  0.0000     2          
--------------------------------------------------------------------------------

  Components of defect energy : 

--------------------------------------------------------------------------------
  Region 1 - region 1                   =     -3.81532948 eV
  Region 1 - region 2a (unrelaxed)      =      0.01262540 eV
  Region 1 - 2a (relaxed - correction)  =     -0.55567824 eV
  Region 1 (Total)                      =     -4.35838232 eV
  Region 2a                             =      0.27791226 eV
  Region 2b                             =     -0.27349430 eV
--------------------------------------------------------------------------------
  Total defect energy                   =     -4.35396436 eV
--------------------------------------------------------------------------------

  Largest displacement in region 2 =   0.0187 Angstroms


  Number of variables =      933

  Maximum number of calculations  =        1000
  Maximum Hessian update interval =          10
  Maximum step size               =   1.0000000
  Maximum parameter tolerance     =   0.0000100
  Maximum function  tolerance     =   0.0000100
  Maximum gradient  tolerance     =   0.0010000

  Symmetry adapted optimisation

  Symmetry to be used for second derivatives

  Newton-Raphson optimiser to be used

  BFGS hessian update to be used

  Lower half triangular hessian to be used

  Start of defect optimisation :

  Cycle:      0 Defect Energy:  -4.353964  Gnorm:     0.017429  CPU:    6.590
  ** Hessian calculated **
  Cycle:      1 Defect Energy:  -6.084487  Gnorm:     0.011039  CPU:   23.399
  Cycle:      2 Defect Energy:  -7.114226  Gnorm:     0.003813  CPU:   40.015
  Cycle:      3 Defect Energy:  -7.170364  Gnorm:     0.003066  CPU:   43.134
  Cycle:      4 Defect Energy:  -7.249521  Gnorm:     0.001552  CPU:   45.843
  Cycle:      5 Defect Energy:  -7.275247  Gnorm:     0.001035  CPU:   48.575
  Cycle:      6 Defect Energy:  -7.286105  Gnorm:     0.000693  CPU:   54.711
  Cycle:      7 Defect Energy:  -7.291489  Gnorm:     0.000463  CPU:   58.160
  Cycle:      8 Defect Energy:  -7.294468  Gnorm:     0.000257  CPU:   61.506
  Cycle:      9 Defect Energy:  -7.295245  Gnorm:     0.000162  CPU:   64.810
  Cycle:     10 Defect Energy:  -7.295511  Gnorm:     0.000111  CPU:   67.666
  ** Hessian calculated **
  Cycle:     11 Defect Energy:  -7.295611  Gnorm:     0.000078  CPU:   74.350
  Cycle:     12 Defect Energy:  -7.295648  Gnorm:     0.000054  CPU:   77.174


  **** Optimisation achieved ****


  Final defect energy  =       -7.29565758
  Final defect Gnorm   =        0.00003803

  Components of defect energy : 

--------------------------------------------------------------------------------
  Region 1 - region 1                   =     -7.67500393 eV
  Region 1 - region 2a (unrelaxed)      =      0.89583709 eV
  Region 1 - 2a (relaxed - correction)  =     -0.48735015 eV
  Region 1 (Total)                      =     -7.26651700 eV
  Region 2a                             =      0.24362565 eV
  Region 2b                             =     -0.27276623 eV
--------------------------------------------------------------------------------
  Total defect energy                   =     -7.29565758 eV
--------------------------------------------------------------------------------

  Largest displacement in region 2 =   0.0187 Angstroms

  Final coordinates of region 1 :

--------------------------------------------------------------------------------
   No.  Atomic        x           y           z          Radius      Charge
        Label       (Angs)      (Angs)      (Angs)       (Angs)       (e) 
--------------------------------------------------------------------------------
     1  O     c     2.202951    2.202222    2.405425    0.000000    0.183000
     2  Na    c     2.202951   -0.072004    2.613790    0.000000    1.000000
     3  Ba    c     2.202951    2.202951    0.000000    0.000000   -7.203000
     4  Cl    c     4.429855   -0.022289   -0.001462    0.000000    1.485000
     5  Cl    c    -0.023953   -0.022289   -0.001462    0.000000    1.485000
     6  Na    c     4.477508    2.201631    2.613835    0.000000    1.000000
     7  Na    c    -0.071606    2.201631    2.613835    0.000000    1.000000
     8  O     c     2.202951    2.202445   -2.403327    0.000000    0.183000
     9  O     c     2.202951   -2.202524    2.231536    0.000000    0.183000
    10  Na    c     2.202951    2.201526    4.576373    0.000000    1.000000
    11  Na    c     2.202951   -2.106291    0.002303    0.000000    1.000000
    12  Na    c     2.202951   -0.071480   -2.607059    0.000000    1.000000
    13  Na    c     2.202951    4.473908    2.608698    0.000000    1.000000
    14  Cl    c     4.391470    0.014770    4.449127    0.000000    1.485000
    15  Cl    c     0.014432    0.014770    4.449127    0.000000    1.485000
    16  Na    c     4.477114    2.200450   -2.606587    0.000000    1.000000
    17  Na    c    -0.071211    2.200450   -2.606587    0.000000    1.000000
    18  Cl    c     4.428898    4.429562   -0.002451    0.000000    1.485000
    19  Cl    c    -0.022996    4.429562   -0.002451    0.000000    1.485000
    20  Na    c     4.412063   -2.243591    2.197649    0.000000    1.000000
    21  Na    c    -0.006161   -2.243591    2.197649    0.000000    1.000000
    22  O     c     2.202951   -2.201290   -2.226974    0.000000    0.183000
    23  Na    c     2.202951   -2.411457    4.447508    0.000000    1.000000
    24  Na    c     2.202951    4.474437   -2.603966    0.000000    1.000000
    25  O     c     6.608424    2.201993    2.231482    0.000000    0.183000
    26  O     c    -2.202522    2.201993    2.231482    0.000000    0.183000
    27  Na    c     6.512044    2.202188    0.002214    0.000000    1.000000
    28  Na    c    -2.106141    2.202188    0.002214    0.000000    1.000000
    29  Na    c     6.646715   -0.007363    2.199954    0.000000    1.000000
    30  Na    c    -2.240812   -0.007363    2.199954    0.000000    1.000000
    31  Cl    c     4.390817    4.392081    4.447587    0.000000    1.485000
    32  Cl    c     0.015086    4.392081    4.447587    0.000000    1.485000
    33  Na    c     4.412742   -2.244671   -2.192348    0.000000    1.000000
    34  Na    c    -0.006840   -2.244671   -2.192348    0.000000    1.000000
    35  O     c     2.202951    2.200601    6.687565    0.000000    0.183000
    36  O     c     2.202951    6.605026    2.230739    0.000000    0.183000
    37  O     c     6.608055    2.201512   -2.227984    0.000000    0.183000
    38  O     c    -2.202152    2.201512   -2.227984    0.000000    0.183000
    39  Na    c     2.202951    2.204538   -4.570885    0.000000    1.000000
    40  Na    c     2.202951    6.519482    0.001181    0.000000    1.000000
    41  Na    c     6.816346    2.201824    4.447712    0.000000    1.000000
    42  Na    c    -2.410444    2.201824    4.447712    0.000000    1.000000
    43  Na    c     2.202951   -0.024553    6.680744    0.000000    1.000000
    44  Na    c     2.202951   -4.416219    2.111995    0.000000    1.000000
    45  Na    c     6.649064   -0.007911   -2.190712    0.000000    1.000000
    46  Na    c    -2.243162   -0.007911   -2.190712    0.000000    1.000000
    47  O     c     6.609913   -2.204428    2.205441    0.000000    0.183000
    48  O     c    -2.204010   -2.204428    2.205441    0.000000    0.183000
    49  Na    c     6.644636   -2.238441    0.001205    0.000000    1.000000
    50  Na    c    -2.238734   -2.238441    0.001205    0.000000    1.000000
    51  Na    c     6.651689    4.410665    2.200672    0.000000    1.000000
    52  Na    c    -2.245786    4.410665    2.200672    0.000000    1.000000
    53  Cl    c     4.391719    0.016699   -4.447544    0.000000    1.485000
    54  Cl    c     0.014184    0.016699   -4.447544    0.000000    1.485000
    55  Cl    c     4.393093   -4.373366    0.000621    0.000000    1.485000
    56  Cl    c     0.012809   -4.373366    0.000621    0.000000    1.485000
    57  Na    c     4.428480    2.199001    6.682104    0.000000    1.000000
    58  Na    c    -0.022577    2.199001    6.682104    0.000000    1.000000
    59  Na    c     4.412747    6.645580    2.195559    0.000000    1.000000
    60  Na    c    -0.006845    6.645580    2.195559    0.000000    1.000000
    61  O     c     2.202951    6.605936   -2.229868    0.000000    0.183000
    62  O     c     2.202951   -2.228256    6.632699    0.000000    0.183000
    63  Na    c     2.202951    6.797438    4.445869    0.000000    1.000000
    64  Na    c     2.202951   -2.403686   -4.440027    0.000000    1.000000
    65  Na    c     2.202951    4.423851    6.683572    0.000000    1.000000
    66  Na    c     2.202951   -4.415776   -2.108390    0.000000    1.000000
    67  O     c     6.610941   -2.204596   -2.203956    0.000000    0.183000
    68  O     c    -2.205039   -2.204596   -2.203956    0.000000    0.183000
    69  Na    c     6.617297   -2.216329    4.412021    0.000000    1.000000
    70  Na    c    -2.211395   -2.216329    4.412021    0.000000    1.000000
    71  Na    c     6.648957    4.409948   -2.195790    0.000000    1.000000
    72  Na    c    -2.243055    4.409948   -2.195790    0.000000    1.000000
    73  Cl    c     8.781546    0.012699   -0.001617    0.000000    1.485000
    74  Cl    c    -4.375643    0.012699   -0.001617    0.000000    1.485000
    75  Na    c     8.822164    2.197647    2.110860    0.000000    1.000000
    76  Na    c    -4.416262    2.197647    2.110860    0.000000    1.000000
    77  Cl    c     4.388866    4.392648   -4.446342    0.000000    1.485000
    78  Cl    c     0.017036    4.392648   -4.446342    0.000000    1.485000
    79  Cl    c     4.400760   -4.397414    4.401325    0.000000    1.485000
    80  Cl    c     0.005142   -4.397414    4.401325    0.000000    1.485000
    81  Na    c     4.412219    6.642236   -2.191609    0.000000    1.000000
    82  Na    c    -0.006317    6.642236   -2.191609    0.000000    1.000000
    83  Na    c     4.408496   -2.216683    6.631835    0.000000    1.000000
    84  Na    c    -0.002594   -2.216683    6.631835    0.000000    1.000000
    85  O     c     6.632766    2.202024    6.632858    0.000000    0.183000
    86  O     c    -2.226864    2.202024    6.632858    0.000000    0.183000
    87  O     c     6.610666    6.609475    2.205437    0.000000    0.183000
    88  O     c    -2.204763    6.609475    2.205437    0.000000    0.183000
    89  Na    c     6.809027    2.197416   -4.440512    0.000000    1.000000
    90  Na    c    -2.403125    2.197416   -4.440512    0.000000    1.000000
    91  Na    c     6.646837    6.636019    0.001794    0.000000    1.000000
    92  Na    c    -2.240935    6.636019    0.001794    0.000000    1.000000
    93  Na    c     6.620935   -0.004058    6.630896    0.000000    1.000000
    94  Na    c    -2.215032   -0.004058    6.630896    0.000000    1.000000
    95  Na    c     6.624632   -4.413057    2.215414    0.000000    1.000000
    96  Na    c    -2.218730   -4.413057    2.215414    0.000000    1.000000
    97  Cl    c     8.802781    0.004662    4.400041    0.000000    1.485000
    98  Cl    c    -4.396879    0.004662    4.400041    0.000000    1.485000
    99  Cl    c     8.779663    4.392643   -0.001635    0.000000    1.485000
   100  Cl    c    -4.373761    4.392643   -0.001635    0.000000    1.485000
   101  Na    c     8.822810    2.198807   -2.108853    0.000000    1.000000
   102  Na    c    -4.416908    2.198807   -2.108853    0.000000    1.000000
   103  Na    c     8.819154   -2.218300    2.216149    0.000000    1.000000
   104  Na    c    -4.413251   -2.218300    2.216149    0.000000    1.000000
   105  O     c     2.202951    2.204027   -6.680765    0.000000    0.183000
   106  O     c     2.202951    6.627784    6.629534    0.000000    0.183000
   107  O     c     2.202951   -6.610195    2.200231    0.000000    0.183000
   108  Na    c     2.202951    2.198205    8.855758    0.000000    1.000000
   109  Na    c     2.202951    6.798223   -4.442185    0.000000    1.000000
   110  Na    c     2.202951   -6.691733    0.002572    0.000000    1.000000
   111  Na    c     2.202951   -0.021930   -6.670303    0.000000    1.000000
   112  Na    c     2.202951    8.817371    2.130065    0.000000    1.000000
   113  Na    c     2.202951   -4.429661    6.717286    0.000000    1.000000
   114  O     c     6.609247    6.607867   -2.203324    0.000000    0.183000
   115  O     c    -2.203345    6.607867   -2.203324    0.000000    0.183000
   116  O     c     6.607946   -2.203413    6.610066    0.000000    0.183000
   117  O     c    -2.202044   -2.203413    6.610066    0.000000    0.183000
   118  Na    c     6.613776    6.616271    4.412396    0.000000    1.000000
   119  Na    c    -2.207874    6.616271    4.412396    0.000000    1.000000
   120  Na    c     6.617536   -2.210335   -4.409305    0.000000    1.000000
   121  Na    c    -2.211634   -2.210335   -4.409305    0.000000    1.000000
   122  Na    c     6.618678    4.407356    6.633654    0.000000    1.000000
   123  Na    c    -2.212775    4.407356    6.633654    0.000000    1.000000
   124  Na    c     6.625772   -4.413277   -2.212910    0.000000    1.000000
   125  Na    c    -2.219870   -4.413277   -2.212910    0.000000    1.000000
   126  Cl    c     4.408667   -0.002406    8.813132    0.000000    1.485000
   127  Cl    c    -0.002765   -0.002406    8.813132    0.000000    1.485000
   128  Cl    c     4.399849   -4.391795   -4.398643    0.000000    1.485000
   129  Cl    c     0.006053   -4.391795   -4.398643    0.000000    1.485000
   130  Cl    c     8.800042    4.401697    4.399750    0.000000    1.485000
   131  Cl    c    -4.394139    4.401697    4.399750    0.000000    1.485000
   132  Na    c     4.427902    2.204933   -6.672011    0.000000    1.000000
   133  Na    c    -0.021999    2.204933   -6.672011    0.000000    1.000000
   134  Na    c     4.407818    6.616214    6.635602    0.000000    1.000000
   135  Na    c    -0.001916    6.616214    6.635602    0.000000    1.000000
   136  Na    c     8.820422   -2.220617   -2.214612    0.000000    1.000000
   137  Na    c    -4.414519   -2.220617   -2.214612    0.000000    1.000000
   138  Cl    c     4.389666    8.782266   -0.000037    0.000000    1.485000
   139  Cl    c     0.016236    8.782266   -0.000037    0.000000    1.485000
   140  Na    c     4.406842   -6.622602    2.218049    0.000000    1.000000
   141  Na    c    -0.000940   -6.622602    2.218049    0.000000    1.000000
   142  O     c     2.202951   -2.224078   -6.625135    0.000000    0.183000
   143  O     c     2.202951   -6.610122   -2.195259    0.000000    0.183000
   144  Na    c     2.202951   -2.215115    8.835032    0.000000    1.000000
   145  Na    c     2.202951   -6.573443    4.410481    0.000000    1.000000
   146  Na    c     2.202951    4.428188   -6.677742    0.000000    1.000000
   147  Na    c     2.202951    8.818778   -2.128633    0.000000    1.000000
   148  Cl    c     4.410034    4.408572    8.811499    0.000000    1.485000
   149  Cl    c    -0.004132    4.408572    8.811499    0.000000    1.485000
   150  Cl    c     8.801328    0.004672   -4.399976    0.000000    1.485000
   151  Cl    c    -4.395426    0.004672   -4.399976    0.000000    1.485000
   152  Na    c     4.408642   -2.215330   -6.628712    0.000000    1.000000
   153  Na    c    -0.002739   -2.215330   -6.628712    0.000000    1.000000
   154  Na    c     8.833491    2.201481    6.716802    0.000000    1.000000
   155  Na    c    -4.427589    2.201481    6.716802    0.000000    1.000000
   156  Cl    c     4.399423    8.801842    4.396881    0.000000    1.485000
   157  Cl    c     0.006479    8.801842    4.396881    0.000000    1.485000
   158  Cl    c     8.798810   -4.389074   -0.002873    0.000000    1.485000
   159  Cl    c    -4.392907   -4.389074   -0.002873    0.000000    1.485000
   160  Na    c     4.406837   -6.622771   -2.210541    0.000000    1.000000
   161  Na    c    -0.000935   -6.622771   -2.210541    0.000000    1.000000
   162  Na    c     8.818827    6.626866    2.219751    0.000000    1.000000
   163  Na    c    -4.412925    6.626866    2.219751    0.000000    1.000000
   164  O     c     6.630754    2.203148   -6.626105    0.000000    0.183000
   165  O     c    -2.224852    2.203148   -6.626105    0.000000    0.183000
   166  O     c     6.607226    6.608951    6.611608    0.000000    0.183000
   167  O     c    -2.201324    6.608951    6.611608    0.000000    0.183000
   168  Na    c     6.619553    2.202483    8.835511    0.000000    1.000000
   169  Na    c    -2.213651    2.202483    8.835511    0.000000    1.000000
   170  Na    c     6.619047    6.624353   -4.409424    0.000000    1.000000
   171  Na    c    -2.213145    6.624353   -4.409424    0.000000    1.000000
   172  Na    c     6.613219   -0.004207   -6.632508    0.000000    1.000000
   173  Na    c    -2.207317   -0.004207   -6.632508    0.000000    1.000000
   174  Na    c     6.617022   -4.410858    6.623657    0.000000    1.000000
   175  Na    c    -2.211120   -4.410858    6.623657    0.000000    1.000000
   176  O     c     6.608424   -6.608512    2.204830    0.000000    0.183000
   177  O     c    -2.202522   -6.608512    2.204830    0.000000    0.183000
   178  O     c    11.015628    2.201933    2.198862    0.000000    0.183000
   179  O     c    -6.609726    2.201933    2.198862    0.000000    0.183000
   180  Na    c     6.606146   -6.621841    0.001187    0.000000    1.000000
   181  Na    c    -2.200243   -6.621841    0.001187    0.000000    1.000000
   182  Na    c    11.101726    2.197370    0.000779    0.000000    1.000000
   183  Na    c    -6.695823    2.197370    0.000779    0.000000    1.000000
   184  Na    c     6.626207    8.818064    2.217954    0.000000    1.000000
   185  Na    c    -2.220305    8.818064    2.217954    0.000000    1.000000
   186  Na    c    11.032416   -0.002377    2.219066    0.000000    1.000000
   187  Na    c    -6.626513   -0.002377    2.219066    0.000000    1.000000
   188  Cl    c     8.800209    4.399106   -4.402364    0.000000    1.485000
   189  Cl    c    -4.394307    4.399106   -4.402364    0.000000    1.485000
   190  Cl    c     8.801347   -4.395727    4.396208    0.000000    1.485000
   191  Cl    c    -4.395445   -4.395727    4.396208    0.000000    1.485000
   192  Na    c     8.817646    6.618709   -2.219789    0.000000    1.000000
   193  Na    c    -4.411744    6.618709   -2.219789    0.000000    1.000000
   194  Na    c     8.814652   -2.214957    6.613555    0.000000    1.000000
   195  Na    c    -4.408749   -2.214957    6.613555    0.000000    1.000000
   196  O     c     2.202951    6.633005   -6.627946    0.000000    0.183000
   197  O     c     2.202951   -6.614571    6.618160    0.000000    0.183000
   198  O     c     6.609007   -2.203162   -6.610145    0.000000    0.183000
   199  O     c    -2.203104   -2.203162   -6.610145    0.000000    0.183000
   200  Na    c     2.202951    6.616946    8.831783    0.000000    1.000000
   201  Na    c     2.202951   -6.580479   -4.403597    0.000000    1.000000
   202  Na    c     6.613347   -2.206075    8.815758    0.000000    1.000000
   203  Na    c    -2.207444   -2.206075    8.815758    0.000000    1.000000
   204  Na    c     2.202951    8.829297    6.687024    0.000000    1.000000
   205  Na    c     2.202951   -4.424312   -6.686356    0.000000    1.000000
   206  Na    c     6.623553    4.408539   -6.620090    0.000000    1.000000
   207  Na    c    -2.217650    4.408539   -6.620090    0.000000    1.000000
   208  O     c     6.609015   -6.608696   -2.202689    0.000000    0.183000
   209  O     c    -2.203113   -6.608696   -2.202689    0.000000    0.183000
   210  O     c    11.018604    2.201385   -2.199221    0.000000    0.183000
   211  O     c    -6.612702    2.201385   -2.199221    0.000000    0.183000
   212  O     c    11.015866   -2.204674    2.202566    0.000000    0.183000
   213  O     c    -6.609964   -2.204674    2.202566    0.000000    0.183000
   214  Na    c     6.622045   -6.616507    4.408968    0.000000    1.000000
   215  Na    c    -2.216143   -6.616507    4.408968    0.000000    1.000000
   216  Na    c    10.979724    2.204364    4.409536    0.000000    1.000000
   217  Na    c    -6.573821    2.204364    4.409536    0.000000    1.000000
   218  Na    c    11.026252   -2.197934   -0.000383    0.000000    1.000000
   219  Na    c    -6.620350   -2.197934   -0.000383    0.000000    1.000000
   220  Na    c     6.621476    8.814583   -2.204862    0.000000    1.000000
   221  Na    c    -2.215574    8.814583   -2.204862    0.000000    1.000000
   222  Na    c    11.031622   -0.002546   -2.212133    0.000000    1.000000
   223  Na    c    -6.625720   -0.002546   -2.212133    0.000000    1.000000
   224  Na    c    11.024870    4.405633    2.210549    0.000000    1.000000
   225  Na    c    -6.618968    4.405633    2.210549    0.000000    1.000000
   226  Cl    c     4.398269    8.801025   -4.403125    0.000000    1.485000
   227  Cl    c     0.007633    8.801025   -4.403125    0.000000    1.485000
   228  Cl    c     4.401695   -4.403224    8.807729    0.000000    1.485000
   229  Cl    c     0.004207   -4.403224    8.807729    0.000000    1.485000
   230  Na    c     4.409726    6.616445   -6.624991    0.000000    1.000000
   231  Na    c    -0.003824    6.616445   -6.624991    0.000000    1.000000
   232  Na    c     4.407876   -6.622111    6.609881    0.000000    1.000000
   233  Na    c    -0.001974   -6.622111    6.609881    0.000000    1.000000
   234  O     c     2.202951    2.202341   11.032593    0.000000    0.183000
   235  O     c     2.202951   11.013690    2.196460    0.000000    0.183000
   236  O     c    11.017674   -2.203921   -2.204748    0.000000    0.183000
   237  O     c    -6.611772   -2.203921   -2.204748    0.000000    0.183000
   238  Na    c     2.202951    2.199092   -8.842804    0.000000    1.000000
   239  Na    c     2.202951   11.062161    0.001574    0.000000    1.000000
   240  Na    c    11.026051   -2.218696    4.406891    0.000000    1.000000
   241  Na    c    -6.620149   -2.218696    4.406891    0.000000    1.000000
   242  Na    c     2.202951   -0.003287   11.040538    0.000000    1.000000
   243  Na    c     2.202951   -8.816163    2.235114    0.000000    1.000000
   244  Na    c    11.026186    4.404473   -2.207123    0.000000    1.000000
   245  Na    c    -6.620283    4.404473   -2.207123    0.000000    1.000000
   246  Cl    c     4.409450   -0.002117   -8.805472    0.000000    1.485000
   247  Cl    c    -0.003547   -0.002117   -8.805472    0.000000    1.485000
   248  Cl    c     8.809236    0.003156    8.808140    0.000000    1.485000
   249  Cl    c    -4.403333    0.003156    8.808140    0.000000    1.485000
   250  Cl    c     8.798918    8.800207   -0.004004    0.000000    1.485000
   251  Cl    c    -4.393015    8.800207   -0.004004    0.000000    1.485000
   252  Cl    c     8.803704   -4.393774   -4.400100    0.000000    1.485000
   253  Cl    c    -4.397801   -4.393774   -4.400100    0.000000    1.485000
   254  Na    c     4.408712    2.202939   11.039929    0.000000    1.000000
   255  Na    c    -0.002810    2.202939   11.039929    0.000000    1.000000
   256  Na    c     8.829089    2.187486   -6.685486    0.000000    1.000000
   257  Na    c    -4.423186    2.187486   -6.685486    0.000000    1.000000
   258  Na    c     8.812920    6.611620    6.613273    0.000000    1.000000
   259  Na    c    -4.407018    6.611620    6.613273    0.000000    1.000000
   260  Na    c     8.813578   -6.618345    2.194976    0.000000    1.000000
   261  Na    c    -4.407676   -6.618345    2.194976    0.000000    1.000000
   262  Cl    c     4.404498   -8.795787    0.000366    0.000000    1.485000
   263  Cl    c     0.001404   -8.795787    0.000366    0.000000    1.485000
   264  Na    c     4.407332   11.022631    2.217519    0.000000    1.000000
   265  Na    c    -0.001429   11.022631    2.217519    0.000000    1.000000
   266  O     c     2.202951   11.014757   -2.194716    0.000000    0.183000
   267  O     c     2.202951   -2.203606   11.021207    0.000000    0.183000
   268  O     c     6.609302    6.609479   -6.608608    0.000000    0.183000
   269  O     c    -2.203400    6.609479   -6.608608    0.000000    0.183000
   270  O     c     6.609652   -6.610041    6.609159    0.000000    0.183000
   271  O     c    -2.203749   -6.610041    6.609159    0.000000    0.183000
   272  O     c    11.017396    2.202340    6.618637    0.000000    0.183000
   273  O     c    -6.611494    2.202340    6.618637    0.000000    0.183000
   274  O     c    11.013024    6.610055    2.202534    0.000000    0.183000
   275  O     c    -6.607122    6.610055    2.202534    0.000000    0.183000
   276  Na    c     2.202951   10.997211    4.406396    0.000000    1.000000
   277  Na    c     2.202951   -2.219371   -8.826118    0.000000    1.000000
[...]
    262 y          6.608853      6.605910    -0.002944    Cartesian   -0.04
    262 z         -2.202951     -2.229925    -0.026974    Cartesian    1.22
    263 x          2.202951      2.202951     0.000000    Cartesian    0.00
    263 y         -2.202951     -2.228285    -0.025334    Cartesian    1.15
    263 z          6.608853      6.632712     0.023859    Cartesian    0.36
    264 x          6.608853      6.610945     0.002092    Cartesian    0.03
    264 y         -2.202951     -2.204600    -0.001649    Cartesian    0.07
    264 z         -2.202951     -2.203956    -0.001005    Cartesian    0.05
    265 x          8.811805      8.776346    -0.035459    Cartesian   -0.40
    265 y          0.000000      0.015938     0.015938    Cartesian    0.00
    265 z          0.000000     -0.002111    -0.002111    Cartesian    0.00
    266 x          4.405902      4.376675    -0.029227    Cartesian   -0.66
    266 y          4.405902      4.381109    -0.024793    Cartesian   -0.56
    266 z         -4.405902     -4.433757    -0.027855    Cartesian    0.63
    267 x          4.405902      4.397292    -0.008610    Cartesian   -0.20
    267 y         -4.405902     -4.392536     0.013367    Cartesian   -0.30
    267 z          4.405902      4.399624    -0.006278    Cartesian   -0.14
    268 x          6.608853      6.632796     0.023943    Cartesian    0.36
    268 y          2.202951      2.202024    -0.000927    Cartesian   -0.04
    268 z          6.608853      6.632872     0.024018    Cartesian    0.36
    269 x          6.608853      6.610671     0.001818    Cartesian    0.03
    269 y          6.608853      6.609479     0.000626    Cartesian    0.01
    269 z          2.202951      2.205436     0.002485    Cartesian    0.11
    270 x          8.811805      8.797931    -0.013874    Cartesian   -0.16
    270 y          0.000000      0.008234     0.008234    Cartesian    0.00
    270 z          4.405902      4.398382    -0.007520    Cartesian   -0.17
    271 x          8.811805      8.774381    -0.037424    Cartesian   -0.42
    271 y          4.405902      4.389947    -0.015955    Cartesian   -0.36
    271 z          0.000000     -0.002062    -0.002062    Cartesian    0.00
    272 x          2.202951      2.202951     0.000000    Cartesian    0.00
    272 y          2.202951      2.204028     0.001077    Cartesian    0.05
    272 z         -6.608853     -6.680685    -0.071832    Cartesian    1.09
    273 x          2.202951      2.202951     0.000000    Cartesian    0.00
    273 y          6.608853      6.627812     0.018959    Cartesian    0.29
    273 z          6.608853      6.629543     0.020689    Cartesian    0.31
    274 x          2.202951      2.202951     0.000000    Cartesian    0.00
    274 y         -6.608853     -6.610196    -0.001342    Cartesian    0.02
    274 z          2.202951      2.200214    -0.002737    Cartesian   -0.12
    275 x          6.608853      6.609252     0.000398    Cartesian    0.01
    275 y          6.608853      6.607873    -0.000980    Cartesian   -0.01
    275 z         -2.202951     -2.203323    -0.000372    Cartesian    0.02
    276 x          6.608853      6.607944    -0.000909    Cartesian   -0.01
    276 y         -2.202951     -2.203410    -0.000459    Cartesian    0.02
    276 z          6.608853      6.610067     0.001214    Cartesian    0.02
    277 x          4.405902      4.407880     0.001978    Cartesian    0.04
    277 y          0.000000     -0.001422    -0.001422    Cartesian    0.00
    277 z          8.811805      8.809641    -0.002163    Cartesian   -0.02
    278 x          4.405902      4.396328    -0.009574    Cartesian   -0.22
    278 y         -4.405902     -4.386326     0.019576    Cartesian   -0.44
    278 z         -4.405902     -4.397599     0.008304    Cartesian   -0.19
    279 x          8.811805      8.794970    -0.016834    Cartesian   -0.19
    279 y          4.405902      4.398637    -0.007266    Cartesian   -0.16
    279 z          4.405902      4.398034    -0.007868    Cartesian   -0.18
    280 x          4.405902      4.386343    -0.019559    Cartesian   -0.44
    280 y          8.811805      8.777813    -0.033992    Cartesian   -0.39
    280 z          0.000000     -0.000348    -0.000348    Cartesian    0.00
    281 x          2.202951      2.202951     0.000000    Cartesian    0.00
    281 y         -2.202951     -2.224109    -0.021158    Cartesian    0.96
    281 z         -6.608853     -6.625147    -0.016293    Cartesian    0.25
    282 x          2.202951      2.202951     0.000000    Cartesian    0.00
    282 y         -6.608853     -6.610124    -0.001270    Cartesian    0.02
    282 z         -2.202951     -2.195244     0.007707    Cartesian   -0.35
    283 x          4.405902      4.409396     0.003494    Cartesian    0.08
    283 y          4.405902      4.408034     0.002132    Cartesian    0.05
    283 z          8.811805      8.807587    -0.004217    Cartesian   -0.05
    284 x          8.811805      8.796028    -0.015776    Cartesian   -0.18
    284 y          0.000000      0.008446     0.008446    Cartesian    0.00
    284 z         -4.405902     -4.398940     0.006963    Cartesian   -0.16
    285 x          4.405902      4.396101    -0.009802    Cartesian   -0.22
    285 y          8.811805      8.797007    -0.014797    Cartesian   -0.17
    285 z          4.405902      4.394727    -0.011176    Cartesian   -0.25
    286 x          8.811805      8.795487    -0.016318    Cartesian   -0.19
    286 y         -4.405902     -4.385458     0.020444    Cartesian   -0.46
    286 z          0.000000     -0.003151    -0.003151    Cartesian    0.00
    287 x          6.608853      6.630787     0.021933    Cartesian    0.33
    287 y          2.202951      2.203147     0.000196    Cartesian    0.01
    287 z         -6.608853     -6.626116    -0.017263    Cartesian    0.26
    288 x          6.608853      6.607224    -0.001629    Cartesian   -0.02
    288 y          6.608853      6.608950     0.000096    Cartesian    0.00
    288 z          6.608853      6.611609     0.002756    Cartesian    0.04
    289 x          6.608853      6.608426    -0.000427    Cartesian   -0.01
    289 y         -6.608853     -6.608506     0.000347    Cartesian   -0.01
    289 z          2.202951      2.204832     0.001881    Cartesian    0.09
    290 x         11.014756     11.015629     0.000873    Cartesian    0.01
    290 y          2.202951      2.201933    -0.001018    Cartesian   -0.05
    290 z          2.202951      2.198845    -0.004106    Cartesian   -0.19
    291 x          8.811805      8.795133    -0.016672    Cartesian   -0.19
    291 y          4.405902      4.395701    -0.010201    Cartesian   -0.23
    291 z         -4.405902     -4.401489     0.004413    Cartesian   -0.10
    292 x          8.811805      8.798949    -0.012855    Cartesian   -0.15
    292 y         -4.405902     -4.393200     0.012702    Cartesian   -0.29
    292 z          4.405902      4.394032    -0.011870    Cartesian   -0.27
    293 x          2.202951      2.202951     0.000000    Cartesian    0.00
    293 y          6.608853      6.633037     0.024183    Cartesian    0.37
    293 z         -6.608853     -6.627954    -0.019100    Cartesian    0.29
    294 x          2.202951      2.202951     0.000000    Cartesian    0.00
    294 y         -6.608853     -6.614554    -0.005701    Cartesian    0.09
    294 z          6.608853      6.618177     0.009324    Cartesian    0.14
    295 x          6.608853      6.609004     0.000151    Cartesian    0.00
    295 y         -2.202951     -2.203160    -0.000209    Cartesian    0.01
    295 z         -6.608853     -6.610146    -0.001292    Cartesian    0.02
    296 x          6.608853      6.609015     0.000162    Cartesian    0.00
    296 y         -6.608853     -6.608692     0.000162    Cartesian   -0.00
    296 z         -2.202951     -2.202693     0.000258    Cartesian   -0.01
    297 x         11.014756     11.018606     0.003850    Cartesian    0.03
    297 y          2.202951      2.201386    -0.001565    Cartesian   -0.07
    297 z         -2.202951     -2.199209     0.003742    Cartesian   -0.17
    298 x         11.014756     11.015862     0.001106    Cartesian    0.01
    298 y         -2.202951     -2.204677    -0.001726    Cartesian    0.08
    298 z          2.202951      2.202569    -0.000382    Cartesian   -0.02
    299 x          4.405902      4.394918    -0.010985    Cartesian   -0.25
    299 y          8.811805      8.796385    -0.015419    Cartesian   -0.17
    299 z         -4.405902     -4.402476     0.003427    Cartesian   -0.08
    300 x          4.405902      4.399651    -0.006251    Cartesian   -0.14
    300 y         -4.405902     -4.401288     0.004614    Cartesian   -0.10
    300 z          8.811805      8.804750    -0.007055    Cartesian   -0.08
    301 x          2.202951      2.202951     0.000000    Cartesian    0.00
    301 y          2.202951      2.202341    -0.000610    Cartesian   -0.03
    301 z         11.014756     11.032588     0.017832    Cartesian    0.16
    302 x          2.202951      2.202951     0.000000    Cartesian    0.00
    302 y         11.014756     11.013691    -0.001064    Cartesian   -0.01
    302 z          2.202951      2.196439    -0.006512    Cartesian   -0.30
    303 x         11.014756     11.017670     0.002914    Cartesian    0.03
    303 y         -2.202951     -2.203921    -0.000969    Cartesian    0.04
    303 z         -2.202951     -2.204752    -0.001800    Cartesian    0.08
    304 x          4.405902      4.408747     0.002845    Cartesian    0.06
    304 y          0.000000     -0.001056    -0.001056    Cartesian    0.00
    304 z         -8.811805     -8.802680     0.009125    Cartesian   -0.10
    305 x          8.811805      8.807680    -0.004125    Cartesian   -0.05
    305 y          0.000000      0.004967     0.004967    Cartesian    0.00
    305 z          8.811805      8.805433    -0.006371    Cartesian   -0.07
    306 x          8.811805      8.796020    -0.015785    Cartesian   -0.18
    306 y          8.811805      8.797713    -0.014091    Cartesian   -0.16
    306 z          0.000000     -0.005036    -0.005036    Cartesian    0.00
    307 x          8.811805      8.801955    -0.009850    Cartesian   -0.11
    307 y         -4.405902     -4.391453     0.014449    Cartesian   -0.33
    307 z         -4.405902     -4.399126     0.006776    Cartesian   -0.15
    308 x          4.405902      4.403756    -0.002147    Cartesian   -0.05
    308 y         -8.811805     -8.792499     0.019306    Cartesian   -0.22
    308 z          0.000000      0.000197     0.000197    Cartesian    0.00
    309 x          2.202951      2.202951     0.000000    Cartesian    0.00
    309 y         11.014756     11.014762     0.000007    Cartesian    0.00
    309 z         -2.202951     -2.194696     0.008255    Cartesian   -0.37
    310 x          2.202951      2.202951     0.000000    Cartesian    0.00
    310 y         -2.202951     -2.203601    -0.000649    Cartesian    0.03
    310 z         11.014756     11.021203     0.006447    Cartesian    0.06
    311 x          6.608853      6.609299     0.000446    Cartesian    0.01
    311 y          6.608853      6.609478     0.000624    Cartesian    0.01
    311 z         -6.608853     -6.608613     0.000240    Cartesian   -0.00
    312 x          6.608853      6.609651     0.000797    Cartesian    0.01
    312 y         -6.608853     -6.610046    -0.001192    Cartesian    0.02
    312 z          6.608853      6.609156     0.000303    Cartesian    0.00
    313 x         11.014756     11.017383     0.002627    Cartesian    0.02
    313 y          2.202951      2.202341    -0.000610    Cartesian   -0.03
    313 z          6.608853      6.618656     0.009802    Cartesian    0.15
    314 x         11.014756     11.013021    -0.001734    Cartesian   -0.02
    314 y          6.608853      6.610056     0.001203    Cartesian    0.02
    314 z          2.202951      2.202538    -0.000413    Cartesian   -0.02
    315 x          8.811805      8.797830    -0.013975    Cartesian   -0.16
    315 y          8.811805      8.802174    -0.009631    Cartesian   -0.11
    315 z          4.405902      4.397950    -0.007952    Cartesian   -0.18
    316 x          4.405902      4.409660     0.003757    Cartesian    0.09
    316 y          4.405902      4.411478     0.005576    Cartesian    0.13
    316 z         -8.811805     -8.799740     0.012064    Cartesian   -0.14
    317 x          4.405902      4.402528    -0.003375    Cartesian   -0.08
    317 y         -8.811805     -8.795456     0.016349    Cartesian   -0.19
    317 z          4.405902      4.399975    -0.005927    Cartesian   -0.13
    318 x          8.811805      8.804535    -0.007269    Cartesian   -0.08
    318 y          4.405902      4.402303    -0.003600    Cartesian   -0.08
    318 z          8.811805      8.803880    -0.007925    Cartesian   -0.09
    319 x          2.202951      2.202951     0.000000    Cartesian    0.00
    319 y         -6.608853     -6.607704     0.001150    Cartesian   -0.02
    319 z         -6.608853     -6.610142    -0.001289    Cartesian    0.02
    320 x          6.608853      6.609532     0.000678    Cartesian    0.01
    320 y          2.202951      2.203255     0.000304    Cartesian    0.01
    320 z         11.014756     11.021531     0.006775    Cartesian    0.06
    321 x          6.608853      6.608515    -0.000338    Cartesian   -0.01
    321 y         11.014756     11.013725    -0.001031    Cartesian   -0.01
    321 z          2.202951      2.204379     0.001428    Cartesian    0.06
    322 x         11.014756     11.012092    -0.002664    Cartesian   -0.02
    322 y          6.608853      6.606062    -0.002791    Cartesian   -0.04
    322 z         -2.202951     -2.204745    -0.001794    Cartesian    0.08
    323 x         11.014756     11.013881    -0.000874    Cartesian   -0.01
    323 y         -2.202951     -2.203926    -0.000975    Cartesian    0.04
    323 z          6.608853      6.606015    -0.002838    Cartesian   -0.04
    324 x          4.405902      4.394403    -0.011499    Cartesian   -0.26
    324 y          8.811805      8.805729    -0.006076    Cartesian   -0.07
    324 z          8.811805      8.801602    -0.010203    Cartesian   -0.12
    325 x         13.217707     13.194844    -0.022863    Cartesian   -0.17
    325 y          0.000000      0.001953     0.001953    Cartesian    0.00
    325 z          0.000000     -0.000474    -0.000474    Cartesian    0.00
    326 x          6.608853      6.604470    -0.004383    Cartesian   -0.07
    326 y         11.014756     11.008718    -0.006037    Cartesian   -0.05
    326 z         -2.202951     -2.200553     0.002399    Cartesian   -0.11
    327 x          2.202951      2.202951     0.000000    Cartesian    0.00
    327 y          6.608853      6.606685    -0.002168    Cartesian   -0.03
    327 z         11.014756     11.018301     0.003545    Cartesian    0.03
    328 x          2.202951      2.202951     0.000000    Cartesian    0.00
    328 y         11.014756     11.013939    -0.000817    Cartesian   -0.01
    328 z          6.608853      6.610248     0.001395    Cartesian    0.02
    329 x          6.608853      6.607366    -0.001488    Cartesian   -0.02
    329 y         -2.202951     -2.201276     0.001675    Cartesian   -0.08
    329 z         11.014756     11.011638    -0.003118    Cartesian   -0.03
    330 x          4.405902      4.394085    -0.011818    Cartesian   -0.27
    330 y         -4.405902     -4.395980     0.009922    Cartesian   -0.23
    330 z         -8.811805     -8.798340     0.013464    Cartesian   -0.15
    331 x          4.405902      4.402913    -0.002990    Cartesian   -0.07
    331 y         -8.811805     -8.791219     0.020585    Cartesian   -0.23
    331 z         -4.405902     -4.397261     0.008641    Cartesian   -0.20
    332 x          8.811805      8.796799    -0.015005    Cartesian   -0.17
    332 y          8.811805      8.796842    -0.014962    Cartesian   -0.17
    332 z         -4.405902     -4.395327     0.010575    Cartesian   -0.24
    333 x          8.811805      8.802174    -0.009630    Cartesian   -0.11
    333 y         -4.405902     -4.395355     0.010547    Cartesian   -0.24
    333 z          8.811805      8.796301    -0.015504    Cartesian   -0.18
    334 x         13.217707     13.198007    -0.019700    Cartesian   -0.15
    334 y          0.000000      0.003119     0.003119    Cartesian    0.00
    334 z          4.405902      4.399011    -0.006891    Cartesian   -0.16
    335 x         13.217707     13.191794    -0.025913    Cartesian   -0.20
    335 y          4.405902      4.404002    -0.001901    Cartesian   -0.04
    335 z          0.000000     -0.000115    -0.000115    Cartesian    0.00
    336 x          6.608853      6.605918    -0.002936    Cartesian   -0.04
    336 y         -6.608853     -6.604930     0.003923    Cartesian   -0.06
    336 z         -6.608853     -6.603247     0.005606    Cartesian   -0.08
    337 x         11.014756     11.010473    -0.004283    Cartesian   -0.04
    337 y          2.202951      2.200367    -0.002584    Cartesian   -0.12
    337 z         -6.608853     -6.609782    -0.000929    Cartesian    0.01
    338 x         11.014756     11.010558    -0.004198    Cartesian   -0.04
    338 y          6.608853      6.605654    -0.003200    Cartesian   -0.05
    338 z          6.608853      6.604240    -0.004614    Cartesian   -0.07
    339 x         11.014756     11.010737    -0.004019    Cartesian   -0.04
    339 y         -6.608853     -6.605413     0.003440    Cartesian   -0.05
    339 z          2.202951      2.198880    -0.004071    Cartesian   -0.18
    340 x         13.217707     13.195813    -0.021894    Cartesian   -0.17
    340 y          4.405902      4.402365    -0.003537    Cartesian   -0.08
    340 z          4.405902      4.397353    -0.008549    Cartesian   -0.19
    341 x          8.811805      8.800988    -0.010816    Cartesian   -0.12
    341 y          0.000000      0.012380     0.012380    Cartesian    0.00
    341 z         -8.811805     -8.796265     0.015540    Cartesian   -0.18
    342 x          8.811805      8.800787    -0.011018    Cartesian   -0.13
    342 y         -8.811805     -8.789344     0.022460    Cartesian   -0.25
    342 z          0.000000     -0.000391    -0.000391    Cartesian    0.00
--------------------------------------------------------------------------------


  Time to end of optimisation  =       79.9846 seconds


  Peak dynamic memory used =     110.18 MB 


  Timing analysis for GULP :

--------------------------------------------------------------------------------
  Task / Subroutine                                          Time (Seconds)
--------------------------------------------------------------------------------
  Calculation of reciprocal space energy and derivatives          0.0002
  Calculation of reciprocal space energy using symmetry           0.0004
  Calculation of real space energy and derivatives                0.0013
  Calculation of real space energy using symmetry                 0.0043
  Calculation for region 1 energy and derivatives (2-b)          15.3084
  Calculation for region 2a energy                               63.5920
  Calculation for region 2b energy                                0.0070
  Calculation and manipulation of Hessian matrix                  0.0718
  Calculation of matrix inversion                                 0.8119
  Symmetry generation of equivalent positions                     0.0016
--------------------------------------------------------------------------------
  Total CPU time                                                 79.9847
--------------------------------------------------------------------------------


  Dump file written as Na3OCl.grs


  Job Finished at 13:53.18  3rd February   2021                               

