********************************************************************************
*                       GENERAL UTILITY LATTICE PROGRAM                        *
*                                 Julian Gale                                  *
*                       Curtin Institute for Computation                       *
*                    School of Molecular and Life Sciences                     *
*                    Curtin University, Western Australia                      *
********************************************************************************
* Version = 5.2.0 * Last modified =  10th September 2020                       *
********************************************************************************
*  optimise     - perform optimisation run                                     *
*  conp         - constant pressure calculation                                *
*  property     - calculate properties for final geometry                      *
*  defect       - perform defect calculation after bulk run                    *
*  compare      - compare initial and final structures                         *
********************************************************************************

  Job Started  at 13:14.06  2nd February   2021                               

  Number of CPUs =     1


  Total number of configurations input =      1

********************************************************************************
*  Input for Configuration =   1                                               *
********************************************************************************

  Formula = ClONa3                                                      

  Number of irreducible atoms/shells =       5


  Total number atoms/shells =       7

  Dimensionality = 3               :  Bulk   


  Symmetry :

  Crystal family                   :  Cubic       
  Crystal class  (Groth - 1921)    :  Cubic Hexakisoctahedral              

  Space group (centrosymmetric)    :  P M 3 M         

  Patterson group                  :  P m -3 m 

  Cartesian lattice vectors (Angstroms) :

        4.504000    0.000000    0.000000
        0.000000    4.504000    0.000000
        0.000000    0.000000    4.504000

  Cell parameters (Angstroms/Degrees):

  a =       4.5040    alpha =  90.0000
  b =       4.5040    beta  =  90.0000
  c =       4.5040    gamma =  90.0000

  Initial cell volume =          91.368216 Angs**3

  Temperature of configuration =   0.00     K 

  Pressure of configuration =         0.000 GPa 

  Fractional coordinates of asymmetric unit :

--------------------------------------------------------------------------------
   No.  Atomic       x           y          z         Charge      Occupancy
        Label      (Frac)      (Frac)     (Frac)        (e)         (Frac)  
--------------------------------------------------------------------------------
      1 Cl    c    0.000000    0.000000    0.000000     1.48500    1.000000    
      2 O     c    0.500000    0.500000    0.500000     0.18300    1.000000    
      3 Na    c    0.500000    0.500000    0.000000     1.00000    1.000000    
      4 Cl    s    0.000000    0.000000    0.000000    -2.48500    1.000000    
      5 O     s    0.500000    0.500000    0.500000    -2.18300    1.000000    
--------------------------------------------------------------------------------


  Constraints : 

--------------------------------------------------------------------------------
  Constraint no.      Unconstrained     Constrained    Coefficient    Offset
                         Variable         Variable
--------------------------------------------------------------------------------
           1              Strain 1        Strain 2       1.00000      0.0000
           2              Strain 1        Strain 3       1.00000      0.0000
--------------------------------------------------------------------------------


********************************************************************************
*  General input information                                                   *
********************************************************************************

  Species output for all configurations : 

--------------------------------------------------------------------------------
  Species    Type    Atomic    Atomic    Charge       Radii (Angs)     Library
                     Number     Mass       (e)     Cova   Ionic  VDW   Symbol
--------------------------------------------------------------------------------
    Na       Core       11      22.99   1.000000   0.970  0.000  2.300          
    O        Core        8      16.00   0.183000   0.730  0.000  1.360          
    O        Shell       8       0.00  -2.183000   0.730  0.000  1.360          
    Cl       Core       17      35.45   1.485000   0.990  0.000  1.650          
    Cl       Shell      17       0.00  -2.485000   0.990  0.000  1.650          
    Mg       Core       12      24.31   0.415000   1.100  0.000  0.000          
    Mg       Shell      12       0.00   1.585000   1.100  0.000  0.000          
    Ca       Core       20      40.08  -1.135000   0.990  0.000  0.000          
    Ca       Shell      20       0.00   3.135000   0.990  0.000  0.000          
    Sr       Core       38      87.62  -1.251000   1.120  0.000  0.000          
    Sr       Shell      38       0.00   3.251000   1.120  0.000  0.000          
    Ba       Core       56     137.33  -7.203000   1.340  0.000  0.000          
    Ba       Shell      56       0.00   9.203000   1.340  0.000  0.000          
--------------------------------------------------------------------------------


  Lattice summation method               =    Ewald          (3-D)
                                         =    Parry          (2-D)
                                         =    Saunders et al (1-D)
  Accuracy factor for lattice sums       =   12.000


  Analytic derivatives to be used

  Time limit = Infinity

  Maximum range for interatomic potentials =    100000.000000 Angstroms

  General interatomic potentials :

--------------------------------------------------------------------------------
Atom  Types   Potential      Parameter       Value         Units   Cutoffs(Ang)
  1     2                                                            Min /  Max 
--------------------------------------------------------------------------------
O    c O    s Spring (c-s)  Spring k 2       593.71600    eV*Ang^-2 0.000  0.800
                            Spring k 4       0.0000000    eV*Ang^-4 
--------------------------------------------------------------------------------
Cl   c Cl   s Spring (c-s)  Spring k 2       29.380000    eV*Ang^-2 0.000  0.800
                            Spring k 4       0.0000000    eV*Ang^-4 
--------------------------------------------------------------------------------
Mg   c Mg   s Spring (c-s)  Spring k 2       361.60000    eV*Ang^-2 0.000  0.800
                            Spring k 4       0.0000000    eV*Ang^-4 
--------------------------------------------------------------------------------
Ca   c Ca   s Spring (c-s)  Spring k 2       110.20000    eV*Ang^-2 0.000  0.800
                            Spring k 4       0.0000000    eV*Ang^-4 
--------------------------------------------------------------------------------
Sr   c Sr   s Spring (c-s)  Spring k 2       71.700000    eV*Ang^-2 0.000  0.800
                            Spring k 4       0.0000000    eV*Ang^-4 
--------------------------------------------------------------------------------
Ba   c Ba   s Spring (c-s)  Spring k 2       495.20000    eV*Ang^-2 0.000  0.800
                            Spring k 4       0.0000000    eV*Ang^-4 
--------------------------------------------------------------------------------
Na   c Na   c Buckingham    Buckingham A     1788.1900    eV        0.000 12.000
                            Buckingham rho  0.15900000    Ang       
                            Buckingham C     0.0000000    eV*Ang^6  
--------------------------------------------------------------------------------
Na   c O    s Buckingham    Buckingham A     588.38000    eV        0.000 12.000
                            Buckingham rho  0.33800000    Ang       
                            Buckingham C     0.0000000    eV*Ang^6  
--------------------------------------------------------------------------------
Na   c Cl   s Buckingham    Buckingham A     1170.4100    eV        0.000 12.000
                            Buckingham rho  0.31500000    Ang       
                            Buckingham C     0.0000000    eV*Ang^6  
--------------------------------------------------------------------------------
O    s O    s Buckingham    Buckingham A     22764.300    eV        0.000 12.000
                            Buckingham rho  0.14900000    Ang       
                            Buckingham C     13.190000    eV*Ang^6  
--------------------------------------------------------------------------------
O    s Cl   s Buckingham    Buckingham A     8286.9100    eV        0.000 12.000
                            Buckingham rho  0.25900000    Ang       
                            Buckingham C     62.200000    eV*Ang^6  
--------------------------------------------------------------------------------
Cl   s Cl   s Buckingham    Buckingham A     1227.2000    eV        0.000 12.000
                            Buckingham rho  0.32100000    Ang       
                            Buckingham C     14.530000    eV*Ang^6  
--------------------------------------------------------------------------------
O    s Mg   s Buckingham    Buckingham A     1428.5000    eV        0.000 12.000
                            Buckingham rho  0.29450000    Ang       
                            Buckingham C     0.0000000    eV*Ang^6  
--------------------------------------------------------------------------------
Mg   s Cl   s Buckingham    Buckingham A     4914.5400    eV        0.000 12.000
                            Buckingham rho  0.25700000    Ang       
                            Buckingham C     0.0000000    eV*Ang^6  
--------------------------------------------------------------------------------
O    s Ca   s Buckingham    Buckingham A     1090.4000    eV        0.000 12.000
                            Buckingham rho  0.34370000    Ang       
                            Buckingham C     0.0000000    eV*Ang^6  
--------------------------------------------------------------------------------
Cl   s Ca   s Buckingham    Buckingham A     2302.0000    eV        0.000 12.000
                            Buckingham rho  0.34020000    Ang       
                            Buckingham C     0.0000000    eV*Ang^6  
--------------------------------------------------------------------------------
O    s Sr   s Buckingham    Buckingham A     959.10000    eV        0.000 12.000
                            Buckingham rho  0.37210000    Ang       
                            Buckingham C     0.0000000    eV*Ang^6  
--------------------------------------------------------------------------------
Cl   s Sr   s Buckingham    Buckingham A     2191.0900    eV        0.000 12.000
                            Buckingham rho  0.34570000    Ang       
                            Buckingham C     0.0000000    eV*Ang^6  
--------------------------------------------------------------------------------
O    s Ba   s Buckingham    Buckingham A     905.70000    eV        0.000 12.000
                            Buckingham rho  0.39760000    Ang       
                            Buckingham C     0.0000000    eV*Ang^6  
--------------------------------------------------------------------------------
Cl   s Ba   s Buckingham    Buckingham A     2704.5500    eV        0.000 12.000
                            Buckingham rho  0.35280000    Ang       
                            Buckingham C     0.0000000    eV*Ang^6  
--------------------------------------------------------------------------------

********************************************************************************
*  Output for configuration   1                                                *
********************************************************************************


  Components of energy : 

--------------------------------------------------------------------------------
  Interatomic potentials     =           4.94315381 eV    
  Monopole - monopole (real) =         -10.03624526 eV    
  Monopole - monopole (recip)=         -29.53581274 eV    
  Monopole - monopole (total)=         -39.57205800 eV    
--------------------------------------------------------------------------------
  Total lattice energy       =         -34.62890419 eV    
--------------------------------------------------------------------------------
  Total lattice energy       =           -3341.1599 kJ/(mole unit cells)
--------------------------------------------------------------------------------


  Number of variables =        1

  Maximum number of calculations  =          1000
  Maximum Hessian update interval =            10
  Maximum step size               =   1.000000000
  Maximum parameter tolerance     =   0.000010000
  Maximum function  tolerance     =   0.000010000
  Maximum gradient  tolerance     =   0.001000000
  Maximum gradient  component     =   0.010000000

  Symmetry constrained optimisation

  Symmetry used for second derivatives

  Cell parameters to be optimised using strains

  Newton-Raphson optimiser to be used

  BFGS hessian update to be used

  Lower half triangular hessian to be used

  Start of bulk optimisation :

  Cycle:      0 Energy:       -34.628904  Gnorm:      4.328237  CPU:    0.008
  ** Hessian calculated **
  Cycle:      1 Energy:       -34.677667  Gnorm:      0.044008  CPU:    0.010
  Cycle:      2 Energy:       -34.677671  Gnorm:      0.003653  CPU:    0.012


  **** Optimisation achieved ****


  Final energy =     -34.67767136 eV
  Final Gnorm  =       0.00000010

  Components of energy : 

--------------------------------------------------------------------------------
  Interatomic potentials     =           5.77546103 eV    
  Monopole - monopole (real) =         -10.25970290 eV    
  Monopole - monopole (recip)=         -30.19342950 eV    
  Monopole - monopole (total)=         -40.45313239 eV    
--------------------------------------------------------------------------------
  Total lattice energy       =         -34.67767136 eV    
--------------------------------------------------------------------------------
  Total lattice energy       =           -3345.8652 kJ/(mole unit cells)
--------------------------------------------------------------------------------

  Final asymmetric unit coordinates :

--------------------------------------------------------------------------------
   No.  Atomic        x           y           z         Radius
        Label       (Frac)      (Frac)      (Frac)       (Angs) 
--------------------------------------------------------------------------------
     1  Cl    c     0.000000    0.000000    0.000000    0.000000
     2  O     c     0.500000    0.500000    0.500000    0.000000
     3  Na    c     0.500000    0.500000    0.000000    0.000000
     4  Cl    s     0.000000    0.000000    0.000000    0.000000
     5  O     s     0.500000    0.500000    0.500000    0.000000
--------------------------------------------------------------------------------

  Final Cartesian lattice vectors (Angstroms) :

        4.405902    0.000000    0.000000
        0.000000    4.405902    0.000000
        0.000000    0.000000    4.405902


  Final cell parameters and derivatives :

--------------------------------------------------------------------------------
       a            4.405902 Angstrom     dE/de1(xx)     0.000000 eV/strain
       b            4.405902 Angstrom     dE/de2(yy)     0.000000 eV/strain
       c            4.405902 Angstrom     dE/de3(zz)     0.000000 eV/strain
       alpha       90.000000 Degrees      dE/de4(yz)     0.000000 eV/strain
       beta        90.000000 Degrees      dE/de5(xz)     0.000000 eV/strain
       gamma       90.000000 Degrees      dE/de6(xy)     0.000000 eV/strain
--------------------------------------------------------------------------------

  Primitive cell volume =            85.527266 Angs**3

  Density of cell =      2.338030 g/cm**3

  Non-primitive cell volume =            85.527266 Angs**3


  Final internal derivatives :

--------------------------------------------------------------------------------
   No.  Atomic          a             b             c           Radius
        Label          (eV)          (eV)          (eV)        (eV/Angs)
--------------------------------------------------------------------------------
      1 Cl    c       0.000000      0.000000      0.000000      0.000000
      2 O     c       0.000000      0.000000      0.000000      0.000000
      3 Na    c       0.000000      0.000000      0.000000      0.000000
      4 Cl    s       0.000000      0.000000      0.000000      0.000000
      5 O     s       0.000000      0.000000      0.000000      0.000000
--------------------------------------------------------------------------------
  Maximum abs         0.000000      0.000000      0.000000      0.000000
--------------------------------------------------------------------------------

  Comparison of initial and final structures : 

--------------------------------------------------------------------------------
  Parameter   Initial value   Final value   Difference    Units      Percent
--------------------------------------------------------------------------------
    Volume        91.368216     85.527266    -5.840950    Angs**3     -6.39
    a              4.504000      4.405902    -0.098098    Angstroms   -2.18
    b              4.504000      4.405902    -0.098098    Angstroms   -2.18
    c              4.504000      4.405902    -0.098098    Angstroms   -2.18
    alpha         90.000000     90.000000     0.000000    Degrees      0.00
    beta          90.000000     90.000000     0.000000    Degrees      0.00
    gamma         90.000000     90.000000     0.000000    Degrees      0.00
      1 x          0.000000      0.000000     0.000000    Fractional   0.00
      1 y          0.000000      0.000000     0.000000    Fractional   0.00
      1 z          0.000000      0.000000     0.000000    Fractional   0.00
      2 x          0.500000      0.500000     0.000000    Fractional   0.00
      2 y          0.500000      0.500000     0.000000    Fractional   0.00
      2 z          0.500000      0.500000     0.000000    Fractional   0.00
      3 x          0.500000      0.500000     0.000000    Fractional   0.00
      3 y          0.500000      0.500000     0.000000    Fractional   0.00
      3 z          0.000000      0.000000     0.000000    Fractional   0.00
      4 x          0.000000      0.000000     0.000000    Fractional   0.00
      4 y          0.000000      0.000000     0.000000    Fractional   0.00
      4 z          0.000000      0.000000     0.000000    Fractional   0.00
      5 x          0.500000      0.500000     0.000000    Fractional   0.00
      5 y          0.500000      0.500000     0.000000    Fractional   0.00
      5 z          0.500000      0.500000     0.000000    Fractional   0.00
--------------------------------------------------------------------------------


  Born effective charge tensors : 

-------------------------------------------------------------------------------
  Atom             x           y             z
-------------------------------------------------------------------------------
    1 Cl    x      -0.9918     -0.0000     -0.0000
            y      -0.0000     -0.9918     -0.0000
            z      -0.0000     -0.0000     -0.9918
-------------------------------------------------------------------------------
    2 O     x      -2.2939      0.0000      0.0000
            y       0.0000     -2.2939      0.0000
            z       0.0000      0.0000     -2.2939
-------------------------------------------------------------------------------
    3 Na    x       1.2243      0.0000      0.0000
            y       0.0000      1.2243     -0.0000
            z       0.0000      0.0000      0.8372
-------------------------------------------------------------------------------




  Elastic Constant Matrix: (Units=GPa)

-------------------------------------------------------------------------------
  Indices      1         2         3         4         5         6    
-------------------------------------------------------------------------------
       1     82.7680   24.3534   24.3534   -0.0000    0.0000   -0.0000
       2     24.3534   82.7680   24.3534    0.0000   -0.0000   -0.0000
       3     24.3534   24.3534   82.7680    0.0000   -0.0000    0.0000
       4     -0.0000    0.0000    0.0000   24.3534   -0.0000    0.0000
       5      0.0000   -0.0000   -0.0000   -0.0000   24.3534    0.0000
       6     -0.0000   -0.0000    0.0000    0.0000    0.0000   24.3534
-------------------------------------------------------------------------------


  Elastic Compliance Matrix: (Units=1/GPa)

-------------------------------------------------------------------------------
  Indices      1         2         3         4         5         6    
-------------------------------------------------------------------------------
       1    0.013948 -0.003171 -0.003171  0.000000 -0.000000  0.000000
       2   -0.003171  0.013948 -0.003171 -0.000000  0.000000 -0.000000
       3   -0.003171 -0.003171  0.013948 -0.000000  0.000000 -0.000000
       4    0.000000 -0.000000 -0.000000  0.041062  0.000000 -0.000000
       5   -0.000000  0.000000  0.000000  0.000000  0.041062 -0.000000
       6    0.000000 -0.000000 -0.000000 -0.000000 -0.000000  0.041062
-------------------------------------------------------------------------------

  Mechanical properties :

-------------------------------------------------------------------------------
  Convention :                    Reuss         Voigt         Hill
-------------------------------------------------------------------------------
  Bulk  Modulus (GPa)     =      43.82493      43.82493      43.82493
  Shear Modulus (GPa)     =      26.08758      26.29496      26.19127
-------------------------------------------------------------------------------
  Velocity S-wave (km/s)  =       3.34035       3.35360       3.34698
  Velocity P-wave (km/s)  =       5.79842       5.80861       5.80351
-------------------------------------------------------------------------------
  Compressibility (1/GPa) =    0.02281806
-------------------------------------------------------------------------------
  Stress axis :                     x             y             z
-------------------------------------------------------------------------------
  Youngs Moduli (GPa)     =      71.69479      71.69479      71.69479
-------------------------------------------------------------------------------
  Poissons Ratio (x)      =                     0.22734       0.22734
  Poissons Ratio (y)      =       0.22734                     0.22734
  Poissons Ratio (z)      =       0.22734       0.22734
-------------------------------------------------------------------------------


  Piezoelectric Strain Matrix: (Units=C/m**2)

-------------------------------------------------------------------------------
  Indices      1         2         3         4         5         6    
-------------------------------------------------------------------------------
       x    -0.00000  -0.00000  -0.00000  -0.00000   0.00000  -0.00000
       y     0.00000  -0.00000   0.00000   0.00000  -0.00000   0.00000
       z    -0.00000  -0.00000   0.00000  -0.00000   0.00000  -0.00000
-------------------------------------------------------------------------------


  Piezoelectric Stress Matrix: (Units=10**-11 C/N)

-------------------------------------------------------------------------------
  Indices      1         2         3         4         5         6    
-------------------------------------------------------------------------------
       x     0.00000  -0.00000  -0.00000  -0.00000   0.00000  -0.00000
       y     0.00000  -0.00000   0.00000   0.00000  -0.00000   0.00000
       z    -0.00000  -0.00000   0.00000  -0.00000   0.00000  -0.00000
-------------------------------------------------------------------------------


  Static dielectric constant tensor : 

-------------------------------------------------------------------------------
              x         y         z
-------------------------------------------------------------------------------
       x    11.08357   0.00000   0.00000
       y     0.00000  11.08357   0.00000
       z     0.00000   0.00000  11.08357
--------------------------------------------------------------------------------

  High frequency dielectric constant tensor : 

-------------------------------------------------------------------------------
              x         y         z
-------------------------------------------------------------------------------
       x     1.50771   0.00000   0.00000
       y     0.00000   1.50771   0.00000
       z     0.00000   0.00000   1.50771
-------------------------------------------------------------------------------

  Static refractive indices : 

-------------------------------------------------------------------------------
    1 =    3.32920      2 =    3.32920      3 =    3.32920
-------------------------------------------------------------------------------

  High frequency refractive indices : 

-------------------------------------------------------------------------------
    1 =    1.22789      2 =    1.22789      3 =    1.22789
-------------------------------------------------------------------------------


  Time to end of optimisation =       0.0176 seconds

********************************************************************************
*  Defect calculation for configuration   1 :                                  *
********************************************************************************

  Total number of defects =      1

  Total charge on defect  =   1.00

  Defect centre is at   0.5000   0.5000   0.0000  Frac

  Region 1 radius =  13.0000      Number of ions =    762

  Number of symmetry inequivalent region 1 ions  =     86

  Region 2 radius =  24.0000      Number of ions =   4014

  Number of symmetry inequivalent region 2a ions =    329

  Region 2a mode = 4 : screened electrostatics due to region 1 
                       neglect correction to region 1 forces from 2a
                       region 2a displacements based on defects only

  Region 2a ions will only interact with defects in region 1

  Impurities:

--------------------------------------------------------------------------------
    Specification type     Symbol/Number         x          y          z
--------------------------------------------------------------------------------
    Frac/Symbol             Mg               0.500000   0.500000   0.000000
--------------------------------------------------------------------------------


  Symmetry reduced region 1 (Relative to defect centre) :

--------------------------------------------------------------------------------
   No.   Atomic       x            y             z       Radius  Multiplicity   
         Label      (Angs)       (Angs)        (Angs)    (Angs)     
--------------------------------------------------------------------------------
     1  Mg    c      0.0000       0.0000       0.0000    0.0000     1    Defect
     2  O     c      0.0000       0.0000      -2.2030 *  0.0000     2          
     3  Cl    c      2.2030 *     2.2030       0.0000    0.0000     4          
     4  Na    c      2.2030 *     0.0000      -2.2030 *  0.0000     8          
     5  Na    c      0.0000       0.0000       4.4059 *  0.0000     2          
     6  Na    c      0.0000       4.4059 *     0.0000    0.0000     4          
     7  O     c      0.0000       4.4059 *    -2.2030 *  0.0000     8          
     8  Na    c      2.2030 *     4.4059 *    -2.2030 *  0.0000    16          
     9  Cl    c      2.2030 *     2.2030       4.4059 *  0.0000     8          
    10  Na    c      0.0000       4.4059 *     4.4059 *  0.0000     8          
    11  Na    c      4.4059 *     4.4059       0.0000    0.0000     4          
    12  O     c      0.0000       0.0000       6.6089 *  0.0000     2          
    13  O     c      4.4059 *     4.4059      -2.2030 *  0.0000     8          
    14  Cl    c      2.2030 *     6.6089 *     0.0000    0.0000     8          
    15  Na    c      2.2030 *     0.0000       6.6089 *  0.0000     8          
    16  Na    c      6.6089 *     0.0000      -2.2030 *  0.0000     8          
    17  Na    c      4.4059 *     4.4059       4.4059 *  0.0000     8          
    18  O     c      0.0000       4.4059 *     6.6089 *  0.0000     8          
    19  Cl    c      2.2030 *     6.6089 *     4.4059 *  0.0000    16          
    20  Na    c      2.2030 *     4.4059 *     6.6089 *  0.0000    16          
    21  Na    c      6.6089 *     4.4059 *    -2.2030 *  0.0000    16          
    22  Na    c      0.0000       0.0000       8.8118 *  0.0000     2          
    23  Na    c      0.0000       8.8118 *     0.0000    0.0000     4          
    24  O     c      4.4059 *     4.4059       6.6089 *  0.0000     8          
    25  O     c      0.0000       8.8118 *    -2.2030 *  0.0000     8          
    26  Cl    c      2.2030 *     2.2030       8.8118 *  0.0000     8          
    27  Cl    c      6.6089 *     6.6089       0.0000    0.0000     4          
    28  Na    c      6.6089 *     0.0000       6.6089 *  0.0000     8          
    29  Na    c      2.2030 *     8.8118 *    -2.2030 *  0.0000    16          
    30  Na    c      0.0000       4.4059 *     8.8118 *  0.0000     8          
    31  Na    c      0.0000       8.8118 *     4.4059 *  0.0000     8          
    32  Na    c      4.4059 *     8.8118 *     0.0000    0.0000     8          
    33  O     c      4.4059 *     8.8118 *    -2.2030 *  0.0000    16          
    34  Cl    c      6.6089 *     6.6089       4.4059 *  0.0000     8          
    35  Na    c      6.6089 *     4.4059 *     6.6089 *  0.0000    16          
    36  Na    c      4.4059 *     8.8118 *     4.4059 *  0.0000    16          
    37  Na    c      4.4059 *     4.4059       8.8118 *  0.0000     8          
    38  O     c      0.0000       0.0000      11.0148 *  0.0000     2          
    39  O     c      0.0000       8.8118 *     6.6089 *  0.0000     8          
    40  Cl    c      2.2030 *     6.6089 *     8.8118 *  0.0000    16          
    41  Cl    c      2.2030 *    11.0148 *     0.0000    0.0000     8          
    42  Na    c      2.2030 *     0.0000      11.0148 *  0.0000     8          
    43  Na    c      2.2030 *     8.8118 *     6.6089 *  0.0000    16          
    44  Na    c     11.0148 *     0.0000      -2.2030 *  0.0000     8          
    45  Na    c      6.6089 *     8.8118 *    -2.2030 *  0.0000    16          
    46  O     c      0.0000       4.4059 *    11.0148 *  0.0000     8          
    47  O     c      4.4059 *     8.8118 *     6.6089 *  0.0000    16          
    48  Cl    c      2.2030 *    11.0148 *     4.4059 *  0.0000    16          
    49  Na    c      2.2030 *     4.4059 *    11.0148 *  0.0000    16          
    50  Na    c     11.0148 *     4.4059 *    -2.2030 *  0.0000    16          
    51  Na    c      0.0000       8.8118 *     8.8118 *  0.0000     8          
    52  Na    c      8.8118 *     8.8118       0.0000    0.0000     4          
    53  O     c      4.4059 *     4.4059      11.0148 *  0.0000     8          
    54  O     c      8.8118 *     8.8118      -2.2030 *  0.0000     8          
    55  Cl    c      6.6089 *     6.6089       8.8118 *  0.0000     8          
    56  Cl    c      6.6089 *    11.0148 *     0.0000    0.0000     8          
    57  Na    c      6.6089 *     0.0000      11.0148 *  0.0000     8          
    58  Na    c     11.0148 *     0.0000       6.6089 *  0.0000     8          
    59  Na    c      6.6089 *     8.8118 *     6.6089 *  0.0000    16          
    60  Mg    s      0.0000       0.0000       0.0000    0.0000     1    Defect
    61  O     s      0.0000       0.0000      -2.2030 *  0.0000     2          
    62  Cl    s      2.2030 *     2.2030       0.0000    0.0000     4          
    63  O     s      0.0000       4.4059 *    -2.2030 *  0.0000     8          
    64  Cl    s      2.2030 *     2.2030       4.4059 *  0.0000     8          
    65  O     s      0.0000       0.0000       6.6089 *  0.0000     2          
    66  O     s      4.4059 *     4.4059      -2.2030 *  0.0000     8          
    67  Cl    s      2.2030 *     6.6089 *     0.0000    0.0000     8          
    68  O     s      0.0000       4.4059 *     6.6089 *  0.0000     8          
    69  Cl    s      2.2030 *     6.6089 *     4.4059 *  0.0000    16          
    70  O     s      4.4059 *     4.4059       6.6089 *  0.0000     8          
    71  O     s      0.0000       8.8118 *    -2.2030 *  0.0000     8          
    72  Cl    s      2.2030 *     2.2030       8.8118 *  0.0000     8          
    73  Cl    s      6.6089 *     6.6089       0.0000    0.0000     4          
    74  O     s      4.4059 *     8.8118 *    -2.2030 *  0.0000    16          
    75  Cl    s      6.6089 *     6.6089       4.4059 *  0.0000     8          
    76  O     s      0.0000       0.0000      11.0148 *  0.0000     2          
    77  O     s      0.0000       8.8118 *     6.6089 *  0.0000     8          
    78  Cl    s      2.2030 *     6.6089 *     8.8118 *  0.0000    16          
    79  Cl    s      2.2030 *    11.0148 *     0.0000    0.0000     8          
    80  O     s      0.0000       4.4059 *    11.0148 *  0.0000     8          
    81  O     s      4.4059 *     8.8118 *     6.6089 *  0.0000    16          
    82  Cl    s      2.2030 *    11.0148 *     4.4059 *  0.0000    16          
    83  O     s      4.4059 *     4.4059      11.0148 *  0.0000     8          
    84  O     s      8.8118 *     8.8118      -2.2030 *  0.0000     8          
    85  Cl    s      6.6089 *     6.6089       8.8118 *  0.0000     8          
    86  Cl    s      6.6089 *    11.0148 *     0.0000    0.0000     8          
--------------------------------------------------------------------------------


  Constraints on symmetry reduced coordinates :

--------------------------------------------------------------------------------
  Constraint no.      Unconstrained     Constrained    Coefficient    
                         Variable         Variable
--------------------------------------------------------------------------------
           1                 3 x             3 y         1.00000
           2                 9 x             9 y         1.00000
           3                11 x            11 y         1.00000
           4                13 x            13 y         1.00000
           5                17 x            17 y         1.00000
           6                24 x            24 y         1.00000
           7                26 x            26 y         1.00000
           8                27 x            27 y         1.00000
           9                34 x            34 y         1.00000
          10                37 x            37 y         1.00000
          11                52 x            52 y         1.00000
          12                53 x            53 y         1.00000
          13                54 x            54 y         1.00000
          14                55 x            55 y         1.00000
          15                62 x            62 y         1.00000
          16                64 x            64 y         1.00000
          17                66 x            66 y         1.00000
          18                70 x            70 y         1.00000
          19                72 x            72 y         1.00000
          20                73 x            73 y         1.00000
          21                75 x            75 y         1.00000
          22                83 x            83 y         1.00000
          23                84 x            84 y         1.00000
          24                85 x            85 y         1.00000
--------------------------------------------------------------------------------


  Components of defect energy : 

--------------------------------------------------------------------------------
  Region 1 - region 1                   =    -27.98947406 eV
  Region 1 - region 2a (unrelaxed)      =     17.18059121 eV
  Region 1 - 2a (relaxed - correction)  =     -0.45984309 eV
  Region 1 (Total)                      =    -11.26872594 eV
  Region 2a                             =      0.22996478 eV
  Region 2b                             =     -0.27216525 eV
--------------------------------------------------------------------------------
  Total defect energy                   =    -11.31092640 eV
--------------------------------------------------------------------------------

  Largest displacement in region 2 =   0.0128 Angstroms


  Number of variables =      173

  Maximum number of calculations  =        1000
  Maximum Hessian update interval =          10
  Maximum step size               =   1.0000000
  Maximum parameter tolerance     =   0.0000100
  Maximum function  tolerance     =   0.0000100
  Maximum gradient  tolerance     =   0.0010000

  Symmetry adapted optimisation

  Symmetry to be used for second derivatives

  Newton-Raphson optimiser to be used

  BFGS hessian update to be used

  Lower half triangular hessian to be used

  Start of defect optimisation :

  Cycle:      0 Defect Energy: -11.310926  Gnorm:     0.243302  CPU:    6.490
  ** Hessian calculated **
  Cycle:      1 Defect Energy: -14.931558  Gnorm:     0.147578  CPU:   11.454
  ** Hessian calculated **
  Cycle:      2 Defect Energy: -16.261915  Gnorm:     0.008860  CPU:   15.436
  Cycle:      3 Defect Energy: -16.280879  Gnorm:     0.004728  CPU:   16.205
  Cycle:      4 Defect Energy: -16.284786  Gnorm:     0.003193  CPU:   16.857
  Cycle:      5 Defect Energy: -16.286858  Gnorm:     0.002198  CPU:   17.492
  Cycle:      6 Defect Energy: -16.287863  Gnorm:     0.001539  CPU:   18.109
  Cycle:      7 Defect Energy: -16.288349  Gnorm:     0.001068  CPU:   18.746
  Cycle:      8 Defect Energy: -16.288581  Gnorm:     0.000746  CPU:   19.382
  Cycle:      9 Defect Energy: -16.288691  Gnorm:     0.000530  CPU:   20.022
  Cycle:     10 Defect Energy: -16.288741  Gnorm:     0.000365  CPU:   20.653
  Cycle:     11 Defect Energy: -16.288763  Gnorm:     0.000255  CPU:   21.369
  ** Hessian calculated **
  Cycle:     12 Defect Energy: -16.288773  Gnorm:     0.000178  CPU:   22.729


  **** Optimisation achieved ****


  Final defect energy  =      -16.28877582
  Final defect Gnorm   =        0.00013464

  Components of defect energy : 

--------------------------------------------------------------------------------
  Region 1 - region 1                   =    -32.55841618 eV
  Region 1 - region 2a (unrelaxed)      =     16.74686460 eV
  Region 1 - 2a (relaxed - correction)  =     -0.41013122 eV
  Region 1 (Total)                      =    -16.22168280 eV
  Region 2a                             =      0.20507223 eV
  Region 2b                             =     -0.27216525 eV
--------------------------------------------------------------------------------
  Total defect energy                   =    -16.28877582 eV
--------------------------------------------------------------------------------

  Largest displacement in region 2 =   0.0128 Angstroms

  Final coordinates of region 1 :

--------------------------------------------------------------------------------
   No.  Atomic        x           y           z          Radius      Charge
        Label       (Angs)      (Angs)      (Angs)       (Angs)       (e) 
--------------------------------------------------------------------------------
     1  Mg    c     2.202951    2.202951    0.000000    0.000000    0.415000
     2  O     c     2.202951    2.202951   -1.869413    0.000000    0.183000
     3  O     c     2.202951    2.202951    1.869413    0.000000    0.183000
     4  Cl    c     4.145533    4.145533    0.000000    0.000000    1.485000
     5  Cl    c     4.145533    0.260369    0.000000    0.000000    1.485000
     6  Cl    c     0.260369    4.145533    0.000000    0.000000    1.485000
     7  Cl    c     0.260369    0.260369    0.000000    0.000000    1.485000
     8  Na    c     4.456551    2.202951   -2.199986    0.000000    1.000000
     9  Na    c     4.456551    2.202951    2.199986    0.000000    1.000000
    10  Na    c    -0.050649    2.202951   -2.199986    0.000000    1.000000
    11  Na    c    -0.050649    2.202951    2.199986    0.000000    1.000000
    12  Na    c     2.202951    4.456551   -2.199986    0.000000    1.000000
    13  Na    c     2.202951    4.456551    2.199986    0.000000    1.000000
    14  Na    c     2.202951   -0.050649   -2.199986    0.000000    1.000000
    15  Na    c     2.202951   -0.050649    2.199986    0.000000    1.000000
    16  Na    c     2.202951    2.202951    4.336096    0.000000    1.000000
    17  Na    c     2.202951    2.202951   -4.336096    0.000000    1.000000
    18  Na    c     2.202951    6.631851    0.000000    0.000000    1.000000
    19  Na    c     2.202951   -2.225948    0.000000    0.000000    1.000000
    20  Na    c     6.631851    2.202951    0.000000    0.000000    1.000000
    21  Na    c    -2.225948    2.202951    0.000000    0.000000    1.000000
    22  O     c     2.202951    6.640106   -2.198680    0.000000    0.183000
    23  O     c     2.202951    6.640106    2.198680    0.000000    0.183000
    24  O     c     2.202951   -2.234204   -2.198680    0.000000    0.183000
    25  O     c     2.202951   -2.234204    2.198680    0.000000    0.183000
    26  O     c     6.640106    2.202951   -2.198680    0.000000    0.183000
    27  O     c     6.640106    2.202951    2.198680    0.000000    0.183000
    28  O     c    -2.234204    2.202951   -2.198680    0.000000    0.183000
    29  O     c    -2.234204    2.202951    2.198680    0.000000    0.183000
    30  Na    c     4.403746    6.650508   -2.231567    0.000000    1.000000
    31  Na    c     4.403746    6.650508    2.231567    0.000000    1.000000
    32  Na    c     4.403746   -2.244606   -2.231567    0.000000    1.000000
    33  Na    c     4.403746   -2.244606    2.231567    0.000000    1.000000
    34  Na    c     0.002156    6.650508   -2.231567    0.000000    1.000000
    35  Na    c     0.002156    6.650508    2.231567    0.000000    1.000000
    36  Na    c     0.002156   -2.244606   -2.231567    0.000000    1.000000
    37  Na    c     0.002156   -2.244606    2.231567    0.000000    1.000000
    38  Na    c     6.650508    4.403746   -2.231567    0.000000    1.000000
    39  Na    c     6.650508    4.403746    2.231567    0.000000    1.000000
    40  Na    c     6.650508    0.002156   -2.231567    0.000000    1.000000
    41  Na    c     6.650508    0.002156    2.231567    0.000000    1.000000
    42  Na    c    -2.244606    4.403746   -2.231567    0.000000    1.000000
    43  Na    c    -2.244606    4.403746    2.231567    0.000000    1.000000
    44  Na    c    -2.244606    0.002156   -2.231567    0.000000    1.000000
    45  Na    c    -2.244606    0.002156    2.231567    0.000000    1.000000
    46  Cl    c     4.339665    4.339665    4.315351    0.000000    1.485000
    47  Cl    c     4.339665    4.339665   -4.315351    0.000000    1.485000
    48  Cl    c     4.339665    0.066237    4.315351    0.000000    1.485000
    49  Cl    c     4.339665    0.066237   -4.315351    0.000000    1.485000
    50  Cl    c     0.066237    4.339665    4.315351    0.000000    1.485000
    51  Cl    c     0.066237    4.339665   -4.315351    0.000000    1.485000
    52  Cl    c     0.066237    0.066237    4.315351    0.000000    1.485000
    53  Cl    c     0.066237    0.066237   -4.315351    0.000000    1.485000
    54  Na    c     2.202951    6.651509    4.405673    0.000000    1.000000
    55  Na    c     2.202951    6.651509   -4.405673    0.000000    1.000000
    56  Na    c     2.202951   -2.245607    4.405673    0.000000    1.000000
    57  Na    c     2.202951   -2.245607   -4.405673    0.000000    1.000000
    58  Na    c     6.651509    2.202951    4.405673    0.000000    1.000000
    59  Na    c     6.651509    2.202951   -4.405673    0.000000    1.000000
    60  Na    c    -2.245607    2.202951    4.405673    0.000000    1.000000
    61  Na    c    -2.245607    2.202951   -4.405673    0.000000    1.000000
    62  Na    c     6.664190    6.664190    0.000000    0.000000    1.000000
    63  Na    c     6.664190   -2.258288    0.000000    0.000000    1.000000
    64  Na    c    -2.258288    6.664190    0.000000    0.000000    1.000000
    65  Na    c    -2.258288   -2.258288    0.000000    0.000000    1.000000
    66  O     c     2.202951    2.202951    6.556551    0.000000    0.183000
    67  O     c     2.202951    2.202951   -6.556551    0.000000    0.183000
    68  O     c     6.597181    6.597181   -2.193484    0.000000    0.183000
    69  O     c     6.597181    6.597181    2.193484    0.000000    0.183000
    70  O     c     6.597181   -2.191278   -2.193484    0.000000    0.183000
    71  O     c     6.597181   -2.191278    2.193484    0.000000    0.183000
    72  O     c    -2.191278    6.597181   -2.193484    0.000000    0.183000
    73  O     c    -2.191278    6.597181    2.193484    0.000000    0.183000
    74  O     c    -2.191278   -2.191278   -2.193484    0.000000    0.183000
    75  O     c    -2.191278   -2.191278    2.193484    0.000000    0.183000
    76  Cl    c     4.414008    8.786345    0.000000    0.000000    1.485000
    77  Cl    c     4.414008   -4.380443    0.000000    0.000000    1.485000
    78  Cl    c     8.786345    4.414008    0.000000    0.000000    1.485000
    79  Cl    c     8.786345   -0.008106    0.000000    0.000000    1.485000
    80  Cl    c    -0.008106    8.786345    0.000000    0.000000    1.485000
    81  Cl    c    -0.008106   -4.380443    0.000000    0.000000    1.485000
    82  Cl    c    -4.380443    4.414008    0.000000    0.000000    1.485000
    83  Cl    c    -4.380443   -0.008106    0.000000    0.000000    1.485000
    84  Na    c     4.403558    2.202951    6.577072    0.000000    1.000000
    85  Na    c     4.403558    2.202951   -6.577072    0.000000    1.000000
    86  Na    c     0.002345    2.202951    6.577072    0.000000    1.000000
    87  Na    c     0.002345    2.202951   -6.577072    0.000000    1.000000
    88  Na    c     2.202951    4.403558    6.577072    0.000000    1.000000
    89  Na    c     2.202951    4.403558   -6.577072    0.000000    1.000000
    90  Na    c     2.202951    0.002345    6.577072    0.000000    1.000000
    91  Na    c     2.202951    0.002345   -6.577072    0.000000    1.000000
    92  Na    c     8.835476    2.202951   -2.186942    0.000000    1.000000
    93  Na    c     8.835476    2.202951    2.186942    0.000000    1.000000
    94  Na    c    -4.429573    2.202951   -2.186942    0.000000    1.000000
    95  Na    c    -4.429573    2.202951    2.186942    0.000000    1.000000
    96  Na    c     2.202951    8.835476   -2.186942    0.000000    1.000000
    97  Na    c     2.202951    8.835476    2.186942    0.000000    1.000000
    98  Na    c     2.202951   -4.429573   -2.186942    0.000000    1.000000
    99  Na    c     2.202951   -4.429573    2.186942    0.000000    1.000000
   100  Na    c     6.626437    6.626437    4.404910    0.000000    1.000000
   101  Na    c     6.626437    6.626437   -4.404910    0.000000    1.000000
   102  Na    c     6.626437   -2.220535    4.404910    0.000000    1.000000
   103  Na    c     6.626437   -2.220535   -4.404910    0.000000    1.000000
   104  Na    c    -2.220535    6.626437    4.404910    0.000000    1.000000
   105  Na    c    -2.220535    6.626437   -4.404910    0.000000    1.000000
   106  Na    c    -2.220535   -2.220535    4.404910    0.000000    1.000000
   107  Na    c    -2.220535   -2.220535   -4.404910    0.000000    1.000000
   108  O     c     2.202951    6.608114    6.600177    0.000000    0.183000
   109  O     c     2.202951    6.608114   -6.600177    0.000000    0.183000
   110  O     c     2.202951   -2.202212    6.600177    0.000000    0.183000
   111  O     c     2.202951   -2.202212   -6.600177    0.000000    0.183000
   112  O     c     6.608114    2.202951    6.600177    0.000000    0.183000
   113  O     c     6.608114    2.202951   -6.600177    0.000000    0.183000
   114  O     c    -2.202212    2.202951    6.600177    0.000000    0.183000
   115  O     c    -2.202212    2.202951   -6.600177    0.000000    0.183000
   116  Cl    c     4.409519    8.793953    4.396825    0.000000    1.485000
   117  Cl    c     4.409519    8.793953   -4.396825    0.000000    1.485000
   118  Cl    c     4.409519   -4.388050    4.396825    0.000000    1.485000
   119  Cl    c     4.409519   -4.388050   -4.396825    0.000000    1.485000
   120  Cl    c     8.793953    4.409519    4.396825    0.000000    1.485000
   121  Cl    c     8.793953    4.409519   -4.396825    0.000000    1.485000
   122  Cl    c     8.793953   -0.003617    4.396825    0.000000    1.485000
   123  Cl    c     8.793953   -0.003617   -4.396825    0.000000    1.485000
   124  Cl    c    -0.003617    8.793953    4.396825    0.000000    1.485000
   125  Cl    c    -0.003617    8.793953   -4.396825    0.000000    1.485000
   126  Cl    c    -0.003617   -4.388050    4.396825    0.000000    1.485000
   127  Cl    c    -0.003617   -4.388050   -4.396825    0.000000    1.485000
   128  Cl    c    -4.388050    4.409519    4.396825    0.000000    1.485000
   129  Cl    c    -4.388050    4.409519   -4.396825    0.000000    1.485000
   130  Cl    c    -4.388050   -0.003617    4.396825    0.000000    1.485000
   131  Cl    c    -4.388050   -0.003617   -4.396825    0.000000    1.485000
   132  Na    c     4.403788    6.623451    6.628523    0.000000    1.000000
   133  Na    c     4.403788    6.623451   -6.628523    0.000000    1.000000
   134  Na    c     4.403788   -2.217549    6.628523    0.000000    1.000000
   135  Na    c     4.403788   -2.217549   -6.628523    0.000000    1.000000
   136  Na    c     0.002114    6.623451    6.628523    0.000000    1.000000
   137  Na    c     0.002114    6.623451   -6.628523    0.000000    1.000000
   138  Na    c     0.002114   -2.217549    6.628523    0.000000    1.000000
   139  Na    c     0.002114   -2.217549   -6.628523    0.000000    1.000000
   140  Na    c     6.623451    4.403788    6.628523    0.000000    1.000000
   141  Na    c     6.623451    4.403788   -6.628523    0.000000    1.000000
   142  Na    c     6.623451    0.002114    6.628523    0.000000    1.000000
   143  Na    c     6.623451    0.002114   -6.628523    0.000000    1.000000
   144  Na    c    -2.217549    4.403788    6.628523    0.000000    1.000000
   145  Na    c    -2.217549    4.403788   -6.628523    0.000000    1.000000
   146  Na    c    -2.217549    0.002114    6.628523    0.000000    1.000000
   147  Na    c    -2.217549    0.002114   -6.628523    0.000000    1.000000
   148  Na    c     8.816827    6.611612   -2.208714    0.000000    1.000000
   149  Na    c     8.816827    6.611612    2.208714    0.000000    1.000000
   150  Na    c     8.816827   -2.205710   -2.208714    0.000000    1.000000
   151  Na    c     8.816827   -2.205710    2.208714    0.000000    1.000000
   152  Na    c    -4.410925    6.611612   -2.208714    0.000000    1.000000
   153  Na    c    -4.410925    6.611612    2.208714    0.000000    1.000000
   154  Na    c    -4.410925   -2.205710   -2.208714    0.000000    1.000000
   155  Na    c    -4.410925   -2.205710    2.208714    0.000000    1.000000
   156  Na    c     6.611612    8.816827   -2.208714    0.000000    1.000000
   157  Na    c     6.611612    8.816827    2.208714    0.000000    1.000000
   158  Na    c     6.611612   -4.410925   -2.208714    0.000000    1.000000
   159  Na    c     6.611612   -4.410925    2.208714    0.000000    1.000000
   160  Na    c    -2.205710    8.816827   -2.208714    0.000000    1.000000
   161  Na    c    -2.205710    8.816827    2.208714    0.000000    1.000000
   162  Na    c    -2.205710   -4.410925   -2.208714    0.000000    1.000000
   163  Na    c    -2.205710   -4.410925    2.208714    0.000000    1.000000
   164  Na    c     2.202951    2.202951    8.786109    0.000000    1.000000
   165  Na    c     2.202951    2.202951   -8.786109    0.000000    1.000000
   166  Na    c     2.202951   11.056121    0.000000    0.000000    1.000000
   167  Na    c     2.202951   -6.650219    0.000000    0.000000    1.000000
   168  Na    c    11.056121    2.202951    0.000000    0.000000    1.000000
   169  Na    c    -6.650219    2.202951    0.000000    0.000000    1.000000
   170  O     c     6.601133    6.601133    6.599849    0.000000    0.183000
   171  O     c     6.601133    6.601133   -6.599849    0.000000    0.183000
   172  O     c     6.601133   -2.195231    6.599849    0.000000    0.183000
   173  O     c     6.601133   -2.195231   -6.599849    0.000000    0.183000
   174  O     c    -2.195231    6.601133    6.599849    0.000000    0.183000
   175  O     c    -2.195231    6.601133   -6.599849    0.000000    0.183000
   176  O     c    -2.195231   -2.195231    6.599849    0.000000    0.183000
   177  O     c    -2.195231   -2.195231   -6.599849    0.000000    0.183000
   178  O     c     2.202951   11.023763   -2.201698    0.000000    0.183000
   179  O     c     2.202951   11.023763    2.201698    0.000000    0.183000
   180  O     c     2.202951   -6.617860   -2.201698    0.000000    0.183000
   181  O     c     2.202951   -6.617860    2.201698    0.000000    0.183000
   182  O     c    11.023763    2.202951   -2.201698    0.000000    0.183000
   183  O     c    11.023763    2.202951    2.201698    0.000000    0.183000
   184  O     c    -6.617860    2.202951   -2.201698    0.000000    0.183000
   185  O     c    -6.617860    2.202951    2.201698    0.000000    0.183000
   186  Cl    c     4.400209    4.400209    8.783988    0.000000    1.485000
   187  Cl    c     4.400209    4.400209   -8.783988    0.000000    1.485000
   188  Cl    c     4.400209    0.005693    8.783988    0.000000    1.485000
   189  Cl    c     4.400209    0.005693   -8.783988    0.000000    1.485000
   190  Cl    c     0.005693    4.400209    8.783988    0.000000    1.485000
   191  Cl    c     0.005693    4.400209   -8.783988    0.000000    1.485000
   192  Cl    c     0.005693    0.005693    8.783988    0.000000    1.485000
   193  Cl    c     0.005693    0.005693   -8.783988    0.000000    1.485000
   194  Cl    c     8.790100    8.790100    0.000000    0.000000    1.485000
   195  Cl    c     8.790100   -4.384198    0.000000    0.000000    1.485000
   196  Cl    c    -4.384198    8.790100    0.000000    0.000000    1.485000
   197  Cl    c    -4.384198   -4.384198    0.000000    0.000000    1.485000
   198  Na    c     8.816567    2.202951    6.631229    0.000000    1.000000
   199  Na    c     8.816567    2.202951   -6.631229    0.000000    1.000000
   200  Na    c    -4.410665    2.202951    6.631229    0.000000    1.000000
   201  Na    c    -4.410665    2.202951   -6.631229    0.000000    1.000000
   202  Na    c     2.202951    8.816567    6.631229    0.000000    1.000000
   203  Na    c     2.202951    8.816567   -6.631229    0.000000    1.000000
   204  Na    c     2.202951   -4.410665    6.631229    0.000000    1.000000
   205  Na    c     2.202951   -4.410665   -6.631229    0.000000    1.000000
   206  Na    c     4.407774   11.034267   -2.208945    0.000000    1.000000
   207  Na    c     4.407774   11.034267    2.208945    0.000000    1.000000
   208  Na    c     4.407774   -6.628364   -2.208945    0.000000    1.000000
   209  Na    c     4.407774   -6.628364    2.208945    0.000000    1.000000
   210  Na    c    -0.001871   11.034267   -2.208945    0.000000    1.000000
   211  Na    c    -0.001871   11.034267    2.208945    0.000000    1.000000
   212  Na    c    -0.001871   -6.628364   -2.208945    0.000000    1.000000
   213  Na    c    -0.001871   -6.628364    2.208945    0.000000    1.000000
   214  Na    c    11.034267    4.407774   -2.208945    0.000000    1.000000
   215  Na    c    11.034267    4.407774    2.208945    0.000000    1.000000
   216  Na    c    11.034267   -0.001871   -2.208945    0.000000    1.000000
   217  Na    c    11.034267   -0.001871    2.208945    0.000000    1.000000
   218  Na    c    -6.628364    4.407774   -2.208945    0.000000    1.000000
   219  Na    c    -6.628364    4.407774    2.208945    0.000000    1.000000
   220  Na    c    -6.628364   -0.001871   -2.208945    0.000000    1.000000
   221  Na    c    -6.628364   -0.001871    2.208945    0.000000    1.000000
   222  Na    c     2.202951    6.593502    8.810783    0.000000    1.000000
   223  Na    c     2.202951    6.593502   -8.810783    0.000000    1.000000
   224  Na    c     2.202951   -2.187599    8.810783    0.000000    1.000000
   225  Na    c     2.202951   -2.187599   -8.810783    0.000000    1.000000
   226  Na    c     6.593502    2.202951    8.810783    0.000000    1.000000
   227  Na    c     6.593502    2.202951   -8.810783    0.000000    1.000000
   228  Na    c    -2.187599    2.202951    8.810783    0.000000    1.000000
   229  Na    c    -2.187599    2.202951   -8.810783    0.000000    1.000000
   230  Na    c     2.202951   11.025819    4.408740    0.000000    1.000000
   231  Na    c     2.202951   11.025819   -4.408740    0.000000    1.000000
   232  Na    c     2.202951   -6.619916    4.408740    0.000000    1.000000
   233  Na    c     2.202951   -6.619916   -4.408740    0.000000    1.000000
   234  Na    c    11.025819    2.202951    4.408740    0.000000    1.000000
   235  Na    c    11.025819    2.202951   -4.408740    0.000000    1.000000
   236  Na    c    -6.619916    2.202951    4.408740    0.000000    1.000000
   237  Na    c    -6.619916    2.202951   -4.408740    0.000000    1.000000
   238  Na    c     6.607420   11.025124    0.000000    0.000000    1.000000
   239  Na    c     6.607420   -6.619221    0.000000    0.000000    1.000000
   240  Na    c    11.025124    6.607420    0.000000    0.000000    1.000000
   241  Na    c    11.025124   -2.201517    0.000000    0.000000    1.000000
   242  Na    c    -2.201517   11.025124    0.000000    0.000000    1.000000
   243  Na    c    -2.201517   -6.619221    0.000000    0.000000    1.000000
   244  Na    c    -6.619221    6.607420    0.000000    0.000000    1.000000
   245  Na    c    -6.619221   -2.201517    0.000000    0.000000    1.000000
   246  O     c     6.608371   11.014884   -2.203655    0.000000    0.183000
   247  O     c     6.608371   11.014884    2.203655    0.000000    0.183000
   248  O     c     6.608371   -6.608981   -2.203655    0.000000    0.183000
   249  O     c     6.608371   -6.608981    2.203655    0.000000    0.183000
   250  O     c    11.014884    6.608371   -2.203655    0.000000    0.183000
   251  O     c    11.014884    6.608371    2.203655    0.000000    0.183000
   252  O     c    11.014884   -2.202469   -2.203655    0.000000    0.183000
   253  O     c    11.014884   -2.202469    2.203655    0.000000    0.183000
   254  O     c    -2.202469   11.014884   -2.203655    0.000000    0.183000
   255  O     c    -2.202469   11.014884    2.203655    0.000000    0.183000
   256  O     c    -2.202469   -6.608981   -2.203655    0.000000    0.183000
   257  O     c    -2.202469   -6.608981    2.203655    0.000000    0.183000
   258  O     c    -6.608981    6.608371   -2.203655    0.000000    0.183000
   259  O     c    -6.608981    6.608371    2.203655    0.000000    0.183000
   260  O     c    -6.608981   -2.202469   -2.203655    0.000000    0.183000
   261  O     c    -6.608981   -2.202469    2.203655    0.000000    0.183000
   262  Cl    c     8.794292    8.794292    4.392654    0.000000    1.485000
   263  Cl    c     8.794292    8.794292   -4.392654    0.000000    1.485000
   264  Cl    c     8.794292   -4.388389    4.392654    0.000000    1.485000
   265  Cl    c     8.794292   -4.388389   -4.392654    0.000000    1.485000
   266  Cl    c    -4.388389    8.794292    4.392654    0.000000    1.485000
   267  Cl    c    -4.388389    8.794292   -4.392654    0.000000    1.485000
   268  Cl    c    -4.388389   -4.388389    4.392654    0.000000    1.485000
   269  Cl    c    -4.388389   -4.388389   -4.392654    0.000000    1.485000
   270  Na    c     8.812104    6.614070    6.612963    0.000000    1.000000
   271  Na    c     8.812104    6.614070   -6.612963    0.000000    1.000000
   272  Na    c     8.812104   -2.208167    6.612963    0.000000    1.000000
   273  Na    c     8.812104   -2.208167   -6.612963    0.000000    1.000000
   274  Na    c    -4.406202    6.614070    6.612963    0.000000    1.000000
   275  Na    c    -4.406202    6.614070   -6.612963    0.000000    1.000000
   276  Na    c    -4.406202   -2.208167    6.612963    0.000000    1.000000
   277  Na    c    -4.406202   -2.208167   -6.612963    0.000000    1.000000
   278  Na    c     6.614070    8.812104    6.612963    0.000000    1.000000
   279  Na    c     6.614070    8.812104   -6.612963    0.000000    1.000000
   280  Na    c     6.614070   -4.406202    6.612963    0.000000    1.000000
   281  Na    c     6.614070   -4.406202   -6.612963    0.000000    1.000000
   282  Na    c    -2.208167    8.812104    6.612963    0.000000    1.000000
   283  Na    c    -2.208167    8.812104   -6.612963    0.000000    1.000000
   284  Na    c    -2.208167   -4.406202    6.612963    0.000000    1.000000
   285  Na    c    -2.208167   -4.406202   -6.612963    0.000000    1.000000
   286  Na    c     6.615300   11.020267    4.407275    0.000000    1.000000
   287  Na    c     6.615300   11.020267   -4.407275    0.000000    1.000000
   288  Na    c     6.615300   -6.614365    4.407275    0.000000    1.000000
   289  Na    c     6.615300   -6.614365   -4.407275    0.000000    1.000000
   290  Na    c    11.020267    6.615300    4.407275    0.000000    1.000000
   291  Na    c    11.020267    6.615300   -4.407275    0.000000    1.000000
   292  Na    c    11.020267   -2.209398    4.407275    0.000000    1.000000
   293  Na    c    11.020267   -2.209398   -4.407275    0.000000    1.000000
   294  Na    c    -2.209398   11.020267    4.407275    0.000000    1.000000
   295  Na    c    -2.209398   11.020267   -4.407275    0.000000    1.000000
   296  Na    c    -2.209398   -6.614365    4.407275    0.000000    1.000000
   297  Na    c    -2.209398   -6.614365   -4.407275    0.000000    1.000000
   298  Na    c    -6.614365    6.615300    4.407275    0.000000    1.000000
   299  Na    c    -6.614365    6.615300   -4.407275    0.000000    1.000000
   300  Na    c    -6.614365   -2.209398    4.407275    0.000000    1.000000
   301  Na    c    -6.614365   -2.209398   -4.407275    0.000000    1.000000
   302  Na    c     6.610050    6.610050    8.810631    0.000000    1.000000
   303  Na    c     6.610050    6.610050   -8.810631    0.000000    1.000000
   304  Na    c     6.610050   -2.204148    8.810631    0.000000    1.000000
   305  Na    c     6.610050   -2.204148   -8.810631    0.000000    1.000000
   306  Na    c    -2.204148    6.610050    8.810631    0.000000    1.000000
   307  Na    c    -2.204148    6.610050   -8.810631    0.000000    1.000000
   308  Na    c    -2.204148   -2.204148    8.810631    0.000000    1.000000
   309  Na    c    -2.204148   -2.204148   -8.810631    0.000000    1.000000
   310  O     c     2.202951    2.202951   11.002497    0.000000    0.183000
   311  O     c     2.202951    2.202951  -11.002497    0.000000    0.183000
   312  O     c     2.202951   11.015078    6.610353    0.000000    0.183000
   313  O     c     2.202951   11.015078   -6.610353    0.000000    0.183000
   314  O     c     2.202951   -6.609176    6.610353    0.000000    0.183000
   315  O     c     2.202951   -6.609176   -6.610353    0.000000    0.183000
   316  O     c    11.015078    2.202951    6.610353    0.000000    0.183000
   317  O     c    11.015078    2.202951   -6.610353    0.000000    0.183000
   318  O     c    -6.609176    2.202951    6.610353    0.000000    0.183000
   319  O     c    -6.609176    2.202951   -6.610353    0.000000    0.183000
   320  Cl    c     4.404520    8.803504    8.797835    0.000000    1.485000
   321  Cl    c     4.404520    8.803504   -8.797835    0.000000    1.485000
   322  Cl    c     4.404520   -4.397602    8.797835    0.000000    1.485000
   323  Cl    c     4.404520   -4.397602   -8.797835    0.000000    1.485000
   324  Cl    c     8.803504    4.404520    8.797835    0.000000    1.485000
   325  Cl    c     8.803504    4.404520   -8.797835    0.000000    1.485000
   326  Cl    c     8.803504    0.001383    8.797835    0.000000    1.485000
   327  Cl    c     8.803504    0.001383   -8.797835    0.000000    1.485000
   328  Cl    c     0.001383    8.803504    8.797835    0.000000    1.485000
   329  Cl    c     0.001383    8.803504   -8.797835    0.000000    1.485000
   330  Cl    c     0.001383   -4.397602    8.797835    0.000000    1.485000
   331  Cl    c     0.001383   -4.397602   -8.797835    0.000000    1.485000
   332  Cl    c    -4.397602    4.404520    8.797835    0.000000    1.485000
   333  Cl    c    -4.397602    4.404520   -8.797835    0.000000    1.485000
   334  Cl    c    -4.397602    0.001383    8.797835    0.000000    1.485000
   335  Cl    c    -4.397602    0.001383   -8.797835    0.000000    1.485000
   336  Cl    c     4.404000   13.205004    0.000000    0.000000    1.485000
   337  Cl    c     4.404000   -8.799101    0.000000    0.000000    1.485000
   338  Cl    c    13.205004    4.404000    0.000000    0.000000    1.485000
   339  Cl    c    13.205004    0.001903    0.000000    0.000000    1.485000
   340  Cl    c     0.001903   13.205004    0.000000    0.000000    1.485000
   341  Cl    c     0.001903   -8.799101    0.000000    0.000000    1.485000
   342  Cl    c    -8.799101    4.404000    0.000000    0.000000    1.485000
   343  Cl    c    -8.799101    0.001903    0.000000    0.000000    1.485000
   344  Na    c     4.403512    2.202951   11.015790    0.000000    1.000000
   345  Na    c     4.403512    2.202951  -11.015790    0.000000    1.000000
   346  Na    c     0.002391    2.202951   11.015790    0.000000    1.000000
   347  Na    c     0.002391    2.202951  -11.015790    0.000000    1.000000
   348  Na    c     2.202951    4.403512   11.015790    0.000000    1.000000
   349  Na    c     2.202951    4.403512  -11.015790    0.000000    1.000000
   350  Na    c     2.202951    0.002391   11.015790    0.000000    1.000000
   351  Na    c     2.202951    0.002391  -11.015790    0.000000    1.000000
   352  Na    c     4.406820   11.021761    6.612306    0.000000    1.000000
   353  Na    c     4.406820   11.021761   -6.612306    0.000000    1.000000
   354  Na    c     4.406820   -6.615859    6.612306    0.000000    1.000000
   355  Na    c     4.406820   -6.615859   -6.612306    0.000000    1.000000
   356  Na    c    -0.000917   11.021761    6.612306    0.000000    1.000000
   357  Na    c    -0.000917   11.021761   -6.612306    0.000000    1.000000
   358  Na    c    -0.000917   -6.615859    6.612306    0.000000    1.000000
   359  Na    c    -0.000917   -6.615859   -6.612306    0.000000    1.000000
   360  Na    c    11.021761    4.406820    6.612306    0.000000    1.000000
   361  Na    c    11.021761    4.406820   -6.612306    0.000000    1.000000
   362  Na    c    11.021761   -0.000917    6.612306    0.000000    1.000000
   363  Na    c    11.021761   -0.000917   -6.612306    0.000000    1.000000
   364  Na    c    -6.615859    4.406820    6.612306    0.000000    1.000000
   365  Na    c    -6.615859    4.406820   -6.612306    0.000000    1.000000
   366  Na    c    -6.615859   -0.000917    6.612306    0.000000    1.000000
   367  Na    c    -6.615859   -0.000917   -6.612306    0.000000    1.000000
   368  Na    c    13.225299    2.202951   -2.212898    0.000000    1.000000
   369  Na    c    13.225299    2.202951    2.212898    0.000000    1.000000
   370  Na    c    -8.819397    2.202951   -2.212898    0.000000    1.000000
   371  Na    c    -8.819397    2.202951    2.212898    0.000000    1.000000
   372  Na    c     2.202951   13.225299   -2.212898    0.000000    1.000000
   373  Na    c     2.202951   13.225299    2.212898    0.000000    1.000000
   374  Na    c     2.202951   -8.819397   -2.212898    0.000000    1.000000
   375  Na    c     2.202951   -8.819397    2.212898    0.000000    1.000000
   376  Na    c     8.811852   11.020509   -2.198956    0.000000    1.000000
   377  Na    c     8.811852   11.020509    2.198956    0.000000    1.000000
   378  Na    c     8.811852   -6.614606   -2.198956    0.000000    1.000000
   379  Na    c     8.811852   -6.614606    2.198956    0.000000    1.000000
   380  Na    c    -4.405950   11.020509   -2.198956    0.000000    1.000000
   381  Na    c    -4.405950   11.020509    2.198956    0.000000    1.000000
   382  Na    c    -4.405950   -6.614606   -2.198956    0.000000    1.000000
   383  Na    c    -4.405950   -6.614606    2.198956    0.000000    1.000000
   384  Na    c    11.020509    8.811852   -2.198956    0.000000    1.000000
   385  Na    c    11.020509    8.811852    2.198956    0.000000    1.000000
   386  Na    c    11.020509   -4.405950   -2.198956    0.000000    1.000000
   387  Na    c    11.020509   -4.405950    2.198956    0.000000    1.000000
   388  Na    c    -6.614606    8.811852   -2.198956    0.000000    1.000000
   389  Na    c    -6.614606    8.811852    2.198956    0.000000    1.000000
   390  Na    c    -6.614606   -4.405950   -2.198956    0.000000    1.000000
   391  Na    c    -6.614606   -4.405950    2.198956    0.000000    1.000000
   392  O     c     2.202951    6.605568   11.010680    0.000000    0.183000
   393  O     c     2.202951    6.605568  -11.010680    0.000000    0.183000
   394  O     c     2.202951   -2.199666   11.010680    0.000000    0.183000
   395  O     c     2.202951   -2.199666  -11.010680    0.000000    0.183000
   396  O     c     6.605568    2.202951   11.010680    0.000000    0.183000
   397  O     c     6.605568    2.202951  -11.010680    0.000000    0.183000
   398  O     c    -2.199666    2.202951   11.010680    0.000000    0.183000
   399  O     c    -2.199666    2.202951  -11.010680    0.000000    0.183000
   400  O     c     6.608763   11.012615    6.607034    0.000000    0.183000
   401  O     c     6.608763   11.012615   -6.607034    0.000000    0.183000
   402  O     c     6.608763   -6.606713    6.607034    0.000000    0.183000
   403  O     c     6.608763   -6.606713   -6.607034    0.000000    0.183000
   404  O     c    11.012615    6.608763    6.607034    0.000000    0.183000
   405  O     c    11.012615    6.608763   -6.607034    0.000000    0.183000
   406  O     c    11.012615   -2.202860    6.607034    0.000000    0.183000
   407  O     c    11.012615   -2.202860   -6.607034    0.000000    0.183000
   408  O     c    -2.202860   11.012615    6.607034    0.000000    0.183000
   409  O     c    -2.202860   11.012615   -6.607034    0.000000    0.183000
   410  O     c    -2.202860   -6.606713    6.607034    0.000000    0.183000
   411  O     c    -2.202860   -6.606713   -6.607034    0.000000    0.183000
   412  O     c    -6.606713    6.608763    6.607034    0.000000    0.183000
   413  O     c    -6.606713    6.608763   -6.607034    0.000000    0.183000
   414  O     c    -6.606713   -2.202860    6.607034    0.000000    0.183000
   415  O     c    -6.606713   -2.202860   -6.607034    0.000000    0.183000
   416  Cl    c     4.403469   13.202618    4.401851    0.000000    1.485000
   417  Cl    c     4.403469   13.202618   -4.401851    0.000000    1.485000
   418  Cl    c     4.403469   -8.796716    4.401851    0.000000    1.485000
   419  Cl    c     4.403469   -8.796716   -4.401851    0.000000    1.485000
   420  Cl    c    13.202618    4.403469    4.401851    0.000000    1.485000
   421  Cl    c    13.202618    4.403469   -4.401851    0.000000    1.485000
   422  Cl    c    13.202618    0.002434    4.401851    0.000000    1.485000
   423  Cl    c    13.202618    0.002434   -4.401851    0.000000    1.485000
   424  Cl    c     0.002434   13.202618    4.401851    0.000000    1.485000
   425  Cl    c     0.002434   13.202618   -4.401851    0.000000    1.485000
   426  Cl    c     0.002434   -8.796716    4.401851    0.000000    1.485000
   427  Cl    c     0.002434   -8.796716   -4.401851    0.000000    1.485000
   428  Cl    c    -8.796716    4.403469    4.401851    0.000000    1.485000
   429  Cl    c    -8.796716    4.403469   -4.401851    0.000000    1.485000
   430  Cl    c    -8.796716    0.002434    4.401851    0.000000    1.485000
   431  Cl    c    -8.796716    0.002434   -4.401851    0.000000    1.485000
   432  Na    c     4.405504    6.612025   11.023104    0.000000    1.000000
   433  Na    c     4.405504    6.612025  -11.023104    0.000000    1.000000
   434  Na    c     4.405504   -2.206123   11.023104    0.000000    1.000000
   435  Na    c     4.405504   -2.206123  -11.023104    0.000000    1.000000
   436  Na    c     0.000398    6.612025   11.023104    0.000000    1.000000
   437  Na    c     0.000398    6.612025  -11.023104    0.000000    1.000000
   438  Na    c     0.000398   -2.206123   11.023104    0.000000    1.000000
   439  Na    c     0.000398   -2.206123  -11.023104    0.000000    1.000000
   440  Na    c     6.612025    4.405504   11.023104    0.000000    1.000000
   441  Na    c     6.612025    4.405504  -11.023104    0.000000    1.000000
   442  Na    c     6.612025    0.000398   11.023104    0.000000    1.000000
   443  Na    c     6.612025    0.000398  -11.023104    0.000000    1.000000
   444  Na    c    -2.206123    4.405504   11.023104    0.000000    1.000000
   445  Na    c    -2.206123    4.405504  -11.023104    0.000000    1.000000
   446  Na    c    -2.206123    0.000398   11.023104    0.000000    1.000000
   447  Na    c    -2.206123    0.000398  -11.023104    0.000000    1.000000
   448  Na    c    13.221307    6.616586   -2.205714    0.000000    1.000000
   449  Na    c    13.221307    6.616586    2.205714    0.000000    1.000000
   450  Na    c    13.221307   -2.210684   -2.205714    0.000000    1.000000
   451  Na    c    13.221307   -2.210684    2.205714    0.000000    1.000000
   452  Na    c    -8.815405    6.616586   -2.205714    0.000000    1.000000
   453  Na    c    -8.815405    6.616586    2.205714    0.000000    1.000000
   454  Na    c    -8.815405   -2.210684   -2.205714    0.000000    1.000000
   455  Na    c    -8.815405   -2.210684    2.205714    0.000000    1.000000
   456  Na    c     6.616586   13.221307   -2.205714    0.000000    1.000000
   457  Na    c     6.616586   13.221307    2.205714    0.000000    1.000000
   458  Na    c     6.616586   -8.815405   -2.205714    0.000000    1.000000
   459  Na    c     6.616586   -8.815405    2.205714    0.000000    1.000000
   460  Na    c    -2.210684   13.221307   -2.205714    0.000000    1.000000
   461  Na    c    -2.210684   13.221307    2.205714    0.000000    1.000000
   462  Na    c    -2.210684   -8.815405   -2.205714    0.000000    1.000000
   463  Na    c    -2.210684   -8.815405    2.205714    0.000000    1.000000
   464  Na    c     2.202951   11.027639    8.816119    0.000000    1.000000
   465  Na    c     2.202951   11.027639   -8.816119    0.000000    1.000000
   466  Na    c     2.202951   -6.621737    8.816119    0.000000    1.000000
   467  Na    c     2.202951   -6.621737   -8.816119    0.000000    1.000000
   468  Na    c    11.027639    2.202951    8.816119    0.000000    1.000000
   469  Na    c    11.027639    2.202951   -8.816119    0.000000    1.000000
   470  Na    c    -6.621737    2.202951    8.816119    0.000000    1.000000
   471  Na    c    -6.621737    2.202951   -8.816119    0.000000    1.000000
   472  Na    c    11.024804   11.024804    0.000000    0.000000    1.000000
   473  Na    c    11.024804   -6.618901    0.000000    0.000000    1.000000
   474  Na    c    -6.618901   11.024804    0.000000    0.000000    1.000000
   475  Na    c    -6.618901   -6.618901    0.000000    0.000000    1.000000
   476  O     c     6.606017    6.606017   11.008822    0.000000    0.183000
   477  O     c     6.606017    6.606017  -11.008822    0.000000    0.183000
   478  O     c     6.606017   -2.200115   11.008822    0.000000    0.183000
   479  O     c     6.606017   -2.200115  -11.008822    0.000000    0.183000
   480  O     c    -2.200115    6.606017   11.008822    0.000000    0.183000
   481  O     c    -2.200115    6.606017  -11.008822    0.000000    0.183000
   482  O     c    -2.200115   -2.200115   11.008822    0.000000    0.183000
   483  O     c    -2.200115   -2.200115  -11.008822    0.000000    0.183000
   484  O     c    11.010146   11.010146   -2.200533    0.000000    0.183000
   485  O     c    11.010146   11.010146    2.200533    0.000000    0.183000
   486  O     c    11.010146   -6.604244   -2.200533    0.000000    0.183000
   487  O     c    11.010146   -6.604244    2.200533    0.000000    0.183000
   488  O     c    -6.604244   11.010146   -2.200533    0.000000    0.183000
   489  O     c    -6.604244   11.010146    2.200533    0.000000    0.183000
   490  O     c    -6.604244   -6.604244   -2.200533    0.000000    0.183000
   491  O     c    -6.604244   -6.604244    2.200533    0.000000    0.183000
   492  Cl    c     8.800472    8.800472    8.796013    0.000000    1.485000
   493  Cl    c     8.800472    8.800472   -8.796013    0.000000    1.485000
   494  Cl    c     8.800472   -4.394570    8.796013    0.000000    1.485000
   495  Cl    c     8.800472   -4.394570   -8.796013    0.000000    1.485000
   496  Cl    c    -4.394570    8.800472    8.796013    0.000000    1.485000
   497  Cl    c    -4.394570    8.800472   -8.796013    0.000000    1.485000
   498  Cl    c    -4.394570   -4.394570    8.796013    0.000000    1.485000
   499  Cl    c    -4.394570   -4.394570   -8.796013    0.000000    1.485000
   500  Cl    c     8.803901   13.200323    0.000000    0.000000    1.485000
   501  Cl    c     8.803901   -8.794421    0.000000    0.000000    1.485000
   502  Cl    c    13.200323    8.803901    0.000000    0.000000    1.485000
   503  Cl    c    13.200323   -4.397998    0.000000    0.000000    1.485000
   504  Cl    c    -4.397998   13.200323    0.000000    0.000000    1.485000
   505  Cl    c    -4.397998   -8.794421    0.000000    0.000000    1.485000
   506  Cl    c    -8.794421    8.803901    0.000000    0.000000    1.485000
   507  Cl    c    -8.794421   -4.397998    0.000000    0.000000    1.485000
   508  Na    c     8.812398    2.202951   11.022626    0.000000    1.000000
   509  Na    c     8.812398    2.202951  -11.022626    0.000000    1.000000
   510  Na    c    -4.406496    2.202951   11.022626    0.000000    1.000000
   511  Na    c    -4.406496    2.202951  -11.022626    0.000000    1.000000
   512  Na    c     2.202951    8.812398   11.022626    0.000000    1.000000
   513  Na    c     2.202951    8.812398  -11.022626    0.000000    1.000000
   514  Na    c     2.202951   -4.406496   11.022626    0.000000    1.000000
   515  Na    c     2.202951   -4.406496  -11.022626    0.000000    1.000000
   516  Na    c    13.222289    2.202951    6.617914    0.000000    1.000000
   517  Na    c    13.222289    2.202951   -6.617914    0.000000    1.000000
[...]
      6 y          6.608853      6.631851     0.022997    Cartesian    0.35
      6 z          0.000000      0.000000     0.000000    Cartesian    0.00
      7 x          2.202951      2.202951     0.000000    Cartesian    0.00
      7 y          6.608853      6.640106     0.031253    Cartesian    0.47
      7 z         -2.202951     -2.198680     0.004271    Cartesian   -0.19
      8 x          4.405902      4.403746    -0.002156    Cartesian   -0.05
      8 y          6.608853      6.650508     0.041655    Cartesian    0.63
      8 z         -2.202951     -2.231567    -0.028616    Cartesian    1.30
      9 x          4.405902      4.339665    -0.066237    Cartesian   -1.50
      9 y          4.405902      4.339665    -0.066237    Cartesian   -1.50
      9 z          4.405902      4.315351    -0.090551    Cartesian   -2.06
     10 x          2.202951      2.202951     0.000000    Cartesian    0.00
     10 y          6.608853      6.651509     0.042656    Cartesian    0.65
     10 z          4.405902      4.405673    -0.000229    Cartesian   -0.01
     11 x          6.608853      6.664190     0.055337    Cartesian    0.84
     11 y          6.608853      6.664190     0.055337    Cartesian    0.84
     11 z          0.000000      0.000000     0.000000    Cartesian    0.00
     12 x          2.202951      2.202951     0.000000    Cartesian    0.00
     12 y          2.202951      2.202951     0.000000    Cartesian    0.00
     12 z          6.608853      6.556551    -0.052302    Cartesian   -0.79
     13 x          6.608853      6.597181    -0.011673    Cartesian   -0.18
     13 y          6.608853      6.597181    -0.011673    Cartesian   -0.18
     13 z         -2.202951     -2.193484     0.009467    Cartesian   -0.43
     14 x          4.405902      4.414008     0.008106    Cartesian    0.18
     14 y          8.811805      8.786345    -0.025459    Cartesian   -0.29
     14 z          0.000000      0.000000     0.000000    Cartesian    0.00
     15 x          4.405902      4.403558    -0.002345    Cartesian   -0.05
     15 y          2.202951      2.202951     0.000000    Cartesian    0.00
     15 z          6.608853      6.577072    -0.031782    Cartesian   -0.48
     16 x          8.811805      8.835476     0.023671    Cartesian    0.27
     16 y          2.202951      2.202951     0.000000    Cartesian    0.00
     16 z         -2.202951     -2.186942     0.016009    Cartesian   -0.73
     17 x          6.608853      6.626437     0.017584    Cartesian    0.27
     17 y          6.608853      6.626437     0.017584    Cartesian    0.27
     17 z          4.405902      4.404910    -0.000992    Cartesian   -0.02
     18 x          2.202951      2.202951     0.000000    Cartesian    0.00
     18 y          6.608853      6.608114    -0.000740    Cartesian   -0.01
     18 z          6.608853      6.600177    -0.008677    Cartesian   -0.13
     19 x          4.405902      4.409519     0.003617    Cartesian    0.08
     19 y          8.811805      8.793953    -0.017852    Cartesian   -0.20
     19 z          4.405902      4.396825    -0.009077    Cartesian   -0.21
     20 x          4.405902      4.403788    -0.002114    Cartesian   -0.05
     20 y          6.608853      6.623451     0.014598    Cartesian    0.22
     20 z          6.608853      6.628523     0.019670    Cartesian    0.30
     21 x          8.811805      8.816827     0.005023    Cartesian    0.06
     21 y          6.608853      6.611612     0.002759    Cartesian    0.04
     21 z         -2.202951     -2.208714    -0.005763    Cartesian    0.26
     22 x          2.202951      2.202951     0.000000    Cartesian    0.00
     22 y          2.202951      2.202951     0.000000    Cartesian    0.00
     22 z          8.811805      8.786109    -0.025695    Cartesian   -0.29
     23 x          2.202951      2.202951     0.000000    Cartesian    0.00
     23 y         11.014756     11.056121     0.041365    Cartesian    0.38
     23 z          0.000000      0.000000     0.000000    Cartesian    0.00
     24 x          6.608853      6.601133    -0.007720    Cartesian   -0.12
     24 y          6.608853      6.601133    -0.007720    Cartesian   -0.12
     24 z          6.608853      6.599849    -0.009004    Cartesian   -0.14
     25 x          2.202951      2.202951     0.000000    Cartesian    0.00
     25 y         11.014756     11.023763     0.009007    Cartesian    0.08
     25 z         -2.202951     -2.201698     0.001253    Cartesian   -0.06
     26 x          4.405902      4.400209    -0.005693    Cartesian   -0.13
     26 y          4.405902      4.400209    -0.005693    Cartesian   -0.13
     26 z          8.811805      8.783988    -0.027816    Cartesian   -0.32
     27 x          8.811805      8.790100    -0.021704    Cartesian   -0.25
     27 y          8.811805      8.790100    -0.021704    Cartesian   -0.25
     27 z          0.000000      0.000000     0.000000    Cartesian    0.00
     28 x          8.811805      8.816567     0.004763    Cartesian    0.05
     28 y          2.202951      2.202951     0.000000    Cartesian    0.00
     28 z          6.608853      6.631229     0.022376    Cartesian    0.34
     29 x          4.405902      4.407774     0.001871    Cartesian    0.04
     29 y         11.014756     11.034267     0.019511    Cartesian    0.18
     29 z         -2.202951     -2.208945    -0.005994    Cartesian    0.27
     30 x          2.202951      2.202951     0.000000    Cartesian    0.00
     30 y          6.608853      6.593502    -0.015352    Cartesian   -0.23
     30 z          8.811805      8.810783    -0.001022    Cartesian   -0.01
     31 x          2.202951      2.202951     0.000000    Cartesian    0.00
     31 y         11.014756     11.025819     0.011063    Cartesian    0.10
     31 z          4.405902      4.408740     0.002837    Cartesian    0.06
     32 x          6.608853      6.607420    -0.001434    Cartesian   -0.02
     32 y         11.014756     11.025124     0.010368    Cartesian    0.09
     32 z          0.000000      0.000000     0.000000    Cartesian    0.00
     33 x          6.608853      6.608371    -0.000483    Cartesian   -0.01
     33 y         11.014756     11.014884     0.000128    Cartesian    0.00
     33 z         -2.202951     -2.203655    -0.000703    Cartesian    0.03
     34 x          8.811805      8.794292    -0.017513    Cartesian   -0.20
     34 y          8.811805      8.794292    -0.017513    Cartesian   -0.20
     34 z          4.405902      4.392654    -0.013249    Cartesian   -0.30
     35 x          8.811805      8.812104     0.000300    Cartesian    0.00
     35 y          6.608853      6.614070     0.005216    Cartesian    0.08
     35 z          6.608853      6.612963     0.004109    Cartesian    0.06
     36 x          6.608853      6.615300     0.006446    Cartesian    0.10
     36 y         11.014756     11.020267     0.005512    Cartesian    0.05
     36 z          4.405902      4.407275     0.001372    Cartesian    0.03
     37 x          6.608853      6.610050     0.001197    Cartesian    0.02
     37 y          6.608853      6.610050     0.001197    Cartesian    0.02
     37 z          8.811805      8.810631    -0.001174    Cartesian   -0.01
     38 x          2.202951      2.202951     0.000000    Cartesian    0.00
     38 y          2.202951      2.202951     0.000000    Cartesian    0.00
     38 z         11.014756     11.002497    -0.012258    Cartesian   -0.11
     39 x          2.202951      2.202951     0.000000    Cartesian    0.00
     39 y         11.014756     11.015078     0.000323    Cartesian    0.00
     39 z          6.608853      6.610353     0.001499    Cartesian    0.02
     40 x          4.405902      4.404520    -0.001383    Cartesian   -0.03
     40 y          8.811805      8.803504    -0.008301    Cartesian   -0.09
     40 z          8.811805      8.797835    -0.013970    Cartesian   -0.16
     41 x          4.405902      4.404000    -0.001903    Cartesian   -0.04
     41 y         13.217707     13.205004    -0.012703    Cartesian   -0.10
     41 z          0.000000      0.000000     0.000000    Cartesian    0.00
     42 x          4.405902      4.403512    -0.002391    Cartesian   -0.05
     42 y          2.202951      2.202951     0.000000    Cartesian    0.00
     42 z         11.014756     11.015790     0.001034    Cartesian    0.01
     43 x          4.405902      4.406820     0.000917    Cartesian    0.02
     43 y         11.014756     11.021761     0.007005    Cartesian    0.06
     43 z          6.608853      6.612306     0.003452    Cartesian    0.05
     44 x         13.217707     13.225299     0.007592    Cartesian    0.06
     44 y          2.202951      2.202951     0.000000    Cartesian    0.00
     44 z         -2.202951     -2.212898    -0.009947    Cartesian    0.45
     45 x          8.811805      8.811852     0.000047    Cartesian    0.00
     45 y         11.014756     11.020509     0.005753    Cartesian    0.05
     45 z         -2.202951     -2.198956     0.003996    Cartesian   -0.18
     46 x          2.202951      2.202951     0.000000    Cartesian    0.00
     46 y          6.608853      6.605568    -0.003285    Cartesian   -0.05
     46 z         11.014756     11.010680    -0.004076    Cartesian   -0.04
     47 x          6.608853      6.608763    -0.000091    Cartesian   -0.00
     47 y         11.014756     11.012615    -0.002140    Cartesian   -0.02
     47 z          6.608853      6.607034    -0.001819    Cartesian   -0.03
     48 x          4.405902      4.403469    -0.002434    Cartesian   -0.06
     48 y         13.217707     13.202618    -0.015089    Cartesian   -0.11
     48 z          4.405902      4.401851    -0.004051    Cartesian   -0.09
     49 x          4.405902      4.405504    -0.000398    Cartesian   -0.01
     49 y          6.608853      6.612025     0.003172    Cartesian    0.05
     49 z         11.014756     11.023104     0.008348    Cartesian    0.08
     50 x         13.217707     13.221307     0.003600    Cartesian    0.03
     50 y          6.608853      6.616586     0.007733    Cartesian    0.12
     50 z         -2.202951     -2.205714    -0.002763    Cartesian    0.13
     51 x          2.202951      2.202951     0.000000    Cartesian    0.00
     51 y         11.014756     11.027639     0.012884    Cartesian    0.12
     51 z          8.811805      8.816119     0.004314    Cartesian    0.05
     52 x         11.014756     11.024804     0.010048    Cartesian    0.09
     52 y         11.014756     11.024804     0.010048    Cartesian    0.09
     52 z          0.000000      0.000000     0.000000    Cartesian    0.00
     53 x          6.608853      6.606017    -0.002836    Cartesian   -0.04
     53 y          6.608853      6.606017    -0.002836    Cartesian   -0.04
     53 z         11.014756     11.008822    -0.005934    Cartesian   -0.05
     54 x         11.014756     11.010146    -0.004610    Cartesian   -0.04
     54 y         11.014756     11.010146    -0.004610    Cartesian   -0.04
     54 z         -2.202951     -2.200533     0.002419    Cartesian   -0.11
     55 x          8.811805      8.800472    -0.011332    Cartesian   -0.13
     55 y          8.811805      8.800472    -0.011332    Cartesian   -0.13
     55 z          8.811805      8.796013    -0.015791    Cartesian   -0.18
     56 x          8.811805      8.803901    -0.007904    Cartesian   -0.09
     56 y         13.217707     13.200323    -0.017383    Cartesian   -0.13
     56 z          0.000000      0.000000     0.000000    Cartesian    0.00
     57 x          8.811805      8.812398     0.000594    Cartesian    0.01
     57 y          2.202951      2.202951     0.000000    Cartesian    0.00
     57 z         11.014756     11.022626     0.007870    Cartesian    0.07
     58 x         13.217707     13.222289     0.004582    Cartesian    0.03
     58 y          2.202951      2.202951     0.000000    Cartesian    0.00
     58 z          6.608853      6.617914     0.009061    Cartesian    0.14
     59 x          8.811805      8.813938     0.002134    Cartesian    0.02
     59 y         11.014756     11.026608     0.011852    Cartesian    0.11
     59 z          6.608853      6.618878     0.010025    Cartesian    0.15
     60 x          2.202951      2.202951     0.000000    Cartesian    0.00
     60 y          2.202951      2.202951     0.000000    Cartesian    0.00
     60 z          0.000000      0.000000     0.000000    Cartesian    0.00
     61 x          2.202951      2.202951     0.000000    Cartesian    0.00
     61 y          2.202951      2.202951     0.000000    Cartesian    0.00
     61 z         -2.202951     -1.868460     0.334491    Cartesian  -15.18
     62 x          4.405902      4.118544    -0.287359    Cartesian   -6.52
     62 y          4.405902      4.118544    -0.287359    Cartesian   -6.52
     62 z          0.000000      0.000000     0.000000    Cartesian    0.00
     63 x          2.202951      2.202951     0.000000    Cartesian    0.00
     63 y          6.608853      6.640097     0.031243    Cartesian    0.47
     63 z         -2.202951     -2.198680     0.004271    Cartesian   -0.19
     64 x          4.405902      4.331294    -0.074609    Cartesian   -1.69
     64 y          4.405902      4.331294    -0.074609    Cartesian   -1.69
     64 z          4.405902      4.306459    -0.099443    Cartesian   -2.26
     65 x          2.202951      2.202951     0.000000    Cartesian    0.00
     65 y          2.202951      2.202951     0.000000    Cartesian    0.00
     65 z          6.608853      6.556556    -0.052297    Cartesian   -0.79
     66 x          6.608853      6.597181    -0.011672    Cartesian   -0.18
     66 y          6.608853      6.597181    -0.011672    Cartesian   -0.18
     66 z         -2.202951     -2.193485     0.009467    Cartesian   -0.43
     67 x          4.405902      4.414259     0.008356    Cartesian    0.19
     67 y          8.811805      8.782199    -0.029606    Cartesian   -0.34
     67 z          0.000000      0.000000     0.000000    Cartesian    0.00
     68 x          2.202951      2.202951     0.000000    Cartesian    0.00
     68 y          6.608853      6.608120    -0.000733    Cartesian   -0.01
     68 z          6.608853      6.600170    -0.008683    Cartesian   -0.13
     69 x          4.405902      4.409729     0.003827    Cartesian    0.09
     69 y          8.811805      8.789710    -0.022095    Cartesian   -0.25
     69 z          4.405902      4.394275    -0.011627    Cartesian   -0.26
     70 x          6.608853      6.601130    -0.007723    Cartesian   -0.12
     70 y          6.608853      6.601130    -0.007723    Cartesian   -0.12
     70 z          6.608853      6.599846    -0.009008    Cartesian   -0.14
     71 x          2.202951      2.202951     0.000000    Cartesian    0.00
     71 y         11.014756     11.023757     0.009001    Cartesian    0.08
     71 z         -2.202951     -2.201694     0.001257    Cartesian   -0.06
     72 x          4.405902      4.400052    -0.005850    Cartesian   -0.13
     72 y          4.405902      4.400052    -0.005850    Cartesian   -0.13
     72 z          8.811805      8.781524    -0.030280    Cartesian   -0.34
     73 x          8.811805      8.785316    -0.026488    Cartesian   -0.30
     73 y          8.811805      8.785316    -0.026488    Cartesian   -0.30
     73 z          0.000000      0.000000     0.000000    Cartesian    0.00
     74 x          6.608853      6.608371    -0.000483    Cartesian   -0.01
     74 y         11.014756     11.014881     0.000125    Cartesian    0.00
     74 z         -2.202951     -2.203656    -0.000705    Cartesian    0.03
     75 x          8.811805      8.791154    -0.020650    Cartesian   -0.23
     75 y          8.811805      8.791154    -0.020650    Cartesian   -0.23
     75 z          4.405902      4.390667    -0.015235    Cartesian   -0.35
     76 x          2.202951      2.202951     0.000000    Cartesian    0.00
     76 y          2.202951      2.202951     0.000000    Cartesian    0.00
     76 z         11.014756     11.002508    -0.012247    Cartesian   -0.11
     77 x          2.202951      2.202951     0.000000    Cartesian    0.00
     77 y         11.014756     11.015075     0.000319    Cartesian    0.00
     77 z          6.608853      6.610354     0.001500    Cartesian    0.02
     78 x          4.405902      4.404591    -0.001311    Cartesian   -0.03
     78 y          8.811805      8.802106    -0.009699    Cartesian   -0.11
     78 z          8.811805      8.795304    -0.016501    Cartesian   -0.19
     79 x          4.405902      4.403248    -0.002655    Cartesian   -0.06
     79 y         13.217707     13.202492    -0.015214    Cartesian   -0.12
     79 z          0.000000      0.000000     0.000000    Cartesian    0.00
     80 x          2.202951      2.202951     0.000000    Cartesian    0.00
     80 y          6.608853      6.605563    -0.003290    Cartesian   -0.05
     80 z         11.014756     11.010679    -0.004077    Cartesian   -0.04
     81 x          6.608853      6.608761    -0.000093    Cartesian   -0.00
     81 y         11.014756     11.012616    -0.002140    Cartesian   -0.02
     81 z          6.608853      6.607033    -0.001821    Cartesian   -0.03
     82 x          4.405902      4.402917    -0.002985    Cartesian   -0.07
     82 y         13.217707     13.200444    -0.017263    Cartesian   -0.13
     82 z          4.405902      4.400839    -0.005064    Cartesian   -0.11
     83 x          6.608853      6.606014    -0.002839    Cartesian   -0.04
     83 y          6.608853      6.606014    -0.002839    Cartesian   -0.04
     83 z         11.014756     11.008817    -0.005939    Cartesian   -0.05
     84 x         11.014756     11.010141    -0.004615    Cartesian   -0.04
     84 y         11.014756     11.010141    -0.004615    Cartesian   -0.04
     84 z         -2.202951     -2.200527     0.002424    Cartesian   -0.11
     85 x          8.811805      8.799051    -0.012753    Cartesian   -0.14
     85 y          8.811805      8.799051    -0.012753    Cartesian   -0.14
     85 z          8.811805      8.794114    -0.017690    Cartesian   -0.20
     86 x          8.811805      8.802769    -0.009035    Cartesian   -0.10
     86 y         13.217707     13.198052    -0.019655    Cartesian   -0.15
     86 z          0.000000      0.000000     0.000000    Cartesian    0.00
--------------------------------------------------------------------------------


  Time to end of optimisation  =       23.3554 seconds


  Peak dynamic memory used =     102.43 MB 


  Timing analysis for GULP :

--------------------------------------------------------------------------------
  Task / Subroutine                                          Time (Seconds)
--------------------------------------------------------------------------------
  Calculation of reciprocal space energy and derivatives          0.0004
  Calculation of reciprocal space energy using symmetry           0.0007
  Calculation of real space energy and derivatives                0.0023
  Calculation of real space energy using symmetry                 0.0067
  Calculation for region 1 energy and derivatives (2-b)           7.9666
  Calculation for region 2a energy                               14.7895
  Calculation for region 2b energy                                0.0013
  Calculation and manipulation of Hessian matrix                  0.2484
  Calculation of matrix inversion                                 0.0105
  Symmetry generation of equivalent positions                     0.0026
--------------------------------------------------------------------------------
  Total CPU time                                                 23.3555
--------------------------------------------------------------------------------


  Dump file written as Na3OCl.grs


  Job Finished at 13:14.30  2nd February   2021                               

