********************************************************************************
*                       GENERAL UTILITY LATTICE PROGRAM                        *
*                                 Julian Gale                                  *
*                       Curtin Institute for Computation                       *
*                    School of Molecular and Life Sciences                     *
*                    Curtin University, Western Australia                      *
********************************************************************************
* Version = 5.2.0 * Last modified =  10th September 2020                       *
********************************************************************************
*  optimise     - perform optimisation run                                     *
*  conp         - constant pressure calculation                                *
*  property     - calculate properties for final geometry                      *
*  defect       - perform defect calculation after bulk run                    *
*  compare      - compare initial and final structures                         *
********************************************************************************

  Job Started  at 13:14.06  2nd February   2021                               

  Number of CPUs =     1


  Total number of configurations input =      1

********************************************************************************
*  Input for Configuration =   1                                               *
********************************************************************************

  Formula = ClONa3                                                      

  Number of irreducible atoms/shells =       5


  Total number atoms/shells =       7

  Dimensionality = 3               :  Bulk   


  Symmetry :

  Crystal family                   :  Cubic       
  Crystal class  (Groth - 1921)    :  Cubic Hexakisoctahedral              

  Space group (centrosymmetric)    :  P M 3 M         

  Patterson group                  :  P m -3 m 

  Cartesian lattice vectors (Angstroms) :

        4.504000    0.000000    0.000000
        0.000000    4.504000    0.000000
        0.000000    0.000000    4.504000

  Cell parameters (Angstroms/Degrees):

  a =       4.5040    alpha =  90.0000
  b =       4.5040    beta  =  90.0000
  c =       4.5040    gamma =  90.0000

  Initial cell volume =          91.368216 Angs**3

  Temperature of configuration =   0.00     K 

  Pressure of configuration =         0.000 GPa 

  Fractional coordinates of asymmetric unit :

--------------------------------------------------------------------------------
   No.  Atomic       x           y          z         Charge      Occupancy
        Label      (Frac)      (Frac)     (Frac)        (e)         (Frac)  
--------------------------------------------------------------------------------
      1 Cl    c    0.000000    0.000000    0.000000     1.48500    1.000000    
      2 O     c    0.500000    0.500000    0.500000     0.18300    1.000000    
      3 Na    c    0.500000    0.500000    0.000000     1.00000    1.000000    
      4 Cl    s    0.000000    0.000000    0.000000    -2.48500    1.000000    
      5 O     s    0.500000    0.500000    0.500000    -2.18300    1.000000    
--------------------------------------------------------------------------------


  Constraints : 

--------------------------------------------------------------------------------
  Constraint no.      Unconstrained     Constrained    Coefficient    Offset
                         Variable         Variable
--------------------------------------------------------------------------------
           1              Strain 1        Strain 2       1.00000      0.0000
           2              Strain 1        Strain 3       1.00000      0.0000
--------------------------------------------------------------------------------


********************************************************************************
*  General input information                                                   *
********************************************************************************

  Species output for all configurations : 

--------------------------------------------------------------------------------
  Species    Type    Atomic    Atomic    Charge       Radii (Angs)     Library
                     Number     Mass       (e)     Cova   Ionic  VDW   Symbol
--------------------------------------------------------------------------------
    Na       Core       11      22.99   1.000000   0.970  0.000  2.300          
    O        Core        8      16.00   0.183000   0.730  0.000  1.360          
    O        Shell       8       0.00  -2.183000   0.730  0.000  1.360          
    Cl       Core       17      35.45   1.485000   0.990  0.000  1.650          
    Cl       Shell      17       0.00  -2.485000   0.990  0.000  1.650          
    Mg       Core       12      24.31   0.415000   1.100  0.000  0.000          
    Mg       Shell      12       0.00   1.585000   1.100  0.000  0.000          
    Ca       Core       20      40.08  -1.135000   0.990  0.000  0.000          
    Ca       Shell      20       0.00   3.135000   0.990  0.000  0.000          
    Sr       Core       38      87.62  -1.251000   1.120  0.000  0.000          
    Sr       Shell      38       0.00   3.251000   1.120  0.000  0.000          
    Ba       Core       56     137.33  -7.203000   1.340  0.000  0.000          
    Ba       Shell      56       0.00   9.203000   1.340  0.000  0.000          
--------------------------------------------------------------------------------


  Lattice summation method               =    Ewald          (3-D)
                                         =    Parry          (2-D)
                                         =    Saunders et al (1-D)
  Accuracy factor for lattice sums       =   12.000


  Analytic derivatives to be used

  Time limit = Infinity

  Maximum range for interatomic potentials =    100000.000000 Angstroms

  General interatomic potentials :

--------------------------------------------------------------------------------
Atom  Types   Potential      Parameter       Value         Units   Cutoffs(Ang)
  1     2                                                            Min /  Max 
--------------------------------------------------------------------------------
O    c O    s Spring (c-s)  Spring k 2       593.71600    eV*Ang^-2 0.000  0.800
                            Spring k 4       0.0000000    eV*Ang^-4 
--------------------------------------------------------------------------------
Cl   c Cl   s Spring (c-s)  Spring k 2       29.380000    eV*Ang^-2 0.000  0.800
                            Spring k 4       0.0000000    eV*Ang^-4 
--------------------------------------------------------------------------------
Mg   c Mg   s Spring (c-s)  Spring k 2       361.60000    eV*Ang^-2 0.000  0.800
                            Spring k 4       0.0000000    eV*Ang^-4 
--------------------------------------------------------------------------------
Ca   c Ca   s Spring (c-s)  Spring k 2       110.20000    eV*Ang^-2 0.000  0.800
                            Spring k 4       0.0000000    eV*Ang^-4 
--------------------------------------------------------------------------------
Sr   c Sr   s Spring (c-s)  Spring k 2       71.700000    eV*Ang^-2 0.000  0.800
                            Spring k 4       0.0000000    eV*Ang^-4 
--------------------------------------------------------------------------------
Ba   c Ba   s Spring (c-s)  Spring k 2       495.20000    eV*Ang^-2 0.000  0.800
                            Spring k 4       0.0000000    eV*Ang^-4 
--------------------------------------------------------------------------------
Na   c Na   c Buckingham    Buckingham A     1788.1900    eV        0.000 12.000
                            Buckingham rho  0.15900000    Ang       
                            Buckingham C     0.0000000    eV*Ang^6  
--------------------------------------------------------------------------------
Na   c O    s Buckingham    Buckingham A     588.38000    eV        0.000 12.000
                            Buckingham rho  0.33800000    Ang       
                            Buckingham C     0.0000000    eV*Ang^6  
--------------------------------------------------------------------------------
Na   c Cl   s Buckingham    Buckingham A     1170.4100    eV        0.000 12.000
                            Buckingham rho  0.31500000    Ang       
                            Buckingham C     0.0000000    eV*Ang^6  
--------------------------------------------------------------------------------
O    s O    s Buckingham    Buckingham A     22764.300    eV        0.000 12.000
                            Buckingham rho  0.14900000    Ang       
                            Buckingham C     13.190000    eV*Ang^6  
--------------------------------------------------------------------------------
O    s Cl   s Buckingham    Buckingham A     8286.9100    eV        0.000 12.000
                            Buckingham rho  0.25900000    Ang       
                            Buckingham C     62.200000    eV*Ang^6  
--------------------------------------------------------------------------------
Cl   s Cl   s Buckingham    Buckingham A     1227.2000    eV        0.000 12.000
                            Buckingham rho  0.32100000    Ang       
                            Buckingham C     14.530000    eV*Ang^6  
--------------------------------------------------------------------------------
O    s Mg   s Buckingham    Buckingham A     1428.5000    eV        0.000 12.000
                            Buckingham rho  0.29450000    Ang       
                            Buckingham C     0.0000000    eV*Ang^6  
--------------------------------------------------------------------------------
Mg   s Cl   s Buckingham    Buckingham A     4914.5400    eV        0.000 12.000
                            Buckingham rho  0.25700000    Ang       
                            Buckingham C     0.0000000    eV*Ang^6  
--------------------------------------------------------------------------------
O    s Ca   s Buckingham    Buckingham A     1090.4000    eV        0.000 12.000
                            Buckingham rho  0.34370000    Ang       
                            Buckingham C     0.0000000    eV*Ang^6  
--------------------------------------------------------------------------------
Cl   s Ca   s Buckingham    Buckingham A     2302.0000    eV        0.000 12.000
                            Buckingham rho  0.34020000    Ang       
                            Buckingham C     0.0000000    eV*Ang^6  
--------------------------------------------------------------------------------
O    s Sr   s Buckingham    Buckingham A     959.10000    eV        0.000 12.000
                            Buckingham rho  0.37210000    Ang       
                            Buckingham C     0.0000000    eV*Ang^6  
--------------------------------------------------------------------------------
Cl   s Sr   s Buckingham    Buckingham A     2191.0900    eV        0.000 12.000
                            Buckingham rho  0.34570000    Ang       
                            Buckingham C     0.0000000    eV*Ang^6  
--------------------------------------------------------------------------------
O    s Ba   s Buckingham    Buckingham A     905.70000    eV        0.000 12.000
                            Buckingham rho  0.39760000    Ang       
                            Buckingham C     0.0000000    eV*Ang^6  
--------------------------------------------------------------------------------
Cl   s Ba   s Buckingham    Buckingham A     2704.5500    eV        0.000 12.000
                            Buckingham rho  0.35280000    Ang       
                            Buckingham C     0.0000000    eV*Ang^6  
--------------------------------------------------------------------------------

********************************************************************************
*  Output for configuration   1                                                *
********************************************************************************


  Components of energy : 

--------------------------------------------------------------------------------
  Interatomic potentials     =           4.94315381 eV    
  Monopole - monopole (real) =         -10.03624526 eV    
  Monopole - monopole (recip)=         -29.53581274 eV    
  Monopole - monopole (total)=         -39.57205800 eV    
--------------------------------------------------------------------------------
  Total lattice energy       =         -34.62890419 eV    
--------------------------------------------------------------------------------
  Total lattice energy       =           -3341.1599 kJ/(mole unit cells)
--------------------------------------------------------------------------------


  Number of variables =        1

  Maximum number of calculations  =          1000
  Maximum Hessian update interval =            10
  Maximum step size               =   1.000000000
  Maximum parameter tolerance     =   0.000010000
  Maximum function  tolerance     =   0.000010000
  Maximum gradient  tolerance     =   0.001000000
  Maximum gradient  component     =   0.010000000

  Symmetry constrained optimisation

  Symmetry used for second derivatives

  Cell parameters to be optimised using strains

  Newton-Raphson optimiser to be used

  BFGS hessian update to be used

  Lower half triangular hessian to be used

  Start of bulk optimisation :

  Cycle:      0 Energy:       -34.628904  Gnorm:      4.328237  CPU:    0.005
  ** Hessian calculated **
  Cycle:      1 Energy:       -34.677667  Gnorm:      0.044008  CPU:    0.006
  Cycle:      2 Energy:       -34.677671  Gnorm:      0.003653  CPU:    0.007


  **** Optimisation achieved ****


  Final energy =     -34.67767136 eV
  Final Gnorm  =       0.00000010

  Components of energy : 

--------------------------------------------------------------------------------
  Interatomic potentials     =           5.77546103 eV    
  Monopole - monopole (real) =         -10.25970290 eV    
  Monopole - monopole (recip)=         -30.19342950 eV    
  Monopole - monopole (total)=         -40.45313239 eV    
--------------------------------------------------------------------------------
  Total lattice energy       =         -34.67767136 eV    
--------------------------------------------------------------------------------
  Total lattice energy       =           -3345.8652 kJ/(mole unit cells)
--------------------------------------------------------------------------------

  Final asymmetric unit coordinates :

--------------------------------------------------------------------------------
   No.  Atomic        x           y           z         Radius
        Label       (Frac)      (Frac)      (Frac)       (Angs) 
--------------------------------------------------------------------------------
     1  Cl    c     0.000000    0.000000    0.000000    0.000000
     2  O     c     0.500000    0.500000    0.500000    0.000000
     3  Na    c     0.500000    0.500000    0.000000    0.000000
     4  Cl    s     0.000000    0.000000    0.000000    0.000000
     5  O     s     0.500000    0.500000    0.500000    0.000000
--------------------------------------------------------------------------------

  Final Cartesian lattice vectors (Angstroms) :

        4.405902    0.000000    0.000000
        0.000000    4.405902    0.000000
        0.000000    0.000000    4.405902


  Final cell parameters and derivatives :

--------------------------------------------------------------------------------
       a            4.405902 Angstrom     dE/de1(xx)     0.000000 eV/strain
       b            4.405902 Angstrom     dE/de2(yy)     0.000000 eV/strain
       c            4.405902 Angstrom     dE/de3(zz)     0.000000 eV/strain
       alpha       90.000000 Degrees      dE/de4(yz)     0.000000 eV/strain
       beta        90.000000 Degrees      dE/de5(xz)     0.000000 eV/strain
       gamma       90.000000 Degrees      dE/de6(xy)     0.000000 eV/strain
--------------------------------------------------------------------------------

  Primitive cell volume =            85.527266 Angs**3

  Density of cell =      2.338030 g/cm**3

  Non-primitive cell volume =            85.527266 Angs**3


  Final internal derivatives :

--------------------------------------------------------------------------------
   No.  Atomic          a             b             c           Radius
        Label          (eV)          (eV)          (eV)        (eV/Angs)
--------------------------------------------------------------------------------
      1 Cl    c       0.000000      0.000000      0.000000      0.000000
      2 O     c       0.000000      0.000000      0.000000      0.000000
      3 Na    c       0.000000      0.000000      0.000000      0.000000
      4 Cl    s       0.000000      0.000000      0.000000      0.000000
      5 O     s       0.000000      0.000000      0.000000      0.000000
--------------------------------------------------------------------------------
  Maximum abs         0.000000      0.000000      0.000000      0.000000
--------------------------------------------------------------------------------

  Comparison of initial and final structures : 

--------------------------------------------------------------------------------
  Parameter   Initial value   Final value   Difference    Units      Percent
--------------------------------------------------------------------------------
    Volume        91.368216     85.527266    -5.840950    Angs**3     -6.39
    a              4.504000      4.405902    -0.098098    Angstroms   -2.18
    b              4.504000      4.405902    -0.098098    Angstroms   -2.18
    c              4.504000      4.405902    -0.098098    Angstroms   -2.18
    alpha         90.000000     90.000000     0.000000    Degrees      0.00
    beta          90.000000     90.000000     0.000000    Degrees      0.00
    gamma         90.000000     90.000000     0.000000    Degrees      0.00
      1 x          0.000000      0.000000     0.000000    Fractional   0.00
      1 y          0.000000      0.000000     0.000000    Fractional   0.00
      1 z          0.000000      0.000000     0.000000    Fractional   0.00
      2 x          0.500000      0.500000     0.000000    Fractional   0.00
      2 y          0.500000      0.500000     0.000000    Fractional   0.00
      2 z          0.500000      0.500000     0.000000    Fractional   0.00
      3 x          0.500000      0.500000     0.000000    Fractional   0.00
      3 y          0.500000      0.500000     0.000000    Fractional   0.00
      3 z          0.000000      0.000000     0.000000    Fractional   0.00
      4 x          0.000000      0.000000     0.000000    Fractional   0.00
      4 y          0.000000      0.000000     0.000000    Fractional   0.00
      4 z          0.000000      0.000000     0.000000    Fractional   0.00
      5 x          0.500000      0.500000     0.000000    Fractional   0.00
      5 y          0.500000      0.500000     0.000000    Fractional   0.00
      5 z          0.500000      0.500000     0.000000    Fractional   0.00
--------------------------------------------------------------------------------


  Born effective charge tensors : 

-------------------------------------------------------------------------------
  Atom             x           y             z
-------------------------------------------------------------------------------
    1 Cl    x      -0.9918     -0.0000     -0.0000
            y      -0.0000     -0.9918     -0.0000
            z      -0.0000     -0.0000     -0.9918
-------------------------------------------------------------------------------
    2 O     x      -2.2939      0.0000      0.0000
            y       0.0000     -2.2939      0.0000
            z       0.0000      0.0000     -2.2939
-------------------------------------------------------------------------------
    3 Na    x       1.2243      0.0000      0.0000
            y       0.0000      1.2243     -0.0000
            z       0.0000      0.0000      0.8372
-------------------------------------------------------------------------------




  Elastic Constant Matrix: (Units=GPa)

-------------------------------------------------------------------------------
  Indices      1         2         3         4         5         6    
-------------------------------------------------------------------------------
       1     82.7680   24.3534   24.3534   -0.0000    0.0000   -0.0000
       2     24.3534   82.7680   24.3534    0.0000   -0.0000   -0.0000
       3     24.3534   24.3534   82.7680    0.0000   -0.0000    0.0000
       4     -0.0000    0.0000    0.0000   24.3534   -0.0000    0.0000
       5      0.0000   -0.0000   -0.0000   -0.0000   24.3534    0.0000
       6     -0.0000   -0.0000    0.0000    0.0000    0.0000   24.3534
-------------------------------------------------------------------------------


  Elastic Compliance Matrix: (Units=1/GPa)

-------------------------------------------------------------------------------
  Indices      1         2         3         4         5         6    
-------------------------------------------------------------------------------
       1    0.013948 -0.003171 -0.003171  0.000000 -0.000000  0.000000
       2   -0.003171  0.013948 -0.003171 -0.000000  0.000000 -0.000000
       3   -0.003171 -0.003171  0.013948 -0.000000  0.000000 -0.000000
       4    0.000000 -0.000000 -0.000000  0.041062  0.000000 -0.000000
       5   -0.000000  0.000000  0.000000  0.000000  0.041062 -0.000000
       6    0.000000 -0.000000 -0.000000 -0.000000 -0.000000  0.041062
-------------------------------------------------------------------------------

  Mechanical properties :

-------------------------------------------------------------------------------
  Convention :                    Reuss         Voigt         Hill
-------------------------------------------------------------------------------
  Bulk  Modulus (GPa)     =      43.82493      43.82493      43.82493
  Shear Modulus (GPa)     =      26.08758      26.29496      26.19127
-------------------------------------------------------------------------------
  Velocity S-wave (km/s)  =       3.34035       3.35360       3.34698
  Velocity P-wave (km/s)  =       5.79842       5.80861       5.80351
-------------------------------------------------------------------------------
  Compressibility (1/GPa) =    0.02281806
-------------------------------------------------------------------------------
  Stress axis :                     x             y             z
-------------------------------------------------------------------------------
  Youngs Moduli (GPa)     =      71.69479      71.69479      71.69479
-------------------------------------------------------------------------------
  Poissons Ratio (x)      =                     0.22734       0.22734
  Poissons Ratio (y)      =       0.22734                     0.22734
  Poissons Ratio (z)      =       0.22734       0.22734
-------------------------------------------------------------------------------


  Piezoelectric Strain Matrix: (Units=C/m**2)

-------------------------------------------------------------------------------
  Indices      1         2         3         4         5         6    
-------------------------------------------------------------------------------
       x    -0.00000  -0.00000  -0.00000  -0.00000   0.00000  -0.00000
       y     0.00000  -0.00000   0.00000   0.00000  -0.00000   0.00000
       z    -0.00000  -0.00000   0.00000  -0.00000   0.00000  -0.00000
-------------------------------------------------------------------------------


  Piezoelectric Stress Matrix: (Units=10**-11 C/N)

-------------------------------------------------------------------------------
  Indices      1         2         3         4         5         6    
-------------------------------------------------------------------------------
       x     0.00000  -0.00000  -0.00000  -0.00000   0.00000  -0.00000
       y     0.00000  -0.00000   0.00000   0.00000  -0.00000   0.00000
       z    -0.00000  -0.00000   0.00000  -0.00000   0.00000  -0.00000
-------------------------------------------------------------------------------


  Static dielectric constant tensor : 

-------------------------------------------------------------------------------
              x         y         z
-------------------------------------------------------------------------------
       x    11.08357   0.00000   0.00000
       y     0.00000  11.08357   0.00000
       z     0.00000   0.00000  11.08357
--------------------------------------------------------------------------------

  High frequency dielectric constant tensor : 

-------------------------------------------------------------------------------
              x         y         z
-------------------------------------------------------------------------------
       x     1.50771   0.00000   0.00000
       y     0.00000   1.50771   0.00000
       z     0.00000   0.00000   1.50771
-------------------------------------------------------------------------------

  Static refractive indices : 

-------------------------------------------------------------------------------
    1 =    3.32920      2 =    3.32920      3 =    3.32920
-------------------------------------------------------------------------------

  High frequency refractive indices : 

-------------------------------------------------------------------------------
    1 =    1.22789      2 =    1.22789      3 =    1.22789
-------------------------------------------------------------------------------


  Time to end of optimisation =       0.0104 seconds

********************************************************************************
*  Defect calculation for configuration   1 :                                  *
********************************************************************************

  Total number of defects =      1

  Total charge on defect  =   1.00

  Defect centre is at   0.5000   0.5000   0.0000  Frac

  Region 1 radius =  15.0000      Number of ions =   1192

  Number of symmetry inequivalent region 1 ions  =    122

  Region 2 radius =  24.0000      Number of ions =   3584

  Number of symmetry inequivalent region 2a ions =    293

  Region 2a mode = 4 : screened electrostatics due to region 1 
                       neglect correction to region 1 forces from 2a
                       region 2a displacements based on defects only

  Region 2a ions will only interact with defects in region 1

  Impurities:

--------------------------------------------------------------------------------
    Specification type     Symbol/Number         x          y          z
--------------------------------------------------------------------------------
    Frac/Symbol             Mg               0.500000   0.500000   0.000000
--------------------------------------------------------------------------------


  Symmetry reduced region 1 (Relative to defect centre) :

--------------------------------------------------------------------------------
   No.   Atomic       x            y             z       Radius  Multiplicity   
         Label      (Angs)       (Angs)        (Angs)    (Angs)     
--------------------------------------------------------------------------------
     1  Mg    c      0.0000       0.0000       0.0000    0.0000     1    Defect
     2  O     c      0.0000       0.0000      -2.2030 *  0.0000     2          
     3  Cl    c      2.2030 *     2.2030       0.0000    0.0000     4          
     4  Na    c      2.2030 *     0.0000      -2.2030 *  0.0000     8          
     5  Na    c      0.0000       0.0000       4.4059 *  0.0000     2          
     6  Na    c      0.0000       4.4059 *     0.0000    0.0000     4          
     7  O     c      0.0000       4.4059 *    -2.2030 *  0.0000     8          
     8  Na    c      2.2030 *     4.4059 *    -2.2030 *  0.0000    16          
     9  Cl    c      2.2030 *     2.2030       4.4059 *  0.0000     8          
    10  Na    c      0.0000       4.4059 *     4.4059 *  0.0000     8          
    11  Na    c      4.4059 *     4.4059       0.0000    0.0000     4          
    12  O     c      0.0000       0.0000       6.6089 *  0.0000     2          
    13  O     c      4.4059 *     4.4059      -2.2030 *  0.0000     8          
    14  Cl    c      2.2030 *     6.6089 *     0.0000    0.0000     8          
    15  Na    c      2.2030 *     0.0000       6.6089 *  0.0000     8          
    16  Na    c      6.6089 *     0.0000      -2.2030 *  0.0000     8          
    17  Na    c      4.4059 *     4.4059       4.4059 *  0.0000     8          
    18  O     c      0.0000       4.4059 *     6.6089 *  0.0000     8          
    19  Cl    c      2.2030 *     6.6089 *     4.4059 *  0.0000    16          
    20  Na    c      2.2030 *     4.4059 *     6.6089 *  0.0000    16          
    21  Na    c      6.6089 *     4.4059 *    -2.2030 *  0.0000    16          
    22  Na    c      0.0000       0.0000       8.8118 *  0.0000     2          
    23  Na    c      0.0000       8.8118 *     0.0000    0.0000     4          
    24  O     c      4.4059 *     4.4059       6.6089 *  0.0000     8          
    25  O     c      0.0000       8.8118 *    -2.2030 *  0.0000     8          
    26  Cl    c      2.2030 *     2.2030       8.8118 *  0.0000     8          
    27  Cl    c      6.6089 *     6.6089       0.0000    0.0000     4          
    28  Na    c      6.6089 *     0.0000       6.6089 *  0.0000     8          
    29  Na    c      2.2030 *     8.8118 *    -2.2030 *  0.0000    16          
    30  Na    c      0.0000       4.4059 *     8.8118 *  0.0000     8          
    31  Na    c      0.0000       8.8118 *     4.4059 *  0.0000     8          
    32  Na    c      4.4059 *     8.8118 *     0.0000    0.0000     8          
    33  O     c      4.4059 *     8.8118 *    -2.2030 *  0.0000    16          
    34  Cl    c      6.6089 *     6.6089       4.4059 *  0.0000     8          
    35  Na    c      6.6089 *     4.4059 *     6.6089 *  0.0000    16          
    36  Na    c      4.4059 *     8.8118 *     4.4059 *  0.0000    16          
    37  Na    c      4.4059 *     4.4059       8.8118 *  0.0000     8          
    38  O     c      0.0000       0.0000      11.0148 *  0.0000     2          
    39  O     c      0.0000       8.8118 *     6.6089 *  0.0000     8          
    40  Cl    c      2.2030 *     6.6089 *     8.8118 *  0.0000    16          
    41  Cl    c      2.2030 *    11.0148 *     0.0000    0.0000     8          
    42  Na    c      2.2030 *     0.0000      11.0148 *  0.0000     8          
    43  Na    c      2.2030 *     8.8118 *     6.6089 *  0.0000    16          
    44  Na    c     11.0148 *     0.0000      -2.2030 *  0.0000     8          
    45  Na    c      6.6089 *     8.8118 *    -2.2030 *  0.0000    16          
    46  O     c      0.0000       4.4059 *    11.0148 *  0.0000     8          
    47  O     c      4.4059 *     8.8118 *     6.6089 *  0.0000    16          
    48  Cl    c      2.2030 *    11.0148 *     4.4059 *  0.0000    16          
    49  Na    c      2.2030 *     4.4059 *    11.0148 *  0.0000    16          
    50  Na    c     11.0148 *     4.4059 *    -2.2030 *  0.0000    16          
    51  Na    c      0.0000       8.8118 *     8.8118 *  0.0000     8          
    52  Na    c      8.8118 *     8.8118       0.0000    0.0000     4          
    53  O     c      4.4059 *     4.4059      11.0148 *  0.0000     8          
    54  O     c      8.8118 *     8.8118      -2.2030 *  0.0000     8          
    55  Cl    c      6.6089 *     6.6089       8.8118 *  0.0000     8          
    56  Cl    c      6.6089 *    11.0148 *     0.0000    0.0000     8          
    57  Na    c      6.6089 *     0.0000      11.0148 *  0.0000     8          
    58  Na    c     11.0148 *     0.0000       6.6089 *  0.0000     8          
    59  Na    c      6.6089 *     8.8118 *     6.6089 *  0.0000    16          
    60  Na    c      0.0000       0.0000      13.2177 *  0.0000     2          
    61  Na    c      0.0000      13.2177 *     0.0000    0.0000     4          
    62  Na    c      4.4059 *     8.8118 *     8.8118 *  0.0000    16          
    63  Na    c      8.8118 *     8.8118       4.4059 *  0.0000     8          
    64  O     c      0.0000      13.2177 *    -2.2030 *  0.0000     8          
    65  Cl    c      6.6089 *    11.0148 *     4.4059 *  0.0000    16          
    66  Na    c      2.2030 *    13.2177 *    -2.2030 *  0.0000    16          
    67  Cl    c      2.2030 *     2.2030      13.2177 *  0.0000     8          
    68  Na    c      6.6089 *     4.4059 *    11.0148 *  0.0000    16          
    69  Na    c     11.0148 *     4.4059 *     6.6089 *  0.0000    16          
    70  Na    c      0.0000       4.4059 *    13.2177 *  0.0000     8          
    71  Na    c      0.0000      13.2177 *     4.4059 *  0.0000     8          
    72  Na    c      4.4059 *    13.2177 *     0.0000    0.0000     8          
    73  O     c      4.4059 *    13.2177 *    -2.2030 *  0.0000    16          
    74  O     c      0.0000       8.8118 *    11.0148 *  0.0000     8          
    75  O     c      8.8118 *     8.8118       6.6089 *  0.0000     8          
    76  Cl    c      2.2030 *    11.0148 *     8.8118 *  0.0000    16          
    77  Na    c      2.2030 *     8.8118 *    11.0148 *  0.0000    16          
    78  Na    c     11.0148 *     8.8118 *    -2.2030 *  0.0000    16          
    79  Na    c      4.4059 *    13.2177 *     4.4059 *  0.0000    16          
    80  Na    c      4.4059 *     4.4059      13.2177 *  0.0000     8          
    81  O     c      4.4059 *     8.8118 *    11.0148 *  0.0000    16          
    82  O     c      0.0000      13.2177 *     6.6089 *  0.0000     8          
    83  Cl    c      2.2030 *     6.6089 *    13.2177 *  0.0000    16          
    84  Na    c      2.2030 *    13.2177 *     6.6089 *  0.0000    16          
    85  Na    c      6.6089 *    13.2177 *    -2.2030 *  0.0000    16          
    86  Mg    s      0.0000       0.0000       0.0000    0.0000     1    Defect
    87  O     s      0.0000       0.0000      -2.2030 *  0.0000     2          
    88  Cl    s      2.2030 *     2.2030       0.0000    0.0000     4          
    89  O     s      0.0000       4.4059 *    -2.2030 *  0.0000     8          
    90  Cl    s      2.2030 *     2.2030       4.4059 *  0.0000     8          
    91  O     s      0.0000       0.0000       6.6089 *  0.0000     2          
    92  O     s      4.4059 *     4.4059      -2.2030 *  0.0000     8          
    93  Cl    s      2.2030 *     6.6089 *     0.0000    0.0000     8          
    94  O     s      0.0000       4.4059 *     6.6089 *  0.0000     8          
    95  Cl    s      2.2030 *     6.6089 *     4.4059 *  0.0000    16          
    96  O     s      4.4059 *     4.4059       6.6089 *  0.0000     8          
    97  O     s      0.0000       8.8118 *    -2.2030 *  0.0000     8          
    98  Cl    s      2.2030 *     2.2030       8.8118 *  0.0000     8          
    99  Cl    s      6.6089 *     6.6089       0.0000    0.0000     4          
   100  O     s      4.4059 *     8.8118 *    -2.2030 *  0.0000    16          
   101  Cl    s      6.6089 *     6.6089       4.4059 *  0.0000     8          
   102  O     s      0.0000       0.0000      11.0148 *  0.0000     2          
   103  O     s      0.0000       8.8118 *     6.6089 *  0.0000     8          
   104  Cl    s      2.2030 *     6.6089 *     8.8118 *  0.0000    16          
   105  Cl    s      2.2030 *    11.0148 *     0.0000    0.0000     8          
   106  O     s      0.0000       4.4059 *    11.0148 *  0.0000     8          
   107  O     s      4.4059 *     8.8118 *     6.6089 *  0.0000    16          
   108  Cl    s      2.2030 *    11.0148 *     4.4059 *  0.0000    16          
   109  O     s      4.4059 *     4.4059      11.0148 *  0.0000     8          
   110  O     s      8.8118 *     8.8118      -2.2030 *  0.0000     8          
   111  Cl    s      6.6089 *     6.6089       8.8118 *  0.0000     8          
   112  Cl    s      6.6089 *    11.0148 *     0.0000    0.0000     8          
   113  O     s      0.0000      13.2177 *    -2.2030 *  0.0000     8          
   114  Cl    s      6.6089 *    11.0148 *     4.4059 *  0.0000    16          
   115  Cl    s      2.2030 *     2.2030      13.2177 *  0.0000     8          
   116  O     s      4.4059 *    13.2177 *    -2.2030 *  0.0000    16          
   117  O     s      0.0000       8.8118 *    11.0148 *  0.0000     8          
   118  O     s      8.8118 *     8.8118       6.6089 *  0.0000     8          
   119  Cl    s      2.2030 *    11.0148 *     8.8118 *  0.0000    16          
   120  O     s      4.4059 *     8.8118 *    11.0148 *  0.0000    16          
   121  O     s      0.0000      13.2177 *     6.6089 *  0.0000     8          
   122  Cl    s      2.2030 *     6.6089 *    13.2177 *  0.0000    16          
--------------------------------------------------------------------------------


  Constraints on symmetry reduced coordinates :

--------------------------------------------------------------------------------
  Constraint no.      Unconstrained     Constrained    Coefficient    
                         Variable         Variable
--------------------------------------------------------------------------------
           1                 3 x             3 y         1.00000
           2                 9 x             9 y         1.00000
           3                11 x            11 y         1.00000
           4                13 x            13 y         1.00000
           5                17 x            17 y         1.00000
           6                24 x            24 y         1.00000
           7                26 x            26 y         1.00000
           8                27 x            27 y         1.00000
           9                34 x            34 y         1.00000
          10                37 x            37 y         1.00000
          11                52 x            52 y         1.00000
          12                53 x            53 y         1.00000
          13                54 x            54 y         1.00000
          14                55 x            55 y         1.00000
          15                63 x            63 y         1.00000
          16                67 x            67 y         1.00000
          17                75 x            75 y         1.00000
          18                80 x            80 y         1.00000
          19                88 x            88 y         1.00000
          20                90 x            90 y         1.00000
          21                92 x            92 y         1.00000
          22                96 x            96 y         1.00000
          23                98 x            98 y         1.00000
          24                99 x            99 y         1.00000
          25               101 x           101 y         1.00000
          26               109 x           109 y         1.00000
          27               110 x           110 y         1.00000
          28               111 x           111 y         1.00000
          29               115 x           115 y         1.00000
          30               118 x           118 y         1.00000
--------------------------------------------------------------------------------


  Components of defect energy : 

--------------------------------------------------------------------------------
  Region 1 - region 1                   =    -19.14426879 eV
  Region 1 - region 2a (unrelaxed)      =      8.33538599 eV
  Region 1 - 2a (relaxed - correction)  =     -0.32053013 eV
  Region 1 (Total)                      =    -11.12941293 eV
  Region 2a                             =      0.16028992 eV
  Region 2b                             =     -0.27216525 eV
--------------------------------------------------------------------------------
  Total defect energy                   =    -11.24128826 eV
--------------------------------------------------------------------------------

  Largest displacement in region 2 =   0.0097 Angstroms


  Number of variables =      262

  Maximum number of calculations  =        1000
  Maximum Hessian update interval =          10
  Maximum step size               =   1.0000000
  Maximum parameter tolerance     =   0.0000100
  Maximum function  tolerance     =   0.0000100
  Maximum gradient  tolerance     =   0.0010000

  Symmetry adapted optimisation

  Symmetry to be used for second derivatives

  Newton-Raphson optimiser to be used

  BFGS hessian update to be used

  Lower half triangular hessian to be used

  Start of defect optimisation :

  Cycle:      0 Defect Energy: -11.241288  Gnorm:     0.163812  CPU:    8.642
  ** Hessian calculated **
  Cycle:      1 Defect Energy: -14.878161  Gnorm:     0.100414  CPU:   16.238
  ** Hessian calculated **
  Cycle:      2 Defect Energy: -16.259519  Gnorm:     0.006316  CPU:   22.301
  Cycle:      3 Defect Energy: -16.281522  Gnorm:     0.003283  CPU:   23.259
  Cycle:      4 Defect Energy: -16.285692  Gnorm:     0.002217  CPU:   23.809
  Cycle:      5 Defect Energy: -16.287927  Gnorm:     0.001533  CPU:   24.345
  Cycle:      6 Defect Energy: -16.289023  Gnorm:     0.001062  CPU:   24.886
  Cycle:      7 Defect Energy: -16.289560  Gnorm:     0.000749  CPU:   25.492
  Cycle:      8 Defect Energy: -16.289822  Gnorm:     0.000521  CPU:   26.022
  Cycle:      9 Defect Energy: -16.289949  Gnorm:     0.000372  CPU:   26.712
  Cycle:     10 Defect Energy: -16.290010  Gnorm:     0.000259  CPU:   27.305
  Cycle:     11 Defect Energy: -16.290039  Gnorm:     0.000191  CPU:   27.955
  ** Hessian calculated **
  Cycle:     12 Defect Energy: -16.290052  Gnorm:     0.000134  CPU:   29.447


  **** Optimisation achieved ****


  Final defect energy  =      -16.29005816
  Final defect Gnorm   =        0.00009350

  Components of defect energy : 

--------------------------------------------------------------------------------
  Region 1 - region 1                   =    -24.90800674 eV
  Region 1 - region 2a (unrelaxed)      =      9.03250441 eV
  Region 1 - 2a (relaxed - correction)  =     -0.28476560 eV
  Region 1 (Total)                      =    -16.16026792 eV
  Region 2a                             =      0.14237501 eV
  Region 2b                             =     -0.27216525 eV
--------------------------------------------------------------------------------
  Total defect energy                   =    -16.29005816 eV
--------------------------------------------------------------------------------

  Largest displacement in region 2 =   0.0097 Angstroms

  Final coordinates of region 1 :

--------------------------------------------------------------------------------
   No.  Atomic        x           y           z          Radius      Charge
        Label       (Angs)      (Angs)      (Angs)       (Angs)       (e) 
--------------------------------------------------------------------------------
     1  Mg    c     2.202951    2.202951    0.000000    0.000000    0.415000
     2  O     c     2.202951    2.202951   -1.869663    0.000000    0.183000
     3  O     c     2.202951    2.202951    1.869663    0.000000    0.183000
     4  Cl    c     4.145232    4.145232    0.000000    0.000000    1.485000
     5  Cl    c     4.145232    0.260670    0.000000    0.000000    1.485000
     6  Cl    c     0.260670    4.145232    0.000000    0.000000    1.485000
     7  Cl    c     0.260670    0.260670    0.000000    0.000000    1.485000
     8  Na    c     4.457066    2.202951   -2.200801    0.000000    1.000000
     9  Na    c     4.457066    2.202951    2.200801    0.000000    1.000000
    10  Na    c    -0.051164    2.202951   -2.200801    0.000000    1.000000
    11  Na    c    -0.051164    2.202951    2.200801    0.000000    1.000000
    12  Na    c     2.202951    4.457066   -2.200801    0.000000    1.000000
    13  Na    c     2.202951    4.457066    2.200801    0.000000    1.000000
    14  Na    c     2.202951   -0.051164   -2.200801    0.000000    1.000000
    15  Na    c     2.202951   -0.051164    2.200801    0.000000    1.000000
    16  Na    c     2.202951    2.202951    4.332261    0.000000    1.000000
    17  Na    c     2.202951    2.202951   -4.332261    0.000000    1.000000
    18  Na    c     2.202951    6.626475    0.000000    0.000000    1.000000
    19  Na    c     2.202951   -2.220573    0.000000    0.000000    1.000000
    20  Na    c     6.626475    2.202951    0.000000    0.000000    1.000000
    21  Na    c    -2.220573    2.202951    0.000000    0.000000    1.000000
    22  O     c     2.202951    6.640927   -2.197221    0.000000    0.183000
    23  O     c     2.202951    6.640927    2.197221    0.000000    0.183000
    24  O     c     2.202951   -2.235024   -2.197221    0.000000    0.183000
    25  O     c     2.202951   -2.235024    2.197221    0.000000    0.183000
    26  O     c     6.640927    2.202951   -2.197221    0.000000    0.183000
    27  O     c     6.640927    2.202951    2.197221    0.000000    0.183000
    28  O     c    -2.235024    2.202951   -2.197221    0.000000    0.183000
    29  O     c    -2.235024    2.202951    2.197221    0.000000    0.183000
    30  Na    c     4.404496    6.651837   -2.231500    0.000000    1.000000
    31  Na    c     4.404496    6.651837    2.231500    0.000000    1.000000
    32  Na    c     4.404496   -2.245934   -2.231500    0.000000    1.000000
    33  Na    c     4.404496   -2.245934    2.231500    0.000000    1.000000
    34  Na    c     0.001407    6.651837   -2.231500    0.000000    1.000000
    35  Na    c     0.001407    6.651837    2.231500    0.000000    1.000000
    36  Na    c     0.001407   -2.245934   -2.231500    0.000000    1.000000
    37  Na    c     0.001407   -2.245934    2.231500    0.000000    1.000000
    38  Na    c     6.651837    4.404496   -2.231500    0.000000    1.000000
    39  Na    c     6.651837    4.404496    2.231500    0.000000    1.000000
    40  Na    c     6.651837    0.001407   -2.231500    0.000000    1.000000
    41  Na    c     6.651837    0.001407    2.231500    0.000000    1.000000
    42  Na    c    -2.245934    4.404496   -2.231500    0.000000    1.000000
    43  Na    c    -2.245934    4.404496    2.231500    0.000000    1.000000
    44  Na    c    -2.245934    0.001407   -2.231500    0.000000    1.000000
    45  Na    c    -2.245934    0.001407    2.231500    0.000000    1.000000
    46  Cl    c     4.340260    4.340260    4.313256    0.000000    1.485000
    47  Cl    c     4.340260    4.340260   -4.313256    0.000000    1.485000
    48  Cl    c     4.340260    0.065642    4.313256    0.000000    1.485000
    49  Cl    c     4.340260    0.065642   -4.313256    0.000000    1.485000
    50  Cl    c     0.065642    4.340260    4.313256    0.000000    1.485000
    51  Cl    c     0.065642    4.340260   -4.313256    0.000000    1.485000
    52  Cl    c     0.065642    0.065642    4.313256    0.000000    1.485000
    53  Cl    c     0.065642    0.065642   -4.313256    0.000000    1.485000
    54  Na    c     2.202951    6.655995    4.403748    0.000000    1.000000
    55  Na    c     2.202951    6.655995   -4.403748    0.000000    1.000000
    56  Na    c     2.202951   -2.250093    4.403748    0.000000    1.000000
    57  Na    c     2.202951   -2.250093   -4.403748    0.000000    1.000000
    58  Na    c     6.655995    2.202951    4.403748    0.000000    1.000000
    59  Na    c     6.655995    2.202951   -4.403748    0.000000    1.000000
    60  Na    c    -2.250093    2.202951    4.403748    0.000000    1.000000
    61  Na    c    -2.250093    2.202951   -4.403748    0.000000    1.000000
    62  Na    c     6.665959    6.665959    0.000000    0.000000    1.000000
    63  Na    c     6.665959   -2.260056    0.000000    0.000000    1.000000
    64  Na    c    -2.260056    6.665959    0.000000    0.000000    1.000000
    65  Na    c    -2.260056   -2.260056    0.000000    0.000000    1.000000
    66  O     c     2.202951    2.202951    6.552264    0.000000    0.183000
    67  O     c     2.202951    2.202951   -6.552264    0.000000    0.183000
    68  O     c     6.598448    6.598448   -2.193180    0.000000    0.183000
    69  O     c     6.598448    6.598448    2.193180    0.000000    0.183000
    70  O     c     6.598448   -2.192545   -2.193180    0.000000    0.183000
    71  O     c     6.598448   -2.192545    2.193180    0.000000    0.183000
    72  O     c    -2.192545    6.598448   -2.193180    0.000000    0.183000
    73  O     c    -2.192545    6.598448    2.193180    0.000000    0.183000
    74  O     c    -2.192545   -2.192545   -2.193180    0.000000    0.183000
    75  O     c    -2.192545   -2.192545    2.193180    0.000000    0.183000
    76  Cl    c     4.414442    8.787750    0.000000    0.000000    1.485000
    77  Cl    c     4.414442   -4.381848    0.000000    0.000000    1.485000
    78  Cl    c     8.787750    4.414442    0.000000    0.000000    1.485000
    79  Cl    c     8.787750   -0.008540    0.000000    0.000000    1.485000
    80  Cl    c    -0.008540    8.787750    0.000000    0.000000    1.485000
    81  Cl    c    -0.008540   -4.381848    0.000000    0.000000    1.485000
    82  Cl    c    -4.381848    4.414442    0.000000    0.000000    1.485000
    83  Cl    c    -4.381848   -0.008540    0.000000    0.000000    1.485000
    84  Na    c     4.403292    2.202951    6.570750    0.000000    1.000000
    85  Na    c     4.403292    2.202951   -6.570750    0.000000    1.000000
    86  Na    c     0.002611    2.202951    6.570750    0.000000    1.000000
    87  Na    c     0.002611    2.202951   -6.570750    0.000000    1.000000
    88  Na    c     2.202951    4.403292    6.570750    0.000000    1.000000
    89  Na    c     2.202951    4.403292   -6.570750    0.000000    1.000000
    90  Na    c     2.202951    0.002611    6.570750    0.000000    1.000000
    91  Na    c     2.202951    0.002611   -6.570750    0.000000    1.000000
    92  Na    c     8.836520    2.202951   -2.176463    0.000000    1.000000
    93  Na    c     8.836520    2.202951    2.176463    0.000000    1.000000
    94  Na    c    -4.430618    2.202951   -2.176463    0.000000    1.000000
    95  Na    c    -4.430618    2.202951    2.176463    0.000000    1.000000
    96  Na    c     2.202951    8.836520   -2.176463    0.000000    1.000000
    97  Na    c     2.202951    8.836520    2.176463    0.000000    1.000000
    98  Na    c     2.202951   -4.430618   -2.176463    0.000000    1.000000
    99  Na    c     2.202951   -4.430618    2.176463    0.000000    1.000000
   100  Na    c     6.627290    6.627290    4.404841    0.000000    1.000000
   101  Na    c     6.627290    6.627290   -4.404841    0.000000    1.000000
   102  Na    c     6.627290   -2.221388    4.404841    0.000000    1.000000
   103  Na    c     6.627290   -2.221388   -4.404841    0.000000    1.000000
   104  Na    c    -2.221388    6.627290    4.404841    0.000000    1.000000
   105  Na    c    -2.221388    6.627290   -4.404841    0.000000    1.000000
   106  Na    c    -2.221388   -2.221388    4.404841    0.000000    1.000000
   107  Na    c    -2.221388   -2.221388   -4.404841    0.000000    1.000000
   108  O     c     2.202951    6.606941    6.597706    0.000000    0.183000
   109  O     c     2.202951    6.606941   -6.597706    0.000000    0.183000
   110  O     c     2.202951   -2.201038    6.597706    0.000000    0.183000
   111  O     c     2.202951   -2.201038   -6.597706    0.000000    0.183000
   112  O     c     6.606941    2.202951    6.597706    0.000000    0.183000
   113  O     c     6.606941    2.202951   -6.597706    0.000000    0.183000
   114  O     c    -2.201038    2.202951    6.597706    0.000000    0.183000
   115  O     c    -2.201038    2.202951   -6.597706    0.000000    0.183000
   116  Cl    c     4.410966    8.794905    4.394894    0.000000    1.485000
   117  Cl    c     4.410966    8.794905   -4.394894    0.000000    1.485000
   118  Cl    c     4.410966   -4.389003    4.394894    0.000000    1.485000
   119  Cl    c     4.410966   -4.389003   -4.394894    0.000000    1.485000
   120  Cl    c     8.794905    4.410966    4.394894    0.000000    1.485000
   121  Cl    c     8.794905    4.410966   -4.394894    0.000000    1.485000
   122  Cl    c     8.794905   -0.005063    4.394894    0.000000    1.485000
   123  Cl    c     8.794905   -0.005063   -4.394894    0.000000    1.485000
   124  Cl    c    -0.005063    8.794905    4.394894    0.000000    1.485000
   125  Cl    c    -0.005063    8.794905   -4.394894    0.000000    1.485000
   126  Cl    c    -0.005063   -4.389003    4.394894    0.000000    1.485000
   127  Cl    c    -0.005063   -4.389003   -4.394894    0.000000    1.485000
   128  Cl    c    -4.389003    4.410966    4.394894    0.000000    1.485000
   129  Cl    c    -4.389003    4.410966   -4.394894    0.000000    1.485000
   130  Cl    c    -4.389003   -0.005063    4.394894    0.000000    1.485000
   131  Cl    c    -4.389003   -0.005063   -4.394894    0.000000    1.485000
   132  Na    c     4.404039    6.622457    6.628914    0.000000    1.000000
   133  Na    c     4.404039    6.622457   -6.628914    0.000000    1.000000
   134  Na    c     4.404039   -2.216554    6.628914    0.000000    1.000000
   135  Na    c     4.404039   -2.216554   -6.628914    0.000000    1.000000
   136  Na    c     0.001863    6.622457    6.628914    0.000000    1.000000
   137  Na    c     0.001863    6.622457   -6.628914    0.000000    1.000000
   138  Na    c     0.001863   -2.216554    6.628914    0.000000    1.000000
   139  Na    c     0.001863   -2.216554   -6.628914    0.000000    1.000000
   140  Na    c     6.622457    4.404039    6.628914    0.000000    1.000000
   141  Na    c     6.622457    4.404039   -6.628914    0.000000    1.000000
   142  Na    c     6.622457    0.001863    6.628914    0.000000    1.000000
   143  Na    c     6.622457    0.001863   -6.628914    0.000000    1.000000
   144  Na    c    -2.216554    4.404039    6.628914    0.000000    1.000000
   145  Na    c    -2.216554    4.404039   -6.628914    0.000000    1.000000
   146  Na    c    -2.216554    0.001863    6.628914    0.000000    1.000000
   147  Na    c    -2.216554    0.001863   -6.628914    0.000000    1.000000
   148  Na    c     8.818278    6.612725   -2.210246    0.000000    1.000000
   149  Na    c     8.818278    6.612725    2.210246    0.000000    1.000000
   150  Na    c     8.818278   -2.206823   -2.210246    0.000000    1.000000
   151  Na    c     8.818278   -2.206823    2.210246    0.000000    1.000000
   152  Na    c    -4.412376    6.612725   -2.210246    0.000000    1.000000
   153  Na    c    -4.412376    6.612725    2.210246    0.000000    1.000000
   154  Na    c    -4.412376   -2.206823   -2.210246    0.000000    1.000000
   155  Na    c    -4.412376   -2.206823    2.210246    0.000000    1.000000
   156  Na    c     6.612725    8.818278   -2.210246    0.000000    1.000000
   157  Na    c     6.612725    8.818278    2.210246    0.000000    1.000000
   158  Na    c     6.612725   -4.412376   -2.210246    0.000000    1.000000
   159  Na    c     6.612725   -4.412376    2.210246    0.000000    1.000000
   160  Na    c    -2.206823    8.818278   -2.210246    0.000000    1.000000
   161  Na    c    -2.206823    8.818278    2.210246    0.000000    1.000000
   162  Na    c    -2.206823   -4.412376   -2.210246    0.000000    1.000000
   163  Na    c    -2.206823   -4.412376    2.210246    0.000000    1.000000
   164  Na    c     2.202951    2.202951    8.782271    0.000000    1.000000
   165  Na    c     2.202951    2.202951   -8.782271    0.000000    1.000000
   166  Na    c     2.202951   11.069475    0.000000    0.000000    1.000000
   167  Na    c     2.202951   -6.663573    0.000000    0.000000    1.000000
   168  Na    c    11.069475    2.202951    0.000000    0.000000    1.000000
   169  Na    c    -6.663573    2.202951    0.000000    0.000000    1.000000
   170  O     c     6.602077    6.602077    6.599993    0.000000    0.183000
   171  O     c     6.602077    6.602077   -6.599993    0.000000    0.183000
   172  O     c     6.602077   -2.196174    6.599993    0.000000    0.183000
   173  O     c     6.602077   -2.196174   -6.599993    0.000000    0.183000
   174  O     c    -2.196174    6.602077    6.599993    0.000000    0.183000
   175  O     c    -2.196174    6.602077   -6.599993    0.000000    0.183000
   176  O     c    -2.196174   -2.196174    6.599993    0.000000    0.183000
   177  O     c    -2.196174   -2.196174   -6.599993    0.000000    0.183000
   178  O     c     2.202951   11.025472   -2.200393    0.000000    0.183000
   179  O     c     2.202951   11.025472    2.200393    0.000000    0.183000
   180  O     c     2.202951   -6.619570   -2.200393    0.000000    0.183000
   181  O     c     2.202951   -6.619570    2.200393    0.000000    0.183000
   182  O     c    11.025472    2.202951   -2.200393    0.000000    0.183000
   183  O     c    11.025472    2.202951    2.200393    0.000000    0.183000
   184  O     c    -6.619570    2.202951   -2.200393    0.000000    0.183000
   185  O     c    -6.619570    2.202951    2.200393    0.000000    0.183000
   186  Cl    c     4.401442    4.401442    8.780058    0.000000    1.485000
   187  Cl    c     4.401442    4.401442   -8.780058    0.000000    1.485000
   188  Cl    c     4.401442    0.004460    8.780058    0.000000    1.485000
   189  Cl    c     4.401442    0.004460   -8.780058    0.000000    1.485000
   190  Cl    c     0.004460    4.401442    8.780058    0.000000    1.485000
   191  Cl    c     0.004460    4.401442   -8.780058    0.000000    1.485000
   192  Cl    c     0.004460    0.004460    8.780058    0.000000    1.485000
   193  Cl    c     0.004460    0.004460   -8.780058    0.000000    1.485000
   194  Cl    c     8.794786    8.794786    0.000000    0.000000    1.485000
   195  Cl    c     8.794786   -4.388883    0.000000    0.000000    1.485000
   196  Cl    c    -4.388883    8.794786    0.000000    0.000000    1.485000
   197  Cl    c    -4.388883   -4.388883    0.000000    0.000000    1.485000
   198  Na    c     8.814771    2.202951    6.633371    0.000000    1.000000
   199  Na    c     8.814771    2.202951   -6.633371    0.000000    1.000000
   200  Na    c    -4.408869    2.202951    6.633371    0.000000    1.000000
   201  Na    c    -4.408869    2.202951   -6.633371    0.000000    1.000000
   202  Na    c     2.202951    8.814771    6.633371    0.000000    1.000000
   203  Na    c     2.202951    8.814771   -6.633371    0.000000    1.000000
   204  Na    c     2.202951   -4.408869    6.633371    0.000000    1.000000
   205  Na    c     2.202951   -4.408869   -6.633371    0.000000    1.000000
   206  Na    c     4.408428   11.035984   -2.206126    0.000000    1.000000
   207  Na    c     4.408428   11.035984    2.206126    0.000000    1.000000
   208  Na    c     4.408428   -6.630082   -2.206126    0.000000    1.000000
   209  Na    c     4.408428   -6.630082    2.206126    0.000000    1.000000
   210  Na    c    -0.002525   11.035984   -2.206126    0.000000    1.000000
   211  Na    c    -0.002525   11.035984    2.206126    0.000000    1.000000
   212  Na    c    -0.002525   -6.630082   -2.206126    0.000000    1.000000
   213  Na    c    -0.002525   -6.630082    2.206126    0.000000    1.000000
   214  Na    c    11.035984    4.408428   -2.206126    0.000000    1.000000
   215  Na    c    11.035984    4.408428    2.206126    0.000000    1.000000
   216  Na    c    11.035984   -0.002525   -2.206126    0.000000    1.000000
   217  Na    c    11.035984   -0.002525    2.206126    0.000000    1.000000
   218  Na    c    -6.630082    4.408428   -2.206126    0.000000    1.000000
   219  Na    c    -6.630082    4.408428    2.206126    0.000000    1.000000
   220  Na    c    -6.630082   -0.002525   -2.206126    0.000000    1.000000
   221  Na    c    -6.630082   -0.002525    2.206126    0.000000    1.000000
   222  Na    c     2.202951    6.587253    8.808173    0.000000    1.000000
   223  Na    c     2.202951    6.587253   -8.808173    0.000000    1.000000
   224  Na    c     2.202951   -2.181351    8.808173    0.000000    1.000000
   225  Na    c     2.202951   -2.181351   -8.808173    0.000000    1.000000
   226  Na    c     6.587253    2.202951    8.808173    0.000000    1.000000
   227  Na    c     6.587253    2.202951   -8.808173    0.000000    1.000000
   228  Na    c    -2.181351    2.202951    8.808173    0.000000    1.000000
   229  Na    c    -2.181351    2.202951   -8.808173    0.000000    1.000000
   230  Na    c     2.202951   11.015319    4.405868    0.000000    1.000000
   231  Na    c     2.202951   11.015319   -4.405868    0.000000    1.000000
   232  Na    c     2.202951   -6.609416    4.405868    0.000000    1.000000
   233  Na    c     2.202951   -6.609416   -4.405868    0.000000    1.000000
   234  Na    c    11.015319    2.202951    4.405868    0.000000    1.000000
   235  Na    c    11.015319    2.202951   -4.405868    0.000000    1.000000
   236  Na    c    -6.609416    2.202951    4.405868    0.000000    1.000000
   237  Na    c    -6.609416    2.202951   -4.405868    0.000000    1.000000
   238  Na    c     6.611453   11.024443    0.000000    0.000000    1.000000
   239  Na    c     6.611453   -6.618541    0.000000    0.000000    1.000000
   240  Na    c    11.024443    6.611453    0.000000    0.000000    1.000000
   241  Na    c    11.024443   -2.205551    0.000000    0.000000    1.000000
   242  Na    c    -2.205551   11.024443    0.000000    0.000000    1.000000
   243  Na    c    -2.205551   -6.618541    0.000000    0.000000    1.000000
   244  Na    c    -6.618541    6.611453    0.000000    0.000000    1.000000
   245  Na    c    -6.618541   -2.205551    0.000000    0.000000    1.000000
   246  O     c     6.609374   11.016038   -2.202517    0.000000    0.183000
   247  O     c     6.609374   11.016038    2.202517    0.000000    0.183000
   248  O     c     6.609374   -6.610136   -2.202517    0.000000    0.183000
   249  O     c     6.609374   -6.610136    2.202517    0.000000    0.183000
   250  O     c    11.016038    6.609374   -2.202517    0.000000    0.183000
   251  O     c    11.016038    6.609374    2.202517    0.000000    0.183000
   252  O     c    11.016038   -2.203471   -2.202517    0.000000    0.183000
   253  O     c    11.016038   -2.203471    2.202517    0.000000    0.183000
   254  O     c    -2.203471   11.016038   -2.202517    0.000000    0.183000
   255  O     c    -2.203471   11.016038    2.202517    0.000000    0.183000
   256  O     c    -2.203471   -6.610136   -2.202517    0.000000    0.183000
   257  O     c    -2.203471   -6.610136    2.202517    0.000000    0.183000
   258  O     c    -6.610136    6.609374   -2.202517    0.000000    0.183000
   259  O     c    -6.610136    6.609374    2.202517    0.000000    0.183000
   260  O     c    -6.610136   -2.203471   -2.202517    0.000000    0.183000
   261  O     c    -6.610136   -2.203471    2.202517    0.000000    0.183000
   262  Cl    c     8.794729    8.794729    4.393077    0.000000    1.485000
   263  Cl    c     8.794729    8.794729   -4.393077    0.000000    1.485000
   264  Cl    c     8.794729   -4.388827    4.393077    0.000000    1.485000
   265  Cl    c     8.794729   -4.388827   -4.393077    0.000000    1.485000
   266  Cl    c    -4.388827    8.794729    4.393077    0.000000    1.485000
   267  Cl    c    -4.388827    8.794729   -4.393077    0.000000    1.485000
   268  Cl    c    -4.388827   -4.388827    4.393077    0.000000    1.485000
   269  Cl    c    -4.388827   -4.388827   -4.393077    0.000000    1.485000
   270  Na    c     8.812712    6.609721    6.612421    0.000000    1.000000
   271  Na    c     8.812712    6.609721   -6.612421    0.000000    1.000000
   272  Na    c     8.812712   -2.203819    6.612421    0.000000    1.000000
   273  Na    c     8.812712   -2.203819   -6.612421    0.000000    1.000000
   274  Na    c    -4.406809    6.609721    6.612421    0.000000    1.000000
   275  Na    c    -4.406809    6.609721   -6.612421    0.000000    1.000000
   276  Na    c    -4.406809   -2.203819    6.612421    0.000000    1.000000
   277  Na    c    -4.406809   -2.203819   -6.612421    0.000000    1.000000
   278  Na    c     6.609721    8.812712    6.612421    0.000000    1.000000
   279  Na    c     6.609721    8.812712   -6.612421    0.000000    1.000000
   280  Na    c     6.609721   -4.406809    6.612421    0.000000    1.000000
   281  Na    c     6.609721   -4.406809   -6.612421    0.000000    1.000000
   282  Na    c    -2.203819    8.812712    6.612421    0.000000    1.000000
   283  Na    c    -2.203819    8.812712   -6.612421    0.000000    1.000000
   284  Na    c    -2.203819   -4.406809    6.612421    0.000000    1.000000
   285  Na    c    -2.203819   -4.406809   -6.612421    0.000000    1.000000
   286  Na    c     6.613992   11.025002    4.406553    0.000000    1.000000
   287  Na    c     6.613992   11.025002   -4.406553    0.000000    1.000000
   288  Na    c     6.613992   -6.619100    4.406553    0.000000    1.000000
   289  Na    c     6.613992   -6.619100   -4.406553    0.000000    1.000000
   290  Na    c    11.025002    6.613992    4.406553    0.000000    1.000000
   291  Na    c    11.025002    6.613992   -4.406553    0.000000    1.000000
   292  Na    c    11.025002   -2.208089    4.406553    0.000000    1.000000
   293  Na    c    11.025002   -2.208089   -4.406553    0.000000    1.000000
   294  Na    c    -2.208089   11.025002    4.406553    0.000000    1.000000
   295  Na    c    -2.208089   11.025002   -4.406553    0.000000    1.000000
   296  Na    c    -2.208089   -6.619100    4.406553    0.000000    1.000000
   297  Na    c    -2.208089   -6.619100   -4.406553    0.000000    1.000000
   298  Na    c    -6.619100    6.613992    4.406553    0.000000    1.000000
   299  Na    c    -6.619100    6.613992   -4.406553    0.000000    1.000000
   300  Na    c    -6.619100   -2.208089    4.406553    0.000000    1.000000
   301  Na    c    -6.619100   -2.208089   -4.406553    0.000000    1.000000
   302  Na    c     6.611599    6.611599    8.811405    0.000000    1.000000
   303  Na    c     6.611599    6.611599   -8.811405    0.000000    1.000000
   304  Na    c     6.611599   -2.205697    8.811405    0.000000    1.000000
   305  Na    c     6.611599   -2.205697   -8.811405    0.000000    1.000000
   306  Na    c    -2.205697    6.611599    8.811405    0.000000    1.000000
   307  Na    c    -2.205697    6.611599   -8.811405    0.000000    1.000000
   308  Na    c    -2.205697   -2.205697    8.811405    0.000000    1.000000
   309  Na    c    -2.205697   -2.205697   -8.811405    0.000000    1.000000
   310  O     c     2.202951    2.202951   10.998344    0.000000    0.183000
   311  O     c     2.202951    2.202951  -10.998344    0.000000    0.183000
   312  O     c     2.202951   11.012644    6.605512    0.000000    0.183000
   313  O     c     2.202951   11.012644   -6.605512    0.000000    0.183000
   314  O     c     2.202951   -6.606742    6.605512    0.000000    0.183000
   315  O     c     2.202951   -6.606742   -6.605512    0.000000    0.183000
   316  O     c    11.012644    2.202951    6.605512    0.000000    0.183000
   317  O     c    11.012644    2.202951   -6.605512    0.000000    0.183000
   318  O     c    -6.606742    2.202951    6.605512    0.000000    0.183000
   319  O     c    -6.606742    2.202951   -6.605512    0.000000    0.183000
   320  Cl    c     4.403581    8.800007    8.794257    0.000000    1.485000
   321  Cl    c     4.403581    8.800007   -8.794257    0.000000    1.485000
   322  Cl    c     4.403581   -4.394105    8.794257    0.000000    1.485000
   323  Cl    c     4.403581   -4.394105   -8.794257    0.000000    1.485000
   324  Cl    c     8.800007    4.403581    8.794257    0.000000    1.485000
   325  Cl    c     8.800007    4.403581   -8.794257    0.000000    1.485000
   326  Cl    c     8.800007    0.002321    8.794257    0.000000    1.485000
   327  Cl    c     8.800007    0.002321   -8.794257    0.000000    1.485000
   328  Cl    c     0.002321    8.800007    8.794257    0.000000    1.485000
   329  Cl    c     0.002321    8.800007   -8.794257    0.000000    1.485000
   330  Cl    c     0.002321   -4.394105    8.794257    0.000000    1.485000
   331  Cl    c     0.002321   -4.394105   -8.794257    0.000000    1.485000
   332  Cl    c    -4.394105    4.403581    8.794257    0.000000    1.485000
   333  Cl    c    -4.394105    4.403581   -8.794257    0.000000    1.485000
   334  Cl    c    -4.394105    0.002321    8.794257    0.000000    1.485000
   335  Cl    c    -4.394105    0.002321   -8.794257    0.000000    1.485000
   336  Cl    c     4.404863   13.210843    0.000000    0.000000    1.485000
   337  Cl    c     4.404863   -8.804941    0.000000    0.000000    1.485000
   338  Cl    c    13.210843    4.404863    0.000000    0.000000    1.485000
   339  Cl    c    13.210843    0.001040    0.000000    0.000000    1.485000
   340  Cl    c     0.001040   13.210843    0.000000    0.000000    1.485000
   341  Cl    c     0.001040   -8.804941    0.000000    0.000000    1.485000
   342  Cl    c    -8.804941    4.404863    0.000000    0.000000    1.485000
   343  Cl    c    -8.804941    0.001040    0.000000    0.000000    1.485000
   344  Na    c     4.402613    2.202951   11.014254    0.000000    1.000000
   345  Na    c     4.402613    2.202951  -11.014254    0.000000    1.000000
   346  Na    c     0.003290    2.202951   11.014254    0.000000    1.000000
   347  Na    c     0.003290    2.202951  -11.014254    0.000000    1.000000
   348  Na    c     2.202951    4.402613   11.014254    0.000000    1.000000
   349  Na    c     2.202951    4.402613  -11.014254    0.000000    1.000000
   350  Na    c     2.202951    0.003290   11.014254    0.000000    1.000000
   351  Na    c     2.202951    0.003290  -11.014254    0.000000    1.000000
   352  Na    c     4.406354   11.023387    6.611989    0.000000    1.000000
   353  Na    c     4.406354   11.023387   -6.611989    0.000000    1.000000
   354  Na    c     4.406354   -6.617484    6.611989    0.000000    1.000000
   355  Na    c     4.406354   -6.617484   -6.611989    0.000000    1.000000
   356  Na    c    -0.000452   11.023387    6.611989    0.000000    1.000000
   357  Na    c    -0.000452   11.023387   -6.611989    0.000000    1.000000
   358  Na    c    -0.000452   -6.617484    6.611989    0.000000    1.000000
   359  Na    c    -0.000452   -6.617484   -6.611989    0.000000    1.000000
   360  Na    c    11.023387    4.406354    6.611989    0.000000    1.000000
   361  Na    c    11.023387    4.406354   -6.611989    0.000000    1.000000
   362  Na    c    11.023387   -0.000452    6.611989    0.000000    1.000000
   363  Na    c    11.023387   -0.000452   -6.611989    0.000000    1.000000
   364  Na    c    -6.617484    4.406354    6.611989    0.000000    1.000000
   365  Na    c    -6.617484    4.406354   -6.611989    0.000000    1.000000
   366  Na    c    -6.617484   -0.000452    6.611989    0.000000    1.000000
   367  Na    c    -6.617484   -0.000452   -6.611989    0.000000    1.000000
   368  Na    c    13.227714    2.202951   -2.222186    0.000000    1.000000
   369  Na    c    13.227714    2.202951    2.222186    0.000000    1.000000
   370  Na    c    -8.821812    2.202951   -2.222186    0.000000    1.000000
   371  Na    c    -8.821812    2.202951    2.222186    0.000000    1.000000
   372  Na    c     2.202951   13.227714   -2.222186    0.000000    1.000000
   373  Na    c     2.202951   13.227714    2.222186    0.000000    1.000000
   374  Na    c     2.202951   -8.821812   -2.222186    0.000000    1.000000
   375  Na    c     2.202951   -8.821812    2.222186    0.000000    1.000000
   376  Na    c     8.814155   11.024236   -2.202451    0.000000    1.000000
   377  Na    c     8.814155   11.024236    2.202451    0.000000    1.000000
   378  Na    c     8.814155   -6.618333   -2.202451    0.000000    1.000000
   379  Na    c     8.814155   -6.618333    2.202451    0.000000    1.000000
   380  Na    c    -4.408253   11.024236   -2.202451    0.000000    1.000000
   381  Na    c    -4.408253   11.024236    2.202451    0.000000    1.000000
   382  Na    c    -4.408253   -6.618333   -2.202451    0.000000    1.000000
   383  Na    c    -4.408253   -6.618333    2.202451    0.000000    1.000000
   384  Na    c    11.024236    8.814155   -2.202451    0.000000    1.000000
   385  Na    c    11.024236    8.814155    2.202451    0.000000    1.000000
   386  Na    c    11.024236   -4.408253   -2.202451    0.000000    1.000000
   387  Na    c    11.024236   -4.408253    2.202451    0.000000    1.000000
   388  Na    c    -6.618333    8.814155   -2.202451    0.000000    1.000000
   389  Na    c    -6.618333    8.814155    2.202451    0.000000    1.000000
   390  Na    c    -6.618333   -4.408253   -2.202451    0.000000    1.000000
   391  Na    c    -6.618333   -4.408253    2.202451    0.000000    1.000000
   392  O     c     2.202951    6.603681   11.008238    0.000000    0.183000
   393  O     c     2.202951    6.603681  -11.008238    0.000000    0.183000
   394  O     c     2.202951   -2.197779   11.008238    0.000000    0.183000
   395  O     c     2.202951   -2.197779  -11.008238    0.000000    0.183000
   396  O     c     6.603681    2.202951   11.008238    0.000000    0.183000
   397  O     c     6.603681    2.202951  -11.008238    0.000000    0.183000
   398  O     c    -2.197779    2.202951   11.008238    0.000000    0.183000
   399  O     c    -2.197779    2.202951  -11.008238    0.000000    0.183000
   400  O     c     6.608244   11.014260    6.607259    0.000000    0.183000
   401  O     c     6.608244   11.014260   -6.607259    0.000000    0.183000
   402  O     c     6.608244   -6.608358    6.607259    0.000000    0.183000
   403  O     c     6.608244   -6.608358   -6.607259    0.000000    0.183000
   404  O     c    11.014260    6.608244    6.607259    0.000000    0.183000
   405  O     c    11.014260    6.608244   -6.607259    0.000000    0.183000
   406  O     c    11.014260   -2.202341    6.607259    0.000000    0.183000
   407  O     c    11.014260   -2.202341   -6.607259    0.000000    0.183000
   408  O     c    -2.202341   11.014260    6.607259    0.000000    0.183000
   409  O     c    -2.202341   11.014260   -6.607259    0.000000    0.183000
   410  O     c    -2.202341   -6.608358    6.607259    0.000000    0.183000
   411  O     c    -2.202341   -6.608358   -6.607259    0.000000    0.183000
   412  O     c    -6.608358    6.608244    6.607259    0.000000    0.183000
   413  O     c    -6.608358    6.608244   -6.607259    0.000000    0.183000
   414  O     c    -6.608358   -2.202341    6.607259    0.000000    0.183000
   415  O     c    -6.608358   -2.202341   -6.607259    0.000000    0.183000
   416  Cl    c     4.404507   13.208864    4.401651    0.000000    1.485000
   417  Cl    c     4.404507   13.208864   -4.401651    0.000000    1.485000
   418  Cl    c     4.404507   -8.802962    4.401651    0.000000    1.485000
   419  Cl    c     4.404507   -8.802962   -4.401651    0.000000    1.485000
   420  Cl    c    13.208864    4.404507    4.401651    0.000000    1.485000
   421  Cl    c    13.208864    4.404507   -4.401651    0.000000    1.485000
   422  Cl    c    13.208864    0.001396    4.401651    0.000000    1.485000
   423  Cl    c    13.208864    0.001396   -4.401651    0.000000    1.485000
   424  Cl    c     0.001396   13.208864    4.401651    0.000000    1.485000
   425  Cl    c     0.001396   13.208864   -4.401651    0.000000    1.485000
   426  Cl    c     0.001396   -8.802962    4.401651    0.000000    1.485000
   427  Cl    c     0.001396   -8.802962   -4.401651    0.000000    1.485000
   428  Cl    c    -8.802962    4.404507    4.401651    0.000000    1.485000
   429  Cl    c    -8.802962    4.404507   -4.401651    0.000000    1.485000
   430  Cl    c    -8.802962    0.001396    4.401651    0.000000    1.485000
   431  Cl    c    -8.802962    0.001396   -4.401651    0.000000    1.485000
   432  Na    c     4.405540    6.611047   11.021052    0.000000    1.000000
   433  Na    c     4.405540    6.611047  -11.021052    0.000000    1.000000
   434  Na    c     4.405540   -2.205145   11.021052    0.000000    1.000000
   435  Na    c     4.405540   -2.205145  -11.021052    0.000000    1.000000
   436  Na    c     0.000362    6.611047   11.021052    0.000000    1.000000
   437  Na    c     0.000362    6.611047  -11.021052    0.000000    1.000000
   438  Na    c     0.000362   -2.205145   11.021052    0.000000    1.000000
   439  Na    c     0.000362   -2.205145  -11.021052    0.000000    1.000000
   440  Na    c     6.611047    4.405540   11.021052    0.000000    1.000000
   441  Na    c     6.611047    4.405540  -11.021052    0.000000    1.000000
   442  Na    c     6.611047    0.000362   11.021052    0.000000    1.000000
   443  Na    c     6.611047    0.000362  -11.021052    0.000000    1.000000
   444  Na    c    -2.205145    4.405540   11.021052    0.000000    1.000000
   445  Na    c    -2.205145    4.405540  -11.021052    0.000000    1.000000
   446  Na    c    -2.205145    0.000362   11.021052    0.000000    1.000000
   447  Na    c    -2.205145    0.000362  -11.021052    0.000000    1.000000
   448  Na    c    13.222291    6.617543   -2.204964    0.000000    1.000000
   449  Na    c    13.222291    6.617543    2.204964    0.000000    1.000000
   450  Na    c    13.222291   -2.211640   -2.204964    0.000000    1.000000
   451  Na    c    13.222291   -2.211640    2.204964    0.000000    1.000000
   452  Na    c    -8.816389    6.617543   -2.204964    0.000000    1.000000
   453  Na    c    -8.816389    6.617543    2.204964    0.000000    1.000000
   454  Na    c    -8.816389   -2.211640   -2.204964    0.000000    1.000000
   455  Na    c    -8.816389   -2.211640    2.204964    0.000000    1.000000
   456  Na    c     6.617543   13.222291   -2.204964    0.000000    1.000000
   457  Na    c     6.617543   13.222291    2.204964    0.000000    1.000000
   458  Na    c     6.617543   -8.816389   -2.204964    0.000000    1.000000
   459  Na    c     6.617543   -8.816389    2.204964    0.000000    1.000000
   460  Na    c    -2.211640   13.222291   -2.204964    0.000000    1.000000
   461  Na    c    -2.211640   13.222291    2.204964    0.000000    1.000000
   462  Na    c    -2.211640   -8.816389   -2.204964    0.000000    1.000000
   463  Na    c    -2.211640   -8.816389    2.204964    0.000000    1.000000
   464  Na    c     2.202951   11.028497    8.811193    0.000000    1.000000
   465  Na    c     2.202951   11.028497   -8.811193    0.000000    1.000000
   466  Na    c     2.202951   -6.622595    8.811193    0.000000    1.000000
   467  Na    c     2.202951   -6.622595   -8.811193    0.000000    1.000000
   468  Na    c    11.028497    2.202951    8.811193    0.000000    1.000000
   469  Na    c    11.028497    2.202951   -8.811193    0.000000    1.000000
   470  Na    c    -6.622595    2.202951    8.811193    0.000000    1.000000
   471  Na    c    -6.622595    2.202951   -8.811193    0.000000    1.000000
   472  Na    c    11.025317   11.025317    0.000000    0.000000    1.000000
   473  Na    c    11.025317   -6.619415    0.000000    0.000000    1.000000
   474  Na    c    -6.619415   11.025317    0.000000    0.000000    1.000000
[...]
     42 y          2.202951      2.202951     0.000000    Cartesian    0.00
     42 z         11.014756     11.014254    -0.000501    Cartesian   -0.00
     43 x          4.405902      4.406354     0.000452    Cartesian    0.01
     43 y         11.014756     11.023387     0.008631    Cartesian    0.08
     43 z          6.608853      6.611989     0.003136    Cartesian    0.05
     44 x         13.217707     13.227714     0.010007    Cartesian    0.08
     44 y          2.202951      2.202951     0.000000    Cartesian    0.00
     44 z         -2.202951     -2.222186    -0.019235    Cartesian    0.87
     45 x          8.811805      8.814155     0.002350    Cartesian    0.03
     45 y         11.014756     11.024236     0.009480    Cartesian    0.09
     45 z         -2.202951     -2.202451     0.000500    Cartesian   -0.02
     46 x          2.202951      2.202951     0.000000    Cartesian    0.00
     46 y          6.608853      6.603681    -0.005173    Cartesian   -0.08
     46 z         11.014756     11.008238    -0.006518    Cartesian   -0.06
     47 x          6.608853      6.608244    -0.000610    Cartesian   -0.01
     47 y         11.014756     11.014260    -0.000496    Cartesian   -0.00
     47 z          6.608853      6.607259    -0.001594    Cartesian   -0.02
     48 x          4.405902      4.404507    -0.001396    Cartesian   -0.03
     48 y         13.217707     13.208864    -0.008843    Cartesian   -0.07
     48 z          4.405902      4.401651    -0.004252    Cartesian   -0.10
     49 x          4.405902      4.405540    -0.000362    Cartesian   -0.01
     49 y          6.608853      6.611047     0.002194    Cartesian    0.03
     49 z         11.014756     11.021052     0.006297    Cartesian    0.06
     50 x         13.217707     13.222291     0.004585    Cartesian    0.03
     50 y          6.608853      6.617543     0.008689    Cartesian    0.13
     50 z         -2.202951     -2.204964    -0.002013    Cartesian    0.09
     51 x          2.202951      2.202951     0.000000    Cartesian    0.00
     51 y         11.014756     11.028497     0.013742    Cartesian    0.12
     51 z          8.811805      8.811193    -0.000612    Cartesian   -0.01
     52 x         11.014756     11.025317     0.010561    Cartesian    0.10
     52 y         11.014756     11.025317     0.010561    Cartesian    0.10
     52 z          0.000000      0.000000     0.000000    Cartesian    0.00
     53 x          6.608853      6.607724    -0.001129    Cartesian   -0.02
     53 y          6.608853      6.607724    -0.001129    Cartesian   -0.02
     53 z         11.014756     11.011817    -0.002938    Cartesian   -0.03
     54 x         11.014756     11.015105     0.000349    Cartesian    0.00
     54 y         11.014756     11.015105     0.000349    Cartesian    0.00
     54 z         -2.202951     -2.201948     0.001004    Cartesian   -0.05
     55 x          8.811805      8.804260    -0.007544    Cartesian   -0.09
     55 y          8.811805      8.804260    -0.007544    Cartesian   -0.09
     55 z          8.811805      8.800460    -0.011345    Cartesian   -0.13
     56 x          8.811805      8.809269    -0.002535    Cartesian   -0.03
     56 y         13.217707     13.208931    -0.008776    Cartesian   -0.07
     56 z          0.000000      0.000000     0.000000    Cartesian    0.00
     57 x          8.811805      8.809356    -0.002449    Cartesian   -0.03
     57 y          2.202951      2.202951     0.000000    Cartesian    0.00
     57 z         11.014756     11.008807    -0.005949    Cartesian   -0.05
     58 x         13.217707     13.219959     0.002252    Cartesian    0.02
     58 y          2.202951      2.202951     0.000000    Cartesian    0.00
     58 z          6.608853      6.603031    -0.005822    Cartesian   -0.09
     59 x          8.811805      8.811267    -0.000537    Cartesian   -0.01
     59 y         11.014756     11.019109     0.004354    Cartesian    0.04
     59 z          6.608853      6.612649     0.003795    Cartesian    0.06
     60 x          2.202951      2.202951     0.000000    Cartesian    0.00
     60 y          2.202951      2.202951     0.000000    Cartesian    0.00
     60 z         13.217707     13.214159    -0.003548    Cartesian   -0.03
     61 x          2.202951      2.202951     0.000000    Cartesian    0.00
     61 y         15.420658     15.423472     0.002814    Cartesian    0.02
     61 z          0.000000      0.000000     0.000000    Cartesian    0.00
     62 x          6.608853      6.607675    -0.001179    Cartesian   -0.02
     62 y         11.014756     11.017669     0.002913    Cartesian    0.03
     62 z          8.811805      8.811661    -0.000144    Cartesian   -0.00
     63 x         11.014756     11.019338     0.004582    Cartesian    0.04
     63 y         11.014756     11.019338     0.004582    Cartesian    0.04
     63 z          4.405902      4.405425    -0.000477    Cartesian   -0.01
     64 x          2.202951      2.202951     0.000000    Cartesian    0.00
     64 y         15.420658     15.422375     0.001717    Cartesian    0.01
     64 z         -2.202951     -2.204225    -0.001274    Cartesian    0.06
     65 x          8.811805      8.808382    -0.003423    Cartesian   -0.04
     65 y         13.217707     13.208661    -0.009046    Cartesian   -0.07
     65 z          4.405902      4.403356    -0.002546    Cartesian   -0.06
     66 x          4.405902      4.407378     0.001476    Cartesian    0.03
     66 y         15.420658     15.427452     0.006794    Cartesian    0.04
     66 z         -2.202951     -2.202578     0.000374    Cartesian   -0.02
     67 x          4.405902      4.402351    -0.003551    Cartesian   -0.08
     67 y          4.405902      4.402351    -0.003551    Cartesian   -0.08
     67 z         13.217707     13.204463    -0.013244    Cartesian   -0.10
     68 x          8.811805      8.811284    -0.000521    Cartesian   -0.01
     68 y          6.608853      6.608436    -0.000417    Cartesian   -0.01
     68 z         11.014756     11.018528     0.003772    Cartesian    0.03
     69 x         13.217707     13.220412     0.002705    Cartesian    0.02
     69 y          6.608853      6.609054     0.000200    Cartesian    0.00
     69 z          6.608853      6.610819     0.001965    Cartesian    0.03
     70 x          2.202951      2.202951     0.000000    Cartesian    0.00
     70 y          6.608853      6.610012     0.001158    Cartesian    0.02
     70 z         13.217707     13.216658    -0.001049    Cartesian   -0.01
     71 x          2.202951      2.202951     0.000000    Cartesian    0.00
     71 y         15.420658     15.434913     0.014255    Cartesian    0.09
     71 z          4.405902      4.407574     0.001672    Cartesian    0.04
     72 x          6.608853      6.613980     0.005127    Cartesian    0.08
     72 y         15.420658     15.426848     0.006190    Cartesian    0.04
     72 z          0.000000      0.000000     0.000000    Cartesian    0.00
     73 x          6.608853      6.609875     0.001021    Cartesian    0.02
     73 y         15.420658     15.420754     0.000096    Cartesian    0.00
     73 z         -2.202951     -2.202928     0.000024    Cartesian   -0.00
     74 x          2.202951      2.202951     0.000000    Cartesian    0.00
     74 y         11.014756     11.012775    -0.001980    Cartesian   -0.02
     74 z         11.014756     11.011057    -0.003699    Cartesian   -0.03
     75 x         11.014756     11.011017    -0.003738    Cartesian   -0.03
     75 y         11.014756     11.011017    -0.003738    Cartesian   -0.03
     75 z          6.608853      6.605929    -0.002924    Cartesian   -0.04
     76 x          4.405902      4.403046    -0.002856    Cartesian   -0.06
     76 y         13.217707     13.208723    -0.008984    Cartesian   -0.07
     76 z          8.811805      8.804354    -0.007451    Cartesian   -0.08
     77 x          4.405902      4.405244    -0.000658    Cartesian   -0.01
     77 y         11.014756     11.017150     0.002394    Cartesian    0.02
     77 z         11.014756     11.021248     0.006492    Cartesian    0.06
     78 x         13.217707     13.221235     0.003528    Cartesian    0.03
     78 y         11.014756     11.019740     0.004984    Cartesian    0.05
     78 z         -2.202951     -2.205063    -0.002112    Cartesian    0.10
     79 x          6.608853      6.610634     0.001780    Cartesian    0.03
     79 y         15.420658     15.430305     0.009647    Cartesian    0.06
     79 z          4.405902      4.407150     0.001248    Cartesian    0.03
     80 x          6.608853      6.611610     0.002757    Cartesian    0.04
     80 y          6.608853      6.611610     0.002757    Cartesian    0.04
     80 z         13.217707     13.219094     0.001387    Cartesian    0.01
     81 x          6.608853      6.606411    -0.002443    Cartesian   -0.04
     81 y         11.014756     11.011187    -0.003569    Cartesian   -0.03
     81 z         11.014756     11.010868    -0.003888    Cartesian   -0.04
     82 x          2.202951      2.202951     0.000000    Cartesian    0.00
     82 y         15.420658     15.419548    -0.001110    Cartesian   -0.01
     82 z          6.608853      6.607122    -0.001732    Cartesian   -0.03
     83 x          4.405902      4.404015    -0.001887    Cartesian   -0.04
     83 y          8.811805      8.804987    -0.006817    Cartesian   -0.08
     83 z         13.217707     13.203200    -0.014507    Cartesian   -0.11
     84 x          4.405902      4.406420     0.000517    Cartesian    0.01
     84 y         15.420658     15.430360     0.009702    Cartesian    0.06
     84 z          6.608853      6.614751     0.005898    Cartesian    0.09
     85 x          8.811805      8.814328     0.002523    Cartesian    0.03
     85 y         15.420658     15.433547     0.012889    Cartesian    0.08
     85 z         -2.202951     -2.205335    -0.002384    Cartesian    0.11
     86 x          2.202951      2.202951     0.000000    Cartesian    0.00
     86 y          2.202951      2.202951     0.000000    Cartesian    0.00
     86 z          0.000000      0.000000     0.000000    Cartesian    0.00
     87 x          2.202951      2.202951     0.000000    Cartesian    0.00
     87 y          2.202951      2.202951     0.000000    Cartesian    0.00
     87 z         -2.202951     -1.868713     0.334238    Cartesian  -15.17
     88 x          4.405902      4.118218    -0.287684    Cartesian   -6.53
     88 y          4.405902      4.118218    -0.287684    Cartesian   -6.53
     88 z          0.000000      0.000000     0.000000    Cartesian    0.00
     89 x          2.202951      2.202951     0.000000    Cartesian    0.00
     89 y          6.608853      6.640917     0.032063    Cartesian    0.49
     89 z         -2.202951     -2.197220     0.005731    Cartesian   -0.26
     90 x          4.405902      4.331797    -0.074105    Cartesian   -1.68
     90 y          4.405902      4.331797    -0.074105    Cartesian   -1.68
     90 z          4.405902      4.304343    -0.101559    Cartesian   -2.31
     91 x          2.202951      2.202951     0.000000    Cartesian    0.00
     91 y          2.202951      2.202951     0.000000    Cartesian    0.00
     91 z          6.608853      6.552267    -0.056587    Cartesian   -0.86
     92 x          6.608853      6.598449    -0.010405    Cartesian   -0.16
     92 y          6.608853      6.598449    -0.010405    Cartesian   -0.16
     92 z         -2.202951     -2.193180     0.009771    Cartesian   -0.44
     93 x          4.405902      4.414536     0.008634    Cartesian    0.20
     93 y          8.811805      8.783633    -0.028172    Cartesian   -0.32
     93 z          0.000000      0.000000     0.000000    Cartesian    0.00
     94 x          2.202951      2.202951     0.000000    Cartesian    0.00
     94 y          6.608853      6.606947    -0.001907    Cartesian   -0.03
     94 z          6.608853      6.597700    -0.011153    Cartesian   -0.17
     95 x          4.405902      4.411311     0.005409    Cartesian    0.12
     95 y          8.811805      8.790702    -0.021103    Cartesian   -0.24
     95 z          4.405902      4.392318    -0.013584    Cartesian   -0.31
     96 x          6.608853      6.602074    -0.006780    Cartesian   -0.10
     96 y          6.608853      6.602074    -0.006780    Cartesian   -0.10
     96 z          6.608853      6.599989    -0.008864    Cartesian   -0.13
     97 x          2.202951      2.202951     0.000000    Cartesian    0.00
     97 y         11.014756     11.025466     0.010711    Cartesian    0.10
     97 z         -2.202951     -2.200389     0.002562    Cartesian   -0.12
     98 x          4.405902      4.401515    -0.004387    Cartesian   -0.10
     98 y          4.405902      4.401515    -0.004387    Cartesian   -0.10
     98 z          8.811805      8.777429    -0.034375    Cartesian   -0.39
     99 x          8.811805      8.790284    -0.021521    Cartesian   -0.24
     99 y          8.811805      8.790284    -0.021521    Cartesian   -0.24
     99 z          0.000000      0.000000     0.000000    Cartesian    0.00
    100 x          6.608853      6.609373     0.000519    Cartesian    0.01
    100 y         11.014756     11.016037     0.001281    Cartesian    0.01
    100 z         -2.202951     -2.202518     0.000434    Cartesian   -0.02
    101 x          8.811805      8.791703    -0.020102    Cartesian   -0.23
    101 y          8.811805      8.791703    -0.020102    Cartesian   -0.23
    101 z          4.405902      4.391334    -0.014568    Cartesian   -0.33
    102 x          2.202951      2.202951     0.000000    Cartesian    0.00
    102 y          2.202951      2.202951     0.000000    Cartesian    0.00
    102 z         11.014756     10.998356    -0.016400    Cartesian   -0.15
    103 x          2.202951      2.202951     0.000000    Cartesian    0.00
    103 y         11.014756     11.012641    -0.002115    Cartesian   -0.02
    103 z          6.608853      6.605512    -0.003342    Cartesian   -0.05
    104 x          4.405902      4.403347    -0.002556    Cartesian   -0.06
    104 y          8.811805      8.798086    -0.013719    Cartesian   -0.16
    104 z          8.811805      8.791286    -0.020518    Cartesian   -0.23
    105 x          4.405902      4.404065    -0.001838    Cartesian   -0.04
    105 y         13.217707     13.208294    -0.009413    Cartesian   -0.07
    105 z          0.000000      0.000000     0.000000    Cartesian    0.00
    106 x          2.202951      2.202951     0.000000    Cartesian    0.00
    106 y          6.608853      6.603676    -0.005177    Cartesian   -0.08
    106 z         11.014756     11.008234    -0.006522    Cartesian   -0.06
    107 x          6.608853      6.608244    -0.000610    Cartesian   -0.01
    107 y         11.014756     11.014259    -0.000496    Cartesian   -0.00
    107 z          6.608853      6.607258    -0.001596    Cartesian   -0.02
    108 x          4.405902      4.403931    -0.001972    Cartesian   -0.04
    108 y         13.217707     13.206718    -0.010989    Cartesian   -0.08
    108 z          4.405902      4.400619    -0.005284    Cartesian   -0.12
    109 x          6.608853      6.607725    -0.001129    Cartesian   -0.02
    109 y          6.608853      6.607725    -0.001129    Cartesian   -0.02
    109 z         11.014756     11.011815    -0.002941    Cartesian   -0.03
    110 x         11.014756     11.015104     0.000348    Cartesian    0.00
    110 y         11.014756     11.015104     0.000348    Cartesian    0.00
    110 z         -2.202951     -2.201947     0.001004    Cartesian   -0.05
    111 x          8.811805      8.803352    -0.008452    Cartesian   -0.10
    111 y          8.811805      8.803352    -0.008452    Cartesian   -0.10
    111 z          8.811805      8.799014    -0.012791    Cartesian   -0.15
    112 x          8.811805      8.808460    -0.003345    Cartesian   -0.04
    112 y         13.217707     13.207116    -0.010591    Cartesian   -0.08
    112 z          0.000000      0.000000     0.000000    Cartesian    0.00
    113 x          2.202951      2.202951     0.000000    Cartesian    0.00
    113 y         15.420658     15.422371     0.001713    Cartesian    0.01
    113 z         -2.202951     -2.204228    -0.001277    Cartesian    0.06
    114 x          8.811805      8.807738    -0.004066    Cartesian   -0.05
    114 y         13.217707     13.207099    -0.010608    Cartesian   -0.08
    114 z          4.405902      4.402972    -0.002930    Cartesian   -0.07
    115 x          4.405902      4.401963    -0.003940    Cartesian   -0.09
    115 y          4.405902      4.401963    -0.003940    Cartesian   -0.09
    115 z         13.217707     13.202943    -0.014764    Cartesian   -0.11
    116 x          6.608853      6.609874     0.001021    Cartesian    0.02
    116 y         15.420658     15.420755     0.000097    Cartesian    0.00
    116 z         -2.202951     -2.202927     0.000024    Cartesian   -0.00
    117 x          2.202951      2.202951     0.000000    Cartesian    0.00
    117 y         11.014756     11.012778    -0.001977    Cartesian   -0.02
    117 z         11.014756     11.011053    -0.003703    Cartesian   -0.03
    118 x         11.014756     11.011014    -0.003742    Cartesian   -0.03
    118 y         11.014756     11.011014    -0.003742    Cartesian   -0.03
    118 z          6.608853      6.605927    -0.002927    Cartesian   -0.04
    119 x          4.405902      4.402688    -0.003214    Cartesian   -0.07
    119 y         13.217707     13.207346    -0.010361    Cartesian   -0.08
    119 z          8.811805      8.803433    -0.008372    Cartesian   -0.10
    120 x          6.608853      6.606407    -0.002446    Cartesian   -0.04
    120 y         11.014756     11.011182    -0.003573    Cartesian   -0.03
    120 z         11.014756     11.010864    -0.003892    Cartesian   -0.04
    121 x          2.202951      2.202951     0.000000    Cartesian    0.00
    121 y         15.420658     15.419549    -0.001109    Cartesian   -0.01
    121 z          6.608853      6.607118    -0.001736    Cartesian   -0.03
    122 x          4.405902      4.403983    -0.001920    Cartesian   -0.04
    122 y          8.811805      8.804161    -0.007643    Cartesian   -0.09
    122 z         13.217707     13.201475    -0.016231    Cartesian   -0.12
--------------------------------------------------------------------------------


  Time to end of optimisation  =       30.4205 seconds


  Peak dynamic memory used =     242.39 MB 


  Timing analysis for GULP :

--------------------------------------------------------------------------------
  Task / Subroutine                                          Time (Seconds)
--------------------------------------------------------------------------------
  Calculation of reciprocal space energy and derivatives          0.0002
  Calculation of reciprocal space energy using symmetry           0.0004
  Calculation of real space energy and derivatives                0.0013
  Calculation of real space energy using symmetry                 0.0039
  Calculation for region 1 energy and derivatives (2-b)          15.1989
  Calculation for region 2a energy                               14.3144
  Calculation for region 2b energy                                0.0003
  Calculation and manipulation of Hessian matrix                  0.6339
  Calculation of matrix inversion                                 0.0307
  Symmetry generation of equivalent positions                     0.0016
--------------------------------------------------------------------------------
  Total CPU time                                                 30.4206
--------------------------------------------------------------------------------


  Dump file written as Na3OCl.grs


  Job Finished at 13:14.37  2nd February   2021                               

