********************************************************************************
*                       GENERAL UTILITY LATTICE PROGRAM                        *
*                                 Julian Gale                                  *
*                       Curtin Institute for Computation                       *
*                    School of Molecular and Life Sciences                     *
*                    Curtin University, Western Australia                      *
********************************************************************************
* Version = 5.2.0 * Last modified =  10th September 2020                       *
********************************************************************************
*  optimise     - perform optimisation run                                     *
*  conp         - constant pressure calculation                                *
*  property     - calculate properties for final geometry                      *
*  defect       - perform defect calculation after bulk run                    *
*  compare      - compare initial and final structures                         *
********************************************************************************

  Job Started  at 13:14.06  2nd February   2021                               

  Number of CPUs =     1


  Total number of configurations input =      1

********************************************************************************
*  Input for Configuration =   1                                               *
********************************************************************************

  Formula = ClONa3                                                      

  Number of irreducible atoms/shells =       5


  Total number atoms/shells =       7

  Dimensionality = 3               :  Bulk   


  Symmetry :

  Crystal family                   :  Cubic       
  Crystal class  (Groth - 1921)    :  Cubic Hexakisoctahedral              

  Space group (centrosymmetric)    :  P M 3 M         

  Patterson group                  :  P m -3 m 

  Cartesian lattice vectors (Angstroms) :

        4.504000    0.000000    0.000000
        0.000000    4.504000    0.000000
        0.000000    0.000000    4.504000

  Cell parameters (Angstroms/Degrees):

  a =       4.5040    alpha =  90.0000
  b =       4.5040    beta  =  90.0000
  c =       4.5040    gamma =  90.0000

  Initial cell volume =          91.368216 Angs**3

  Temperature of configuration =   0.00     K 

  Pressure of configuration =         0.000 GPa 

  Fractional coordinates of asymmetric unit :

--------------------------------------------------------------------------------
   No.  Atomic       x           y          z         Charge      Occupancy
        Label      (Frac)      (Frac)     (Frac)        (e)         (Frac)  
--------------------------------------------------------------------------------
      1 Cl    c    0.000000    0.000000    0.000000     1.48500    1.000000    
      2 O     c    0.500000    0.500000    0.500000     0.18300    1.000000    
      3 Na    c    0.500000    0.500000    0.000000     1.00000    1.000000    
      4 Cl    s    0.000000    0.000000    0.000000    -2.48500    1.000000    
      5 O     s    0.500000    0.500000    0.500000    -2.18300    1.000000    
--------------------------------------------------------------------------------


  Constraints : 

--------------------------------------------------------------------------------
  Constraint no.      Unconstrained     Constrained    Coefficient    Offset
                         Variable         Variable
--------------------------------------------------------------------------------
           1              Strain 1        Strain 2       1.00000      0.0000
           2              Strain 1        Strain 3       1.00000      0.0000
--------------------------------------------------------------------------------


********************************************************************************
*  General input information                                                   *
********************************************************************************

  Species output for all configurations : 

--------------------------------------------------------------------------------
  Species    Type    Atomic    Atomic    Charge       Radii (Angs)     Library
                     Number     Mass       (e)     Cova   Ionic  VDW   Symbol
--------------------------------------------------------------------------------
    Na       Core       11      22.99   1.000000   0.970  0.000  2.300          
    O        Core        8      16.00   0.183000   0.730  0.000  1.360          
    O        Shell       8       0.00  -2.183000   0.730  0.000  1.360          
    Cl       Core       17      35.45   1.485000   0.990  0.000  1.650          
    Cl       Shell      17       0.00  -2.485000   0.990  0.000  1.650          
    Mg       Core       12      24.31   0.415000   1.100  0.000  0.000          
    Mg       Shell      12       0.00   1.585000   1.100  0.000  0.000          
    Ca       Core       20      40.08  -1.135000   0.990  0.000  0.000          
    Ca       Shell      20       0.00   3.135000   0.990  0.000  0.000          
    Sr       Core       38      87.62  -1.251000   1.120  0.000  0.000          
    Sr       Shell      38       0.00   3.251000   1.120  0.000  0.000          
    Ba       Core       56     137.33  -7.203000   1.340  0.000  0.000          
    Ba       Shell      56       0.00   9.203000   1.340  0.000  0.000          
--------------------------------------------------------------------------------


  Lattice summation method               =    Ewald          (3-D)
                                         =    Parry          (2-D)
                                         =    Saunders et al (1-D)
  Accuracy factor for lattice sums       =   12.000


  Analytic derivatives to be used

  Time limit = Infinity

  Maximum range for interatomic potentials =    100000.000000 Angstroms

  General interatomic potentials :

--------------------------------------------------------------------------------
Atom  Types   Potential      Parameter       Value         Units   Cutoffs(Ang)
  1     2                                                            Min /  Max 
--------------------------------------------------------------------------------
O    c O    s Spring (c-s)  Spring k 2       593.71600    eV*Ang^-2 0.000  0.800
                            Spring k 4       0.0000000    eV*Ang^-4 
--------------------------------------------------------------------------------
Cl   c Cl   s Spring (c-s)  Spring k 2       29.380000    eV*Ang^-2 0.000  0.800
                            Spring k 4       0.0000000    eV*Ang^-4 
--------------------------------------------------------------------------------
Mg   c Mg   s Spring (c-s)  Spring k 2       361.60000    eV*Ang^-2 0.000  0.800
                            Spring k 4       0.0000000    eV*Ang^-4 
--------------------------------------------------------------------------------
Ca   c Ca   s Spring (c-s)  Spring k 2       110.20000    eV*Ang^-2 0.000  0.800
                            Spring k 4       0.0000000    eV*Ang^-4 
--------------------------------------------------------------------------------
Sr   c Sr   s Spring (c-s)  Spring k 2       71.700000    eV*Ang^-2 0.000  0.800
                            Spring k 4       0.0000000    eV*Ang^-4 
--------------------------------------------------------------------------------
Ba   c Ba   s Spring (c-s)  Spring k 2       495.20000    eV*Ang^-2 0.000  0.800
                            Spring k 4       0.0000000    eV*Ang^-4 
--------------------------------------------------------------------------------
Na   c Na   c Buckingham    Buckingham A     1788.1900    eV        0.000 12.000
                            Buckingham rho  0.15900000    Ang       
                            Buckingham C     0.0000000    eV*Ang^6  
--------------------------------------------------------------------------------
Na   c O    s Buckingham    Buckingham A     588.38000    eV        0.000 12.000
                            Buckingham rho  0.33800000    Ang       
                            Buckingham C     0.0000000    eV*Ang^6  
--------------------------------------------------------------------------------
Na   c Cl   s Buckingham    Buckingham A     1170.4100    eV        0.000 12.000
                            Buckingham rho  0.31500000    Ang       
                            Buckingham C     0.0000000    eV*Ang^6  
--------------------------------------------------------------------------------
O    s O    s Buckingham    Buckingham A     22764.300    eV        0.000 12.000
                            Buckingham rho  0.14900000    Ang       
                            Buckingham C     13.190000    eV*Ang^6  
--------------------------------------------------------------------------------
O    s Cl   s Buckingham    Buckingham A     8286.9100    eV        0.000 12.000
                            Buckingham rho  0.25900000    Ang       
                            Buckingham C     62.200000    eV*Ang^6  
--------------------------------------------------------------------------------
Cl   s Cl   s Buckingham    Buckingham A     1227.2000    eV        0.000 12.000
                            Buckingham rho  0.32100000    Ang       
                            Buckingham C     14.530000    eV*Ang^6  
--------------------------------------------------------------------------------
O    s Mg   s Buckingham    Buckingham A     1428.5000    eV        0.000 12.000
                            Buckingham rho  0.29450000    Ang       
                            Buckingham C     0.0000000    eV*Ang^6  
--------------------------------------------------------------------------------
Mg   s Cl   s Buckingham    Buckingham A     4914.5400    eV        0.000 12.000
                            Buckingham rho  0.25700000    Ang       
                            Buckingham C     0.0000000    eV*Ang^6  
--------------------------------------------------------------------------------
O    s Ca   s Buckingham    Buckingham A     1090.4000    eV        0.000 12.000
                            Buckingham rho  0.34370000    Ang       
                            Buckingham C     0.0000000    eV*Ang^6  
--------------------------------------------------------------------------------
Cl   s Ca   s Buckingham    Buckingham A     2302.0000    eV        0.000 12.000
                            Buckingham rho  0.34020000    Ang       
                            Buckingham C     0.0000000    eV*Ang^6  
--------------------------------------------------------------------------------
O    s Sr   s Buckingham    Buckingham A     959.10000    eV        0.000 12.000
                            Buckingham rho  0.37210000    Ang       
                            Buckingham C     0.0000000    eV*Ang^6  
--------------------------------------------------------------------------------
Cl   s Sr   s Buckingham    Buckingham A     2191.0900    eV        0.000 12.000
                            Buckingham rho  0.34570000    Ang       
                            Buckingham C     0.0000000    eV*Ang^6  
--------------------------------------------------------------------------------
O    s Ba   s Buckingham    Buckingham A     905.70000    eV        0.000 12.000
                            Buckingham rho  0.39760000    Ang       
                            Buckingham C     0.0000000    eV*Ang^6  
--------------------------------------------------------------------------------
Cl   s Ba   s Buckingham    Buckingham A     2704.5500    eV        0.000 12.000
                            Buckingham rho  0.35280000    Ang       
                            Buckingham C     0.0000000    eV*Ang^6  
--------------------------------------------------------------------------------

********************************************************************************
*  Output for configuration   1                                                *
********************************************************************************


  Components of energy : 

--------------------------------------------------------------------------------
  Interatomic potentials     =           4.94315381 eV    
  Monopole - monopole (real) =         -10.03624526 eV    
  Monopole - monopole (recip)=         -29.53581274 eV    
  Monopole - monopole (total)=         -39.57205800 eV    
--------------------------------------------------------------------------------
  Total lattice energy       =         -34.62890419 eV    
--------------------------------------------------------------------------------
  Total lattice energy       =           -3341.1599 kJ/(mole unit cells)
--------------------------------------------------------------------------------


  Number of variables =        1

  Maximum number of calculations  =          1000
  Maximum Hessian update interval =            10
  Maximum step size               =   1.000000000
  Maximum parameter tolerance     =   0.000010000
  Maximum function  tolerance     =   0.000010000
  Maximum gradient  tolerance     =   0.001000000
  Maximum gradient  component     =   0.010000000

  Symmetry constrained optimisation

  Symmetry used for second derivatives

  Cell parameters to be optimised using strains

  Newton-Raphson optimiser to be used

  BFGS hessian update to be used

  Lower half triangular hessian to be used

  Start of bulk optimisation :

  Cycle:      0 Energy:       -34.628904  Gnorm:      4.328237  CPU:    0.011
  ** Hessian calculated **
  Cycle:      1 Energy:       -34.677667  Gnorm:      0.044008  CPU:    0.013
  Cycle:      2 Energy:       -34.677671  Gnorm:      0.003653  CPU:    0.014


  **** Optimisation achieved ****


  Final energy =     -34.67767136 eV
  Final Gnorm  =       0.00000010

  Components of energy : 

--------------------------------------------------------------------------------
  Interatomic potentials     =           5.77546103 eV    
  Monopole - monopole (real) =         -10.25970290 eV    
  Monopole - monopole (recip)=         -30.19342950 eV    
  Monopole - monopole (total)=         -40.45313239 eV    
--------------------------------------------------------------------------------
  Total lattice energy       =         -34.67767136 eV    
--------------------------------------------------------------------------------
  Total lattice energy       =           -3345.8652 kJ/(mole unit cells)
--------------------------------------------------------------------------------

  Final asymmetric unit coordinates :

--------------------------------------------------------------------------------
   No.  Atomic        x           y           z         Radius
        Label       (Frac)      (Frac)      (Frac)       (Angs) 
--------------------------------------------------------------------------------
     1  Cl    c     0.000000    0.000000    0.000000    0.000000
     2  O     c     0.500000    0.500000    0.500000    0.000000
     3  Na    c     0.500000    0.500000    0.000000    0.000000
     4  Cl    s     0.000000    0.000000    0.000000    0.000000
     5  O     s     0.500000    0.500000    0.500000    0.000000
--------------------------------------------------------------------------------

  Final Cartesian lattice vectors (Angstroms) :

        4.405902    0.000000    0.000000
        0.000000    4.405902    0.000000
        0.000000    0.000000    4.405902


  Final cell parameters and derivatives :

--------------------------------------------------------------------------------
       a            4.405902 Angstrom     dE/de1(xx)     0.000000 eV/strain
       b            4.405902 Angstrom     dE/de2(yy)     0.000000 eV/strain
       c            4.405902 Angstrom     dE/de3(zz)     0.000000 eV/strain
       alpha       90.000000 Degrees      dE/de4(yz)     0.000000 eV/strain
       beta        90.000000 Degrees      dE/de5(xz)     0.000000 eV/strain
       gamma       90.000000 Degrees      dE/de6(xy)     0.000000 eV/strain
--------------------------------------------------------------------------------

  Primitive cell volume =            85.527266 Angs**3

  Density of cell =      2.338030 g/cm**3

  Non-primitive cell volume =            85.527266 Angs**3


  Final internal derivatives :

--------------------------------------------------------------------------------
   No.  Atomic          a             b             c           Radius
        Label          (eV)          (eV)          (eV)        (eV/Angs)
--------------------------------------------------------------------------------
      1 Cl    c       0.000000      0.000000      0.000000      0.000000
      2 O     c       0.000000      0.000000      0.000000      0.000000
      3 Na    c       0.000000      0.000000      0.000000      0.000000
      4 Cl    s       0.000000      0.000000      0.000000      0.000000
      5 O     s       0.000000      0.000000      0.000000      0.000000
--------------------------------------------------------------------------------
  Maximum abs         0.000000      0.000000      0.000000      0.000000
--------------------------------------------------------------------------------

  Comparison of initial and final structures : 

--------------------------------------------------------------------------------
  Parameter   Initial value   Final value   Difference    Units      Percent
--------------------------------------------------------------------------------
    Volume        91.368216     85.527266    -5.840950    Angs**3     -6.39
    a              4.504000      4.405902    -0.098098    Angstroms   -2.18
    b              4.504000      4.405902    -0.098098    Angstroms   -2.18
    c              4.504000      4.405902    -0.098098    Angstroms   -2.18
    alpha         90.000000     90.000000     0.000000    Degrees      0.00
    beta          90.000000     90.000000     0.000000    Degrees      0.00
    gamma         90.000000     90.000000     0.000000    Degrees      0.00
      1 x          0.000000      0.000000     0.000000    Fractional   0.00
      1 y          0.000000      0.000000     0.000000    Fractional   0.00
      1 z          0.000000      0.000000     0.000000    Fractional   0.00
      2 x          0.500000      0.500000     0.000000    Fractional   0.00
      2 y          0.500000      0.500000     0.000000    Fractional   0.00
      2 z          0.500000      0.500000     0.000000    Fractional   0.00
      3 x          0.500000      0.500000     0.000000    Fractional   0.00
      3 y          0.500000      0.500000     0.000000    Fractional   0.00
      3 z          0.000000      0.000000     0.000000    Fractional   0.00
      4 x          0.000000      0.000000     0.000000    Fractional   0.00
      4 y          0.000000      0.000000     0.000000    Fractional   0.00
      4 z          0.000000      0.000000     0.000000    Fractional   0.00
      5 x          0.500000      0.500000     0.000000    Fractional   0.00
      5 y          0.500000      0.500000     0.000000    Fractional   0.00
      5 z          0.500000      0.500000     0.000000    Fractional   0.00
--------------------------------------------------------------------------------


  Born effective charge tensors : 

-------------------------------------------------------------------------------
  Atom             x           y             z
-------------------------------------------------------------------------------
    1 Cl    x      -0.9918     -0.0000     -0.0000
            y      -0.0000     -0.9918     -0.0000
            z      -0.0000     -0.0000     -0.9918
-------------------------------------------------------------------------------
    2 O     x      -2.2939      0.0000      0.0000
            y       0.0000     -2.2939      0.0000
            z       0.0000      0.0000     -2.2939
-------------------------------------------------------------------------------
    3 Na    x       1.2243      0.0000      0.0000
            y       0.0000      1.2243     -0.0000
            z       0.0000      0.0000      0.8372
-------------------------------------------------------------------------------




  Elastic Constant Matrix: (Units=GPa)

-------------------------------------------------------------------------------
  Indices      1         2         3         4         5         6    
-------------------------------------------------------------------------------
       1     82.7680   24.3534   24.3534   -0.0000    0.0000   -0.0000
       2     24.3534   82.7680   24.3534    0.0000   -0.0000   -0.0000
       3     24.3534   24.3534   82.7680    0.0000   -0.0000    0.0000
       4     -0.0000    0.0000    0.0000   24.3534   -0.0000    0.0000
       5      0.0000   -0.0000   -0.0000   -0.0000   24.3534    0.0000
       6     -0.0000   -0.0000    0.0000    0.0000    0.0000   24.3534
-------------------------------------------------------------------------------


  Elastic Compliance Matrix: (Units=1/GPa)

-------------------------------------------------------------------------------
  Indices      1         2         3         4         5         6    
-------------------------------------------------------------------------------
       1    0.013948 -0.003171 -0.003171  0.000000 -0.000000  0.000000
       2   -0.003171  0.013948 -0.003171 -0.000000  0.000000 -0.000000
       3   -0.003171 -0.003171  0.013948 -0.000000  0.000000 -0.000000
       4    0.000000 -0.000000 -0.000000  0.041062  0.000000 -0.000000
       5   -0.000000  0.000000  0.000000  0.000000  0.041062 -0.000000
       6    0.000000 -0.000000 -0.000000 -0.000000 -0.000000  0.041062
-------------------------------------------------------------------------------

  Mechanical properties :

-------------------------------------------------------------------------------
  Convention :                    Reuss         Voigt         Hill
-------------------------------------------------------------------------------
  Bulk  Modulus (GPa)     =      43.82493      43.82493      43.82493
  Shear Modulus (GPa)     =      26.08758      26.29496      26.19127
-------------------------------------------------------------------------------
  Velocity S-wave (km/s)  =       3.34035       3.35360       3.34698
  Velocity P-wave (km/s)  =       5.79842       5.80861       5.80351
-------------------------------------------------------------------------------
  Compressibility (1/GPa) =    0.02281806
-------------------------------------------------------------------------------
  Stress axis :                     x             y             z
-------------------------------------------------------------------------------
  Youngs Moduli (GPa)     =      71.69479      71.69479      71.69479
-------------------------------------------------------------------------------
  Poissons Ratio (x)      =                     0.22734       0.22734
  Poissons Ratio (y)      =       0.22734                     0.22734
  Poissons Ratio (z)      =       0.22734       0.22734
-------------------------------------------------------------------------------


  Piezoelectric Strain Matrix: (Units=C/m**2)

-------------------------------------------------------------------------------
  Indices      1         2         3         4         5         6    
-------------------------------------------------------------------------------
       x    -0.00000  -0.00000  -0.00000  -0.00000   0.00000  -0.00000
       y     0.00000  -0.00000   0.00000   0.00000  -0.00000   0.00000
       z    -0.00000  -0.00000   0.00000  -0.00000   0.00000  -0.00000
-------------------------------------------------------------------------------


  Piezoelectric Stress Matrix: (Units=10**-11 C/N)

-------------------------------------------------------------------------------
  Indices      1         2         3         4         5         6    
-------------------------------------------------------------------------------
       x     0.00000  -0.00000  -0.00000  -0.00000   0.00000  -0.00000
       y     0.00000  -0.00000   0.00000   0.00000  -0.00000   0.00000
       z    -0.00000  -0.00000   0.00000  -0.00000   0.00000  -0.00000
-------------------------------------------------------------------------------


  Static dielectric constant tensor : 

-------------------------------------------------------------------------------
              x         y         z
-------------------------------------------------------------------------------
       x    11.08357   0.00000   0.00000
       y     0.00000  11.08357   0.00000
       z     0.00000   0.00000  11.08357
--------------------------------------------------------------------------------

  High frequency dielectric constant tensor : 

-------------------------------------------------------------------------------
              x         y         z
-------------------------------------------------------------------------------
       x     1.50771   0.00000   0.00000
       y     0.00000   1.50771   0.00000
       z     0.00000   0.00000   1.50771
-------------------------------------------------------------------------------

  Static refractive indices : 

-------------------------------------------------------------------------------
    1 =    3.32920      2 =    3.32920      3 =    3.32920
-------------------------------------------------------------------------------

  High frequency refractive indices : 

-------------------------------------------------------------------------------
    1 =    1.22789      2 =    1.22789      3 =    1.22789
-------------------------------------------------------------------------------


  Time to end of optimisation =       0.0187 seconds

********************************************************************************
*  Defect calculation for configuration   1 :                                  *
********************************************************************************

  Total number of defects =      1

  Total charge on defect  =   1.00

  Defect centre is at   0.5000   0.5000   0.0000  Frac

  Region 1 radius =  17.0000      Number of ions =   1660

  Number of symmetry inequivalent region 1 ions  =    166

  Region 2 radius =  24.0000      Number of ions =   3116

  Number of symmetry inequivalent region 2a ions =    249

  Region 2a mode = 4 : screened electrostatics due to region 1 
                       neglect correction to region 1 forces from 2a
                       region 2a displacements based on defects only

  Region 2a ions will only interact with defects in region 1

  Impurities:

--------------------------------------------------------------------------------
    Specification type     Symbol/Number         x          y          z
--------------------------------------------------------------------------------
    Frac/Symbol             Mg               0.500000   0.500000   0.000000
--------------------------------------------------------------------------------


  Symmetry reduced region 1 (Relative to defect centre) :

--------------------------------------------------------------------------------
   No.   Atomic       x            y             z       Radius  Multiplicity   
         Label      (Angs)       (Angs)        (Angs)    (Angs)     
--------------------------------------------------------------------------------
     1  Mg    c      0.0000       0.0000       0.0000    0.0000     1    Defect
     2  O     c      0.0000       0.0000      -2.2030 *  0.0000     2          
     3  Cl    c      2.2030 *     2.2030       0.0000    0.0000     4          
     4  Na    c      2.2030 *     0.0000      -2.2030 *  0.0000     8          
     5  Na    c      0.0000       0.0000       4.4059 *  0.0000     2          
     6  Na    c      0.0000       4.4059 *     0.0000    0.0000     4          
     7  O     c      0.0000       4.4059 *    -2.2030 *  0.0000     8          
     8  Na    c      2.2030 *     4.4059 *    -2.2030 *  0.0000    16          
     9  Cl    c      2.2030 *     2.2030       4.4059 *  0.0000     8          
    10  Na    c      0.0000       4.4059 *     4.4059 *  0.0000     8          
    11  Na    c      4.4059 *     4.4059       0.0000    0.0000     4          
    12  O     c      0.0000       0.0000       6.6089 *  0.0000     2          
    13  O     c      4.4059 *     4.4059      -2.2030 *  0.0000     8          
    14  Cl    c      2.2030 *     6.6089 *     0.0000    0.0000     8          
    15  Na    c      2.2030 *     0.0000       6.6089 *  0.0000     8          
    16  Na    c      6.6089 *     0.0000      -2.2030 *  0.0000     8          
    17  Na    c      4.4059 *     4.4059       4.4059 *  0.0000     8          
    18  O     c      0.0000       4.4059 *     6.6089 *  0.0000     8          
    19  Cl    c      2.2030 *     6.6089 *     4.4059 *  0.0000    16          
    20  Na    c      2.2030 *     4.4059 *     6.6089 *  0.0000    16          
    21  Na    c      6.6089 *     4.4059 *    -2.2030 *  0.0000    16          
    22  Na    c      0.0000       0.0000       8.8118 *  0.0000     2          
    23  Na    c      0.0000       8.8118 *     0.0000    0.0000     4          
    24  O     c      4.4059 *     4.4059       6.6089 *  0.0000     8          
    25  O     c      0.0000       8.8118 *    -2.2030 *  0.0000     8          
    26  Cl    c      2.2030 *     2.2030       8.8118 *  0.0000     8          
    27  Cl    c      6.6089 *     6.6089       0.0000    0.0000     4          
    28  Na    c      6.6089 *     0.0000       6.6089 *  0.0000     8          
    29  Na    c      2.2030 *     8.8118 *    -2.2030 *  0.0000    16          
    30  Na    c      0.0000       4.4059 *     8.8118 *  0.0000     8          
    31  Na    c      0.0000       8.8118 *     4.4059 *  0.0000     8          
    32  Na    c      4.4059 *     8.8118 *     0.0000    0.0000     8          
    33  O     c      4.4059 *     8.8118 *    -2.2030 *  0.0000    16          
    34  Cl    c      6.6089 *     6.6089       4.4059 *  0.0000     8          
    35  Na    c      6.6089 *     4.4059 *     6.6089 *  0.0000    16          
    36  Na    c      4.4059 *     8.8118 *     4.4059 *  0.0000    16          
    37  Na    c      4.4059 *     4.4059       8.8118 *  0.0000     8          
    38  O     c      0.0000       0.0000      11.0148 *  0.0000     2          
    39  O     c      0.0000       8.8118 *     6.6089 *  0.0000     8          
    40  Cl    c      2.2030 *     6.6089 *     8.8118 *  0.0000    16          
    41  Cl    c      2.2030 *    11.0148 *     0.0000    0.0000     8          
    42  Na    c      2.2030 *     0.0000      11.0148 *  0.0000     8          
    43  Na    c      2.2030 *     8.8118 *     6.6089 *  0.0000    16          
    44  Na    c     11.0148 *     0.0000      -2.2030 *  0.0000     8          
    45  Na    c      6.6089 *     8.8118 *    -2.2030 *  0.0000    16          
    46  O     c      0.0000       4.4059 *    11.0148 *  0.0000     8          
    47  O     c      4.4059 *     8.8118 *     6.6089 *  0.0000    16          
    48  Cl    c      2.2030 *    11.0148 *     4.4059 *  0.0000    16          
    49  Na    c      2.2030 *     4.4059 *    11.0148 *  0.0000    16          
    50  Na    c     11.0148 *     4.4059 *    -2.2030 *  0.0000    16          
    51  Na    c      0.0000       8.8118 *     8.8118 *  0.0000     8          
    52  Na    c      8.8118 *     8.8118       0.0000    0.0000     4          
    53  O     c      4.4059 *     4.4059      11.0148 *  0.0000     8          
    54  O     c      8.8118 *     8.8118      -2.2030 *  0.0000     8          
    55  Cl    c      6.6089 *     6.6089       8.8118 *  0.0000     8          
    56  Cl    c      6.6089 *    11.0148 *     0.0000    0.0000     8          
    57  Na    c      6.6089 *     0.0000      11.0148 *  0.0000     8          
    58  Na    c     11.0148 *     0.0000       6.6089 *  0.0000     8          
    59  Na    c      6.6089 *     8.8118 *     6.6089 *  0.0000    16          
    60  Na    c      0.0000       0.0000      13.2177 *  0.0000     2          
    61  Na    c      0.0000      13.2177 *     0.0000    0.0000     4          
    62  Na    c      4.4059 *     8.8118 *     8.8118 *  0.0000    16          
    63  Na    c      8.8118 *     8.8118       4.4059 *  0.0000     8          
    64  O     c      0.0000      13.2177 *    -2.2030 *  0.0000     8          
    65  Cl    c      6.6089 *    11.0148 *     4.4059 *  0.0000    16          
    66  Na    c      2.2030 *    13.2177 *    -2.2030 *  0.0000    16          
    67  Cl    c      2.2030 *     2.2030      13.2177 *  0.0000     8          
    68  Na    c      6.6089 *     4.4059 *    11.0148 *  0.0000    16          
    69  Na    c     11.0148 *     4.4059 *     6.6089 *  0.0000    16          
    70  Na    c      0.0000       4.4059 *    13.2177 *  0.0000     8          
    71  Na    c      0.0000      13.2177 *     4.4059 *  0.0000     8          
    72  Na    c      4.4059 *    13.2177 *     0.0000    0.0000     8          
    73  O     c      4.4059 *    13.2177 *    -2.2030 *  0.0000    16          
    74  O     c      0.0000       8.8118 *    11.0148 *  0.0000     8          
    75  O     c      8.8118 *     8.8118       6.6089 *  0.0000     8          
    76  Cl    c      2.2030 *    11.0148 *     8.8118 *  0.0000    16          
    77  Na    c      2.2030 *     8.8118 *    11.0148 *  0.0000    16          
    78  Na    c     11.0148 *     8.8118 *    -2.2030 *  0.0000    16          
    79  Na    c      4.4059 *    13.2177 *     4.4059 *  0.0000    16          
    80  Na    c      4.4059 *     4.4059      13.2177 *  0.0000     8          
    81  O     c      4.4059 *     8.8118 *    11.0148 *  0.0000    16          
    82  O     c      0.0000      13.2177 *     6.6089 *  0.0000     8          
    83  Cl    c      2.2030 *     6.6089 *    13.2177 *  0.0000    16          
    84  Na    c      2.2030 *    13.2177 *     6.6089 *  0.0000    16          
    85  Na    c      6.6089 *    13.2177 *    -2.2030 *  0.0000    16          
    86  Na    c      8.8118 *     8.8118       8.8118 *  0.0000     8          
    87  O     c      0.0000       0.0000      15.4207 *  0.0000     2          
    88  O     c      4.4059 *    13.2177 *     6.6089 *  0.0000    16          
    89  Cl    c      2.2030 *    15.4207 *     0.0000    0.0000     8          
    90  Cl    c      6.6089 *    11.0148 *     8.8118 *  0.0000    16          
    91  Cl    c     11.0148 *    11.0148       0.0000    0.0000     4          
    92  Na    c      2.2030 *     0.0000      15.4207 *  0.0000     8          
    93  Na    c     11.0148 *     0.0000      11.0148 *  0.0000     8          
    94  Na    c     15.4207 *     0.0000      -2.2030 *  0.0000     8          
    95  Na    c      6.6089 *     8.8118 *    11.0148 *  0.0000    16          
    96  Na    c     11.0148 *     8.8118 *     6.6089 *  0.0000    16          
    97  Na    c      0.0000       8.8118 *    13.2177 *  0.0000     8          
    98  Na    c      0.0000      13.2177 *     8.8118 *  0.0000     8          
    99  Na    c      8.8118 *    13.2177 *     0.0000    0.0000     8          
   100  O     c      0.0000       4.4059 *    15.4207 *  0.0000     8          
   101  O     c      8.8118 *    13.2177 *    -2.2030 *  0.0000    16          
   102  Cl    c      2.2030 *    15.4207 *     4.4059 *  0.0000    16          
   103  Cl    c      6.6089 *     6.6089      13.2177 *  0.0000     8          
   104  Cl    c     11.0148 *    11.0148       4.4059 *  0.0000     8          
   105  Na    c      2.2030 *     4.4059 *    15.4207 *  0.0000    16          
   106  Na    c      6.6089 *    13.2177 *     6.6089 *  0.0000    16          
   107  Na    c     11.0148 *     4.4059 *    11.0148 *  0.0000    16          
   108  Na    c     15.4207 *     4.4059 *    -2.2030 *  0.0000    16          
   109  Na    c      4.4059 *     8.8118 *    13.2177 *  0.0000    16          
   110  Na    c      4.4059 *    13.2177 *     8.8118 *  0.0000    16          
   111  Na    c      8.8118 *    13.2177 *     4.4059 *  0.0000    16          
   112  O     c      4.4059 *     4.4059      15.4207 *  0.0000     8          
   113  O     c      8.8118 *     8.8118      11.0148 *  0.0000     8          
   114  Cl    c      6.6089 *    15.4207 *     0.0000    0.0000     8          
   115  Na    c      6.6089 *     0.0000      15.4207 *  0.0000     8          
   116  Na    c     15.4207 *     0.0000       6.6089 *  0.0000     8          
   117  Mg    s      0.0000       0.0000       0.0000    0.0000     1    Defect
   118  O     s      0.0000       0.0000      -2.2030 *  0.0000     2          
   119  Cl    s      2.2030 *     2.2030       0.0000    0.0000     4          
   120  O     s      0.0000       4.4059 *    -2.2030 *  0.0000     8          
   121  Cl    s      2.2030 *     2.2030       4.4059 *  0.0000     8          
   122  O     s      0.0000       0.0000       6.6089 *  0.0000     2          
   123  O     s      4.4059 *     4.4059      -2.2030 *  0.0000     8          
   124  Cl    s      2.2030 *     6.6089 *     0.0000    0.0000     8          
   125  O     s      0.0000       4.4059 *     6.6089 *  0.0000     8          
   126  Cl    s      2.2030 *     6.6089 *     4.4059 *  0.0000    16          
   127  O     s      4.4059 *     4.4059       6.6089 *  0.0000     8          
   128  O     s      0.0000       8.8118 *    -2.2030 *  0.0000     8          
   129  Cl    s      2.2030 *     2.2030       8.8118 *  0.0000     8          
   130  Cl    s      6.6089 *     6.6089       0.0000    0.0000     4          
   131  O     s      4.4059 *     8.8118 *    -2.2030 *  0.0000    16          
   132  Cl    s      6.6089 *     6.6089       4.4059 *  0.0000     8          
   133  O     s      0.0000       0.0000      11.0148 *  0.0000     2          
   134  O     s      0.0000       8.8118 *     6.6089 *  0.0000     8          
   135  Cl    s      2.2030 *     6.6089 *     8.8118 *  0.0000    16          
   136  Cl    s      2.2030 *    11.0148 *     0.0000    0.0000     8          
   137  O     s      0.0000       4.4059 *    11.0148 *  0.0000     8          
   138  O     s      4.4059 *     8.8118 *     6.6089 *  0.0000    16          
   139  Cl    s      2.2030 *    11.0148 *     4.4059 *  0.0000    16          
   140  O     s      4.4059 *     4.4059      11.0148 *  0.0000     8          
   141  O     s      8.8118 *     8.8118      -2.2030 *  0.0000     8          
   142  Cl    s      6.6089 *     6.6089       8.8118 *  0.0000     8          
   143  Cl    s      6.6089 *    11.0148 *     0.0000    0.0000     8          
   144  O     s      0.0000      13.2177 *    -2.2030 *  0.0000     8          
   145  Cl    s      6.6089 *    11.0148 *     4.4059 *  0.0000    16          
   146  Cl    s      2.2030 *     2.2030      13.2177 *  0.0000     8          
   147  O     s      4.4059 *    13.2177 *    -2.2030 *  0.0000    16          
   148  O     s      0.0000       8.8118 *    11.0148 *  0.0000     8          
   149  O     s      8.8118 *     8.8118       6.6089 *  0.0000     8          
   150  Cl    s      2.2030 *    11.0148 *     8.8118 *  0.0000    16          
   151  O     s      4.4059 *     8.8118 *    11.0148 *  0.0000    16          
   152  O     s      0.0000      13.2177 *     6.6089 *  0.0000     8          
   153  Cl    s      2.2030 *     6.6089 *    13.2177 *  0.0000    16          
   154  O     s      0.0000       0.0000      15.4207 *  0.0000     2          
   155  O     s      4.4059 *    13.2177 *     6.6089 *  0.0000    16          
   156  Cl    s      2.2030 *    15.4207 *     0.0000    0.0000     8          
   157  Cl    s      6.6089 *    11.0148 *     8.8118 *  0.0000    16          
   158  Cl    s     11.0148 *    11.0148       0.0000    0.0000     4          
   159  O     s      0.0000       4.4059 *    15.4207 *  0.0000     8          
   160  O     s      8.8118 *    13.2177 *    -2.2030 *  0.0000    16          
   161  Cl    s      2.2030 *    15.4207 *     4.4059 *  0.0000    16          
   162  Cl    s      6.6089 *     6.6089      13.2177 *  0.0000     8          
   163  Cl    s     11.0148 *    11.0148       4.4059 *  0.0000     8          
   164  O     s      4.4059 *     4.4059      15.4207 *  0.0000     8          
   165  O     s      8.8118 *     8.8118      11.0148 *  0.0000     8          
   166  Cl    s      6.6089 *    15.4207 *     0.0000    0.0000     8          
--------------------------------------------------------------------------------


  Constraints on symmetry reduced coordinates :

--------------------------------------------------------------------------------
  Constraint no.      Unconstrained     Constrained    Coefficient    
                         Variable         Variable
--------------------------------------------------------------------------------
           1                 3 x             3 y         1.00000
           2                 9 x             9 y         1.00000
           3                11 x            11 y         1.00000
           4                13 x            13 y         1.00000
           5                17 x            17 y         1.00000
           6                24 x            24 y         1.00000
           7                26 x            26 y         1.00000
           8                27 x            27 y         1.00000
           9                34 x            34 y         1.00000
          10                37 x            37 y         1.00000
          11                52 x            52 y         1.00000
          12                53 x            53 y         1.00000
          13                54 x            54 y         1.00000
          14                55 x            55 y         1.00000
          15                63 x            63 y         1.00000
          16                67 x            67 y         1.00000
          17                75 x            75 y         1.00000
          18                80 x            80 y         1.00000
          19                86 x            86 y         1.00000
          20                91 x            91 y         1.00000
          21               103 x           103 y         1.00000
          22               104 x           104 y         1.00000
          23               112 x           112 y         1.00000
          24               113 x           113 y         1.00000
          25               119 x           119 y         1.00000
          26               121 x           121 y         1.00000
          27               123 x           123 y         1.00000
          28               127 x           127 y         1.00000
          29               129 x           129 y         1.00000
          30               130 x           130 y         1.00000
          31               132 x           132 y         1.00000
          32               140 x           140 y         1.00000
          33               141 x           141 y         1.00000
          34               142 x           142 y         1.00000
          35               146 x           146 y         1.00000
          36               149 x           149 y         1.00000
          37               158 x           158 y         1.00000
          38               162 x           162 y         1.00000
          39               163 x           163 y         1.00000
          40               164 x           164 y         1.00000
          41               165 x           165 y         1.00000
--------------------------------------------------------------------------------


  Components of defect energy : 

--------------------------------------------------------------------------------
  Region 1 - region 1                   =      8.88066014 eV
  Region 1 - region 2a (unrelaxed)      =    -19.68954213 eV
  Region 1 - 2a (relaxed - correction)  =     -0.22938403 eV
  Region 1 (Total)                      =    -11.03826602 eV
  Region 2a                             =      0.11470605 eV
  Region 2b                             =     -0.27216525 eV
--------------------------------------------------------------------------------
  Total defect energy                   =    -11.19572522 eV
--------------------------------------------------------------------------------

  Largest displacement in region 2 =   0.0078 Angstroms


  Number of variables =      363

  Maximum number of calculations  =        1000
  Maximum Hessian update interval =          10
  Maximum step size               =   1.0000000
  Maximum parameter tolerance     =   0.0000100
  Maximum function  tolerance     =   0.0000100
  Maximum gradient  tolerance     =   0.0010000

  Symmetry adapted optimisation

  Symmetry to be used for second derivatives

  Newton-Raphson optimiser to be used

  BFGS hessian update to be used

  Lower half triangular hessian to be used

  Start of defect optimisation :

  Cycle:      0 Defect Energy: -11.195725  Gnorm:     0.119646  CPU:   12.363
  ** Hessian calculated **
  Cycle:      1 Defect Energy: -14.845483  Gnorm:     0.073792  CPU:   22.849
  ** Hessian calculated **
  Cycle:      2 Defect Energy: -16.259142  Gnorm:     0.004666  CPU:   29.962
  Cycle:      3 Defect Energy: -16.282319  Gnorm:     0.002401  CPU:   30.766
  Cycle:      4 Defect Energy: -16.286516  Gnorm:     0.001626  CPU:   31.628
  Cycle:      5 Defect Energy: -16.288775  Gnorm:     0.001121  CPU:   32.525
  Cycle:      6 Defect Energy: -16.289873  Gnorm:     0.000781  CPU:   33.428
  Cycle:      7 Defect Energy: -16.290405  Gnorm:     0.000546  CPU:   34.252
  Cycle:      8 Defect Energy: -16.290660  Gnorm:     0.000384  CPU:   35.059
  Cycle:      9 Defect Energy: -16.290781  Gnorm:     0.000270  CPU:   35.836
  Cycle:     10 Defect Energy: -16.290837  Gnorm:     0.000192  CPU:   36.716
  Cycle:     11 Defect Energy: -16.290862  Gnorm:     0.000138  CPU:   37.304
  ** Hessian calculated **
  Cycle:     12 Defect Energy: -16.290872  Gnorm:     0.000100  CPU:   43.574


  **** Optimisation achieved ****


  Final defect energy  =      -16.29087575
  Final defect Gnorm   =        0.00007115

  Components of defect energy : 

--------------------------------------------------------------------------------
  Region 1 - region 1                   =      2.11837230 eV
  Region 1 - region 2a (unrelaxed)      =    -18.03665360 eV
  Region 1 - 2a (relaxed - correction)  =     -0.20084273 eV
  Region 1 (Total)                      =    -16.11912403 eV
  Region 2a                             =      0.10041353 eV
  Region 2b                             =     -0.27216525 eV
--------------------------------------------------------------------------------
  Total defect energy                   =    -16.29087575 eV
--------------------------------------------------------------------------------

  Largest displacement in region 2 =   0.0078 Angstroms

  Final coordinates of region 1 :

--------------------------------------------------------------------------------
   No.  Atomic        x           y           z          Radius      Charge
        Label       (Angs)      (Angs)      (Angs)       (Angs)       (e) 
--------------------------------------------------------------------------------
     1  Mg    c     2.202951    2.202951    0.000000    0.000000    0.415000
     2  O     c     2.202951    2.202951   -1.870084    0.000000    0.183000
     3  O     c     2.202951    2.202951    1.870084    0.000000    0.183000
     4  Cl    c     4.144953    4.144953    0.000000    0.000000    1.485000
     5  Cl    c     4.144953    0.260950    0.000000    0.000000    1.485000
     6  Cl    c     0.260950    4.144953    0.000000    0.000000    1.485000
     7  Cl    c     0.260950    0.260950    0.000000    0.000000    1.485000
     8  Na    c     4.457210    2.202951   -2.202560    0.000000    1.000000
     9  Na    c     4.457210    2.202951    2.202560    0.000000    1.000000
    10  Na    c    -0.051307    2.202951   -2.202560    0.000000    1.000000
    11  Na    c    -0.051307    2.202951    2.202560    0.000000    1.000000
    12  Na    c     2.202951    4.457210   -2.202560    0.000000    1.000000
    13  Na    c     2.202951    4.457210    2.202560    0.000000    1.000000
    14  Na    c     2.202951   -0.051307   -2.202560    0.000000    1.000000
    15  Na    c     2.202951   -0.051307    2.202560    0.000000    1.000000
    16  Na    c     2.202951    2.202951    4.331612    0.000000    1.000000
    17  Na    c     2.202951    2.202951   -4.331612    0.000000    1.000000
    18  Na    c     2.202951    6.622919    0.000000    0.000000    1.000000
    19  Na    c     2.202951   -2.217017    0.000000    0.000000    1.000000
    20  Na    c     6.622919    2.202951    0.000000    0.000000    1.000000
    21  Na    c    -2.217017    2.202951    0.000000    0.000000    1.000000
    22  O     c     2.202951    6.641244   -2.196855    0.000000    0.183000
    23  O     c     2.202951    6.641244    2.196855    0.000000    0.183000
    24  O     c     2.202951   -2.235342   -2.196855    0.000000    0.183000
    25  O     c     2.202951   -2.235342    2.196855    0.000000    0.183000
    26  O     c     6.641244    2.202951   -2.196855    0.000000    0.183000
    27  O     c     6.641244    2.202951    2.196855    0.000000    0.183000
    28  O     c    -2.235342    2.202951   -2.196855    0.000000    0.183000
    29  O     c    -2.235342    2.202951    2.196855    0.000000    0.183000
    30  Na    c     4.404306    6.651578   -2.230730    0.000000    1.000000
    31  Na    c     4.404306    6.651578    2.230730    0.000000    1.000000
    32  Na    c     4.404306   -2.245676   -2.230730    0.000000    1.000000
    33  Na    c     4.404306   -2.245676    2.230730    0.000000    1.000000
    34  Na    c     0.001596    6.651578   -2.230730    0.000000    1.000000
    35  Na    c     0.001596    6.651578    2.230730    0.000000    1.000000
    36  Na    c     0.001596   -2.245676   -2.230730    0.000000    1.000000
    37  Na    c     0.001596   -2.245676    2.230730    0.000000    1.000000
    38  Na    c     6.651578    4.404306   -2.230730    0.000000    1.000000
    39  Na    c     6.651578    4.404306    2.230730    0.000000    1.000000
    40  Na    c     6.651578    0.001596   -2.230730    0.000000    1.000000
    41  Na    c     6.651578    0.001596    2.230730    0.000000    1.000000
    42  Na    c    -2.245676    4.404306   -2.230730    0.000000    1.000000
    43  Na    c    -2.245676    4.404306    2.230730    0.000000    1.000000
    44  Na    c    -2.245676    0.001596   -2.230730    0.000000    1.000000
    45  Na    c    -2.245676    0.001596    2.230730    0.000000    1.000000
    46  Cl    c     4.340412    4.340412    4.313700    0.000000    1.485000
    47  Cl    c     4.340412    4.340412   -4.313700    0.000000    1.485000
    48  Cl    c     4.340412    0.065491    4.313700    0.000000    1.485000
    49  Cl    c     4.340412    0.065491   -4.313700    0.000000    1.485000
    50  Cl    c     0.065491    4.340412    4.313700    0.000000    1.485000
    51  Cl    c     0.065491    4.340412   -4.313700    0.000000    1.485000
    52  Cl    c     0.065491    0.065491    4.313700    0.000000    1.485000
    53  Cl    c     0.065491    0.065491   -4.313700    0.000000    1.485000
    54  Na    c     2.202951    6.661844    4.404180    0.000000    1.000000
    55  Na    c     2.202951    6.661844   -4.404180    0.000000    1.000000
    56  Na    c     2.202951   -2.255942    4.404180    0.000000    1.000000
    57  Na    c     2.202951   -2.255942   -4.404180    0.000000    1.000000
    58  Na    c     6.661844    2.202951    4.404180    0.000000    1.000000
    59  Na    c     6.661844    2.202951   -4.404180    0.000000    1.000000
    60  Na    c    -2.255942    2.202951    4.404180    0.000000    1.000000
    61  Na    c    -2.255942    2.202951   -4.404180    0.000000    1.000000
    62  Na    c     6.668518    6.668518    0.000000    0.000000    1.000000
    63  Na    c     6.668518   -2.262616    0.000000    0.000000    1.000000
    64  Na    c    -2.262616    6.668518    0.000000    0.000000    1.000000
    65  Na    c    -2.262616   -2.262616    0.000000    0.000000    1.000000
    66  O     c     2.202951    2.202951    6.550991    0.000000    0.183000
    67  O     c     2.202951    2.202951   -6.550991    0.000000    0.183000
    68  O     c     6.598211    6.598211   -2.194127    0.000000    0.183000
    69  O     c     6.598211    6.598211    2.194127    0.000000    0.183000
    70  O     c     6.598211   -2.192308   -2.194127    0.000000    0.183000
    71  O     c     6.598211   -2.192308    2.194127    0.000000    0.183000
    72  O     c    -2.192308    6.598211   -2.194127    0.000000    0.183000
    73  O     c    -2.192308    6.598211    2.194127    0.000000    0.183000
    74  O     c    -2.192308   -2.192308   -2.194127    0.000000    0.183000
    75  O     c    -2.192308   -2.192308    2.194127    0.000000    0.183000
    76  Cl    c     4.414088    8.787509    0.000000    0.000000    1.485000
    77  Cl    c     4.414088   -4.381607    0.000000    0.000000    1.485000
    78  Cl    c     8.787509    4.414088    0.000000    0.000000    1.485000
    79  Cl    c     8.787509   -0.008185    0.000000    0.000000    1.485000
    80  Cl    c    -0.008185    8.787509    0.000000    0.000000    1.485000
    81  Cl    c    -0.008185   -4.381607    0.000000    0.000000    1.485000
    82  Cl    c    -4.381607    4.414088    0.000000    0.000000    1.485000
    83  Cl    c    -4.381607   -0.008185    0.000000    0.000000    1.485000
    84  Na    c     4.403690    2.202951    6.568179    0.000000    1.000000
    85  Na    c     4.403690    2.202951   -6.568179    0.000000    1.000000
    86  Na    c     0.002212    2.202951    6.568179    0.000000    1.000000
    87  Na    c     0.002212    2.202951   -6.568179    0.000000    1.000000
    88  Na    c     2.202951    4.403690    6.568179    0.000000    1.000000
    89  Na    c     2.202951    4.403690   -6.568179    0.000000    1.000000
    90  Na    c     2.202951    0.002212    6.568179    0.000000    1.000000
    91  Na    c     2.202951    0.002212   -6.568179    0.000000    1.000000
    92  Na    c     8.837221    2.202951   -2.170172    0.000000    1.000000
    93  Na    c     8.837221    2.202951    2.170172    0.000000    1.000000
    94  Na    c    -4.431319    2.202951   -2.170172    0.000000    1.000000
    95  Na    c    -4.431319    2.202951    2.170172    0.000000    1.000000
    96  Na    c     2.202951    8.837221   -2.170172    0.000000    1.000000
    97  Na    c     2.202951    8.837221    2.170172    0.000000    1.000000
    98  Na    c     2.202951   -4.431319   -2.170172    0.000000    1.000000
    99  Na    c     2.202951   -4.431319    2.170172    0.000000    1.000000
   100  Na    c     6.624981    6.624981    4.405518    0.000000    1.000000
   101  Na    c     6.624981    6.624981   -4.405518    0.000000    1.000000
   102  Na    c     6.624981   -2.219079    4.405518    0.000000    1.000000
   103  Na    c     6.624981   -2.219079   -4.405518    0.000000    1.000000
   104  Na    c    -2.219079    6.624981    4.405518    0.000000    1.000000
   105  Na    c    -2.219079    6.624981   -4.405518    0.000000    1.000000
   106  Na    c    -2.219079   -2.219079    4.405518    0.000000    1.000000
   107  Na    c    -2.219079   -2.219079   -4.405518    0.000000    1.000000
   108  O     c     2.202951    6.607967    6.598949    0.000000    0.183000
   109  O     c     2.202951    6.607967   -6.598949    0.000000    0.183000
   110  O     c     2.202951   -2.202065    6.598949    0.000000    0.183000
   111  O     c     2.202951   -2.202065   -6.598949    0.000000    0.183000
   112  O     c     6.607967    2.202951    6.598949    0.000000    0.183000
   113  O     c     6.607967    2.202951   -6.598949    0.000000    0.183000
   114  O     c    -2.202065    2.202951    6.598949    0.000000    0.183000
   115  O     c    -2.202065    2.202951   -6.598949    0.000000    0.183000
   116  Cl    c     4.410375    8.795140    4.395793    0.000000    1.485000
   117  Cl    c     4.410375    8.795140   -4.395793    0.000000    1.485000
   118  Cl    c     4.410375   -4.389238    4.395793    0.000000    1.485000
   119  Cl    c     4.410375   -4.389238   -4.395793    0.000000    1.485000
   120  Cl    c     8.795140    4.410375    4.395793    0.000000    1.485000
   121  Cl    c     8.795140    4.410375   -4.395793    0.000000    1.485000
   122  Cl    c     8.795140   -0.004473    4.395793    0.000000    1.485000
   123  Cl    c     8.795140   -0.004473   -4.395793    0.000000    1.485000
   124  Cl    c    -0.004473    8.795140    4.395793    0.000000    1.485000
   125  Cl    c    -0.004473    8.795140   -4.395793    0.000000    1.485000
   126  Cl    c    -0.004473   -4.389238    4.395793    0.000000    1.485000
   127  Cl    c    -0.004473   -4.389238   -4.395793    0.000000    1.485000
   128  Cl    c    -4.389238    4.410375    4.395793    0.000000    1.485000
   129  Cl    c    -4.389238    4.410375   -4.395793    0.000000    1.485000
   130  Cl    c    -4.389238   -0.004473    4.395793    0.000000    1.485000
   131  Cl    c    -4.389238   -0.004473   -4.395793    0.000000    1.485000
   132  Na    c     4.404216    6.622732    6.630376    0.000000    1.000000
   133  Na    c     4.404216    6.622732   -6.630376    0.000000    1.000000
   134  Na    c     4.404216   -2.216830    6.630376    0.000000    1.000000
   135  Na    c     4.404216   -2.216830   -6.630376    0.000000    1.000000
   136  Na    c     0.001686    6.622732    6.630376    0.000000    1.000000
   137  Na    c     0.001686    6.622732   -6.630376    0.000000    1.000000
   138  Na    c     0.001686   -2.216830    6.630376    0.000000    1.000000
   139  Na    c     0.001686   -2.216830   -6.630376    0.000000    1.000000
   140  Na    c     6.622732    4.404216    6.630376    0.000000    1.000000
   141  Na    c     6.622732    4.404216   -6.630376    0.000000    1.000000
   142  Na    c     6.622732    0.001686    6.630376    0.000000    1.000000
   143  Na    c     6.622732    0.001686   -6.630376    0.000000    1.000000
   144  Na    c    -2.216830    4.404216    6.630376    0.000000    1.000000
   145  Na    c    -2.216830    4.404216   -6.630376    0.000000    1.000000
   146  Na    c    -2.216830    0.001686    6.630376    0.000000    1.000000
   147  Na    c    -2.216830    0.001686   -6.630376    0.000000    1.000000
   148  Na    c     8.817902    6.611811   -2.214554    0.000000    1.000000
   149  Na    c     8.817902    6.611811    2.214554    0.000000    1.000000
   150  Na    c     8.817902   -2.205909   -2.214554    0.000000    1.000000
   151  Na    c     8.817902   -2.205909    2.214554    0.000000    1.000000
   152  Na    c    -4.412000    6.611811   -2.214554    0.000000    1.000000
   153  Na    c    -4.412000    6.611811    2.214554    0.000000    1.000000
   154  Na    c    -4.412000   -2.205909   -2.214554    0.000000    1.000000
   155  Na    c    -4.412000   -2.205909    2.214554    0.000000    1.000000
   156  Na    c     6.611811    8.817902   -2.214554    0.000000    1.000000
   157  Na    c     6.611811    8.817902    2.214554    0.000000    1.000000
   158  Na    c     6.611811   -4.412000   -2.214554    0.000000    1.000000
   159  Na    c     6.611811   -4.412000    2.214554    0.000000    1.000000
   160  Na    c    -2.205909    8.817902   -2.214554    0.000000    1.000000
   161  Na    c    -2.205909    8.817902    2.214554    0.000000    1.000000
   162  Na    c    -2.205909   -4.412000   -2.214554    0.000000    1.000000
   163  Na    c    -2.205909   -4.412000    2.214554    0.000000    1.000000
   164  Na    c     2.202951    2.202951    8.781521    0.000000    1.000000
   165  Na    c     2.202951    2.202951   -8.781521    0.000000    1.000000
   166  Na    c     2.202951   11.080579    0.000000    0.000000    1.000000
   167  Na    c     2.202951   -6.674677    0.000000    0.000000    1.000000
   168  Na    c    11.080579    2.202951    0.000000    0.000000    1.000000
   169  Na    c    -6.674677    2.202951    0.000000    0.000000    1.000000
   170  O     c     6.602115    6.602115    6.600144    0.000000    0.183000
   171  O     c     6.602115    6.602115   -6.600144    0.000000    0.183000
   172  O     c     6.602115   -2.196213    6.600144    0.000000    0.183000
   173  O     c     6.602115   -2.196213   -6.600144    0.000000    0.183000
   174  O     c    -2.196213    6.602115    6.600144    0.000000    0.183000
   175  O     c    -2.196213    6.602115   -6.600144    0.000000    0.183000
   176  O     c    -2.196213   -2.196213    6.600144    0.000000    0.183000
   177  O     c    -2.196213   -2.196213   -6.600144    0.000000    0.183000
   178  O     c     2.202951   11.026578   -2.201421    0.000000    0.183000
   179  O     c     2.202951   11.026578    2.201421    0.000000    0.183000
   180  O     c     2.202951   -6.620676   -2.201421    0.000000    0.183000
   181  O     c     2.202951   -6.620676    2.201421    0.000000    0.183000
   182  O     c    11.026578    2.202951   -2.201421    0.000000    0.183000
   183  O     c    11.026578    2.202951    2.201421    0.000000    0.183000
   184  O     c    -6.620676    2.202951   -2.201421    0.000000    0.183000
   185  O     c    -6.620676    2.202951    2.201421    0.000000    0.183000
   186  Cl    c     4.401600    4.401600    8.780268    0.000000    1.485000
   187  Cl    c     4.401600    4.401600   -8.780268    0.000000    1.485000
   188  Cl    c     4.401600    0.004302    8.780268    0.000000    1.485000
   189  Cl    c     4.401600    0.004302   -8.780268    0.000000    1.485000
   190  Cl    c     0.004302    4.401600    8.780268    0.000000    1.485000
   191  Cl    c     0.004302    4.401600   -8.780268    0.000000    1.485000
   192  Cl    c     0.004302    0.004302    8.780268    0.000000    1.485000
   193  Cl    c     0.004302    0.004302   -8.780268    0.000000    1.485000
   194  Cl    c     8.793173    8.793173    0.000000    0.000000    1.485000
   195  Cl    c     8.793173   -4.387271    0.000000    0.000000    1.485000
   196  Cl    c    -4.387271    8.793173    0.000000    0.000000    1.485000
   197  Cl    c    -4.387271   -4.387271    0.000000    0.000000    1.485000
   198  Na    c     8.816208    2.202951    6.640432    0.000000    1.000000
   199  Na    c     8.816208    2.202951   -6.640432    0.000000    1.000000
   200  Na    c    -4.410306    2.202951    6.640432    0.000000    1.000000
   201  Na    c    -4.410306    2.202951   -6.640432    0.000000    1.000000
   202  Na    c     2.202951    8.816208    6.640432    0.000000    1.000000
   203  Na    c     2.202951    8.816208   -6.640432    0.000000    1.000000
   204  Na    c     2.202951   -4.410306    6.640432    0.000000    1.000000
   205  Na    c     2.202951   -4.410306   -6.640432    0.000000    1.000000
   206  Na    c     4.407649   11.035252   -2.206740    0.000000    1.000000
   207  Na    c     4.407649   11.035252    2.206740    0.000000    1.000000
   208  Na    c     4.407649   -6.629350   -2.206740    0.000000    1.000000
   209  Na    c     4.407649   -6.629350    2.206740    0.000000    1.000000
   210  Na    c    -0.001747   11.035252   -2.206740    0.000000    1.000000
   211  Na    c    -0.001747   11.035252    2.206740    0.000000    1.000000
   212  Na    c    -0.001747   -6.629350   -2.206740    0.000000    1.000000
   213  Na    c    -0.001747   -6.629350    2.206740    0.000000    1.000000
   214  Na    c    11.035252    4.407649   -2.206740    0.000000    1.000000
   215  Na    c    11.035252    4.407649    2.206740    0.000000    1.000000
   216  Na    c    11.035252   -0.001747   -2.206740    0.000000    1.000000
   217  Na    c    11.035252   -0.001747    2.206740    0.000000    1.000000
   218  Na    c    -6.629350    4.407649   -2.206740    0.000000    1.000000
   219  Na    c    -6.629350    4.407649    2.206740    0.000000    1.000000
   220  Na    c    -6.629350   -0.001747   -2.206740    0.000000    1.000000
   221  Na    c    -6.629350   -0.001747    2.206740    0.000000    1.000000
   222  Na    c     2.202951    6.584146    8.808178    0.000000    1.000000
   223  Na    c     2.202951    6.584146   -8.808178    0.000000    1.000000
   224  Na    c     2.202951   -2.178243    8.808178    0.000000    1.000000
   225  Na    c     2.202951   -2.178243   -8.808178    0.000000    1.000000
   226  Na    c     6.584146    2.202951    8.808178    0.000000    1.000000
   227  Na    c     6.584146    2.202951   -8.808178    0.000000    1.000000
   228  Na    c    -2.178243    2.202951    8.808178    0.000000    1.000000
   229  Na    c    -2.178243    2.202951   -8.808178    0.000000    1.000000
   230  Na    c     2.202951   11.009348    4.407375    0.000000    1.000000
   231  Na    c     2.202951   11.009348   -4.407375    0.000000    1.000000
   232  Na    c     2.202951   -6.603446    4.407375    0.000000    1.000000
   233  Na    c     2.202951   -6.603446   -4.407375    0.000000    1.000000
   234  Na    c    11.009348    2.202951    4.407375    0.000000    1.000000
   235  Na    c    11.009348    2.202951   -4.407375    0.000000    1.000000
   236  Na    c    -6.603446    2.202951    4.407375    0.000000    1.000000
   237  Na    c    -6.603446    2.202951   -4.407375    0.000000    1.000000
   238  Na    c     6.610330   11.018562    0.000000    0.000000    1.000000
   239  Na    c     6.610330   -6.612660    0.000000    0.000000    1.000000
   240  Na    c    11.018562    6.610330    0.000000    0.000000    1.000000
   241  Na    c    11.018562   -2.204428    0.000000    0.000000    1.000000
   242  Na    c    -2.204428   11.018562    0.000000    0.000000    1.000000
   243  Na    c    -2.204428   -6.612660    0.000000    0.000000    1.000000
   244  Na    c    -6.612660    6.610330    0.000000    0.000000    1.000000
   245  Na    c    -6.612660   -2.204428    0.000000    0.000000    1.000000
   246  O     c     6.608082   11.015652   -2.202910    0.000000    0.183000
   247  O     c     6.608082   11.015652    2.202910    0.000000    0.183000
   248  O     c     6.608082   -6.609749   -2.202910    0.000000    0.183000
   249  O     c     6.608082   -6.609749    2.202910    0.000000    0.183000
   250  O     c    11.015652    6.608082   -2.202910    0.000000    0.183000
   251  O     c    11.015652    6.608082    2.202910    0.000000    0.183000
   252  O     c    11.015652   -2.202180   -2.202910    0.000000    0.183000
   253  O     c    11.015652   -2.202180    2.202910    0.000000    0.183000
   254  O     c    -2.202180   11.015652   -2.202910    0.000000    0.183000
   255  O     c    -2.202180   11.015652    2.202910    0.000000    0.183000
   256  O     c    -2.202180   -6.609749   -2.202910    0.000000    0.183000
   257  O     c    -2.202180   -6.609749    2.202910    0.000000    0.183000
   258  O     c    -6.609749    6.608082   -2.202910    0.000000    0.183000
   259  O     c    -6.609749    6.608082    2.202910    0.000000    0.183000
   260  O     c    -6.609749   -2.202180   -2.202910    0.000000    0.183000
   261  O     c    -6.609749   -2.202180    2.202910    0.000000    0.183000
   262  Cl    c     8.794733    8.794733    4.394638    0.000000    1.485000
   263  Cl    c     8.794733    8.794733   -4.394638    0.000000    1.485000
   264  Cl    c     8.794733   -4.388831    4.394638    0.000000    1.485000
   265  Cl    c     8.794733   -4.388831   -4.394638    0.000000    1.485000
   266  Cl    c    -4.388831    8.794733    4.394638    0.000000    1.485000
   267  Cl    c    -4.388831    8.794733   -4.394638    0.000000    1.485000
   268  Cl    c    -4.388831   -4.388831    4.394638    0.000000    1.485000
   269  Cl    c    -4.388831   -4.388831   -4.394638    0.000000    1.485000
   270  Na    c     8.813221    6.610660    6.609959    0.000000    1.000000
   271  Na    c     8.813221    6.610660   -6.609959    0.000000    1.000000
   272  Na    c     8.813221   -2.204758    6.609959    0.000000    1.000000
   273  Na    c     8.813221   -2.204758   -6.609959    0.000000    1.000000
   274  Na    c    -4.407319    6.610660    6.609959    0.000000    1.000000
   275  Na    c    -4.407319    6.610660   -6.609959    0.000000    1.000000
   276  Na    c    -4.407319   -2.204758    6.609959    0.000000    1.000000
   277  Na    c    -4.407319   -2.204758   -6.609959    0.000000    1.000000
   278  Na    c     6.610660    8.813221    6.609959    0.000000    1.000000
   279  Na    c     6.610660    8.813221   -6.609959    0.000000    1.000000
   280  Na    c     6.610660   -4.407319    6.609959    0.000000    1.000000
   281  Na    c     6.610660   -4.407319   -6.609959    0.000000    1.000000
   282  Na    c    -2.204758    8.813221    6.609959    0.000000    1.000000
   283  Na    c    -2.204758    8.813221   -6.609959    0.000000    1.000000
   284  Na    c    -2.204758   -4.407319    6.609959    0.000000    1.000000
   285  Na    c    -2.204758   -4.407319   -6.609959    0.000000    1.000000
   286  Na    c     6.613983   11.030548    4.407673    0.000000    1.000000
   287  Na    c     6.613983   11.030548   -4.407673    0.000000    1.000000
   288  Na    c     6.613983   -6.624646    4.407673    0.000000    1.000000
   289  Na    c     6.613983   -6.624646   -4.407673    0.000000    1.000000
   290  Na    c    11.030548    6.613983    4.407673    0.000000    1.000000
   291  Na    c    11.030548    6.613983   -4.407673    0.000000    1.000000
   292  Na    c    11.030548   -2.208081    4.407673    0.000000    1.000000
   293  Na    c    11.030548   -2.208081   -4.407673    0.000000    1.000000
   294  Na    c    -2.208081   11.030548    4.407673    0.000000    1.000000
   295  Na    c    -2.208081   11.030548   -4.407673    0.000000    1.000000
   296  Na    c    -2.208081   -6.624646    4.407673    0.000000    1.000000
   297  Na    c    -2.208081   -6.624646   -4.407673    0.000000    1.000000
   298  Na    c    -6.624646    6.613983    4.407673    0.000000    1.000000
   299  Na    c    -6.624646    6.613983   -4.407673    0.000000    1.000000
   300  Na    c    -6.624646   -2.208081    4.407673    0.000000    1.000000
   301  Na    c    -6.624646   -2.208081   -4.407673    0.000000    1.000000
   302  Na    c     6.616105    6.616105    8.811639    0.000000    1.000000
   303  Na    c     6.616105    6.616105   -8.811639    0.000000    1.000000
   304  Na    c     6.616105   -2.210203    8.811639    0.000000    1.000000
   305  Na    c     6.616105   -2.210203   -8.811639    0.000000    1.000000
   306  Na    c    -2.210203    6.616105    8.811639    0.000000    1.000000
   307  Na    c    -2.210203    6.616105   -8.811639    0.000000    1.000000
   308  Na    c    -2.210203   -2.210203    8.811639    0.000000    1.000000
   309  Na    c    -2.210203   -2.210203   -8.811639    0.000000    1.000000
   310  O     c     2.202951    2.202951   10.997706    0.000000    0.183000
   311  O     c     2.202951    2.202951  -10.997706    0.000000    0.183000
   312  O     c     2.202951   11.014321    6.607448    0.000000    0.183000
   313  O     c     2.202951   11.014321   -6.607448    0.000000    0.183000
   314  O     c     2.202951   -6.608419    6.607448    0.000000    0.183000
   315  O     c     2.202951   -6.608419   -6.607448    0.000000    0.183000
   316  O     c    11.014321    2.202951    6.607448    0.000000    0.183000
   317  O     c    11.014321    2.202951   -6.607448    0.000000    0.183000
   318  O     c    -6.608419    2.202951    6.607448    0.000000    0.183000
   319  O     c    -6.608419    2.202951   -6.607448    0.000000    0.183000
   320  Cl    c     4.403672    8.802338    8.797589    0.000000    1.485000
   321  Cl    c     4.403672    8.802338   -8.797589    0.000000    1.485000
   322  Cl    c     4.403672   -4.396436    8.797589    0.000000    1.485000
   323  Cl    c     4.403672   -4.396436   -8.797589    0.000000    1.485000
   324  Cl    c     8.802338    4.403672    8.797589    0.000000    1.485000
   325  Cl    c     8.802338    4.403672   -8.797589    0.000000    1.485000
   326  Cl    c     8.802338    0.002230    8.797589    0.000000    1.485000
   327  Cl    c     8.802338    0.002230   -8.797589    0.000000    1.485000
   328  Cl    c     0.002230    8.802338    8.797589    0.000000    1.485000
   329  Cl    c     0.002230    8.802338   -8.797589    0.000000    1.485000
   330  Cl    c     0.002230   -4.396436    8.797589    0.000000    1.485000
   331  Cl    c     0.002230   -4.396436   -8.797589    0.000000    1.485000
   332  Cl    c    -4.396436    4.403672    8.797589    0.000000    1.485000
   333  Cl    c    -4.396436    4.403672   -8.797589    0.000000    1.485000
   334  Cl    c    -4.396436    0.002230    8.797589    0.000000    1.485000
   335  Cl    c    -4.396436    0.002230   -8.797589    0.000000    1.485000
   336  Cl    c     4.405473   13.209797    0.000000    0.000000    1.485000
   337  Cl    c     4.405473   -8.803895    0.000000    0.000000    1.485000
   338  Cl    c    13.209797    4.405473    0.000000    0.000000    1.485000
   339  Cl    c    13.209797    0.000429    0.000000    0.000000    1.485000
   340  Cl    c     0.000429   13.209797    0.000000    0.000000    1.485000
   341  Cl    c     0.000429   -8.803895    0.000000    0.000000    1.485000
   342  Cl    c    -8.803895    4.405473    0.000000    0.000000    1.485000
   343  Cl    c    -8.803895    0.000429    0.000000    0.000000    1.485000
   344  Na    c     4.402888    2.202951   11.015856    0.000000    1.000000
   345  Na    c     4.402888    2.202951  -11.015856    0.000000    1.000000
   346  Na    c     0.003015    2.202951   11.015856    0.000000    1.000000
   347  Na    c     0.003015    2.202951  -11.015856    0.000000    1.000000
   348  Na    c     2.202951    4.402888   11.015856    0.000000    1.000000
   349  Na    c     2.202951    4.402888  -11.015856    0.000000    1.000000
   350  Na    c     2.202951    0.003015   11.015856    0.000000    1.000000
   351  Na    c     2.202951    0.003015  -11.015856    0.000000    1.000000
   352  Na    c     4.406774   11.024559    6.613654    0.000000    1.000000
   353  Na    c     4.406774   11.024559   -6.613654    0.000000    1.000000
   354  Na    c     4.406774   -6.618657    6.613654    0.000000    1.000000
   355  Na    c     4.406774   -6.618657   -6.613654    0.000000    1.000000
   356  Na    c    -0.000872   11.024559    6.613654    0.000000    1.000000
   357  Na    c    -0.000872   11.024559   -6.613654    0.000000    1.000000
   358  Na    c    -0.000872   -6.618657    6.613654    0.000000    1.000000
   359  Na    c    -0.000872   -6.618657   -6.613654    0.000000    1.000000
   360  Na    c    11.024559    4.406774    6.613654    0.000000    1.000000
   361  Na    c    11.024559    4.406774   -6.613654    0.000000    1.000000
   362  Na    c    11.024559   -0.000872    6.613654    0.000000    1.000000
   363  Na    c    11.024559   -0.000872   -6.613654    0.000000    1.000000
   364  Na    c    -6.618657    4.406774    6.613654    0.000000    1.000000
   365  Na    c    -6.618657    4.406774   -6.613654    0.000000    1.000000
   366  Na    c    -6.618657   -0.000872    6.613654    0.000000    1.000000
   367  Na    c    -6.618657   -0.000872   -6.613654    0.000000    1.000000
   368  Na    c    13.229531    2.202951   -2.232955    0.000000    1.000000
   369  Na    c    13.229531    2.202951    2.232955    0.000000    1.000000
   370  Na    c    -8.823628    2.202951   -2.232955    0.000000    1.000000
   371  Na    c    -8.823628    2.202951    2.232955    0.000000    1.000000
   372  Na    c     2.202951   13.229531   -2.232955    0.000000    1.000000
   373  Na    c     2.202951   13.229531    2.232955    0.000000    1.000000
   374  Na    c     2.202951   -8.823628   -2.232955    0.000000    1.000000
   375  Na    c     2.202951   -8.823628    2.232955    0.000000    1.000000
   376  Na    c     8.812475   11.022557   -2.203073    0.000000    1.000000
   377  Na    c     8.812475   11.022557    2.203073    0.000000    1.000000
   378  Na    c     8.812475   -6.616655   -2.203073    0.000000    1.000000
   379  Na    c     8.812475   -6.616655    2.203073    0.000000    1.000000
   380  Na    c    -4.406573   11.022557   -2.203073    0.000000    1.000000
   381  Na    c    -4.406573   11.022557    2.203073    0.000000    1.000000
   382  Na    c    -4.406573   -6.616655   -2.203073    0.000000    1.000000
   383  Na    c    -4.406573   -6.616655    2.203073    0.000000    1.000000
   384  Na    c    11.022557    8.812475   -2.203073    0.000000    1.000000
   385  Na    c    11.022557    8.812475    2.203073    0.000000    1.000000
   386  Na    c    11.022557   -4.406573   -2.203073    0.000000    1.000000
   387  Na    c    11.022557   -4.406573    2.203073    0.000000    1.000000
   388  Na    c    -6.616655    8.812475   -2.203073    0.000000    1.000000
   389  Na    c    -6.616655    8.812475    2.203073    0.000000    1.000000
   390  Na    c    -6.616655   -4.406573   -2.203073    0.000000    1.000000
   391  Na    c    -6.616655   -4.406573    2.203073    0.000000    1.000000
   392  O     c     2.202951    6.604917   11.007356    0.000000    0.183000
   393  O     c     2.202951    6.604917  -11.007356    0.000000    0.183000
   394  O     c     2.202951   -2.199015   11.007356    0.000000    0.183000
   395  O     c     2.202951   -2.199015  -11.007356    0.000000    0.183000
   396  O     c     6.604917    2.202951   11.007356    0.000000    0.183000
   397  O     c     6.604917    2.202951  -11.007356    0.000000    0.183000
   398  O     c    -2.199015    2.202951   11.007356    0.000000    0.183000
   399  O     c    -2.199015    2.202951  -11.007356    0.000000    0.183000
   400  O     c     6.608385   11.014206    6.608765    0.000000    0.183000
   401  O     c     6.608385   11.014206   -6.608765    0.000000    0.183000
   402  O     c     6.608385   -6.608303    6.608765    0.000000    0.183000
   403  O     c     6.608385   -6.608303   -6.608765    0.000000    0.183000
   404  O     c    11.014206    6.608385    6.608765    0.000000    0.183000
   405  O     c    11.014206    6.608385   -6.608765    0.000000    0.183000
   406  O     c    11.014206   -2.202483    6.608765    0.000000    0.183000
   407  O     c    11.014206   -2.202483   -6.608765    0.000000    0.183000
   408  O     c    -2.202483   11.014206    6.608765    0.000000    0.183000
   409  O     c    -2.202483   11.014206   -6.608765    0.000000    0.183000
   410  O     c    -2.202483   -6.608303    6.608765    0.000000    0.183000
   411  O     c    -2.202483   -6.608303   -6.608765    0.000000    0.183000
   412  O     c    -6.608303    6.608385    6.608765    0.000000    0.183000
   413  O     c    -6.608303    6.608385   -6.608765    0.000000    0.183000
   414  O     c    -6.608303   -2.202483    6.608765    0.000000    0.183000
   415  O     c    -6.608303   -2.202483   -6.608765    0.000000    0.183000
   416  Cl    c     4.404006   13.209303    4.404186    0.000000    1.485000
   417  Cl    c     4.404006   13.209303   -4.404186    0.000000    1.485000
   418  Cl    c     4.404006   -8.803401    4.404186    0.000000    1.485000
   419  Cl    c     4.404006   -8.803401   -4.404186    0.000000    1.485000
[...]
     86 y         11.014756     11.018347     0.003591    Cartesian    0.03
     86 z          8.811805      8.811692    -0.000113    Cartesian   -0.00
     87 x          2.202951      2.202951     0.000000    Cartesian    0.00
     87 y          2.202951      2.202951     0.000000    Cartesian    0.00
     87 z         15.420658     15.415730    -0.004928    Cartesian   -0.03
     88 x          6.608853      6.609101     0.000247    Cartesian    0.00
     88 y         15.420658     15.420135    -0.000523    Cartesian   -0.00
     88 z          6.608853      6.609996     0.001143    Cartesian    0.02
     89 x          4.405902      4.404548    -0.001354    Cartesian   -0.03
     89 y         17.623609     17.616144    -0.007465    Cartesian   -0.04
     89 z          0.000000      0.000000     0.000000    Cartesian    0.00
     90 x          8.811805      8.808678    -0.003127    Cartesian   -0.04
     90 y         13.217707     13.211304    -0.006402    Cartesian   -0.05
     90 z          8.811805      8.807148    -0.004657    Cartesian   -0.05
     91 x         13.217707     13.211341    -0.006365    Cartesian   -0.05
     91 y         13.217707     13.211341    -0.006365    Cartesian   -0.05
     91 z          0.000000      0.000000     0.000000    Cartesian    0.00
     92 x          4.405902      4.405994     0.000092    Cartesian    0.00
     92 y          2.202951      2.202951     0.000000    Cartesian    0.00
     92 z         15.420658     15.421194     0.000536    Cartesian    0.00
     93 x         13.217707     13.219682     0.001975    Cartesian    0.01
     93 y          2.202951      2.202951     0.000000    Cartesian    0.00
     93 z         11.014756     11.027042     0.012286    Cartesian    0.11
     94 x         17.623609     17.626911     0.003302    Cartesian    0.02
     94 y          2.202951      2.202951     0.000000    Cartesian    0.00
     94 z         -2.202951     -2.196423     0.006528    Cartesian   -0.30
     95 x          8.811805      8.811467    -0.000338    Cartesian   -0.00
     95 y         11.014756     11.016916     0.002160    Cartesian    0.02
     95 z         11.014756     11.017635     0.002879    Cartesian    0.03
     96 x         13.217707     13.219124     0.001417    Cartesian    0.01
     96 y         11.014756     11.016445     0.001689    Cartesian    0.02
     96 z          6.608853      6.608703    -0.000151    Cartesian   -0.00
     97 x          2.202951      2.202951     0.000000    Cartesian    0.00
     97 y         11.014756     11.010113    -0.004643    Cartesian   -0.04
     97 z         13.217707     13.219721     0.002014    Cartesian    0.02
     98 x          2.202951      2.202951     0.000000    Cartesian    0.00
     98 y         15.420658     15.420385    -0.000273    Cartesian   -0.00
     98 z          8.811805      8.813912     0.002107    Cartesian    0.02
     99 x         11.014756     11.016630     0.001874    Cartesian    0.02
     99 y         15.420658     15.423728     0.003069    Cartesian    0.02
     99 z          0.000000      0.000000     0.000000    Cartesian    0.00
    100 x          2.202951      2.202951     0.000000    Cartesian    0.00
    100 y          6.608853      6.608903     0.000049    Cartesian    0.00
    100 z         15.420658     15.418185    -0.002473    Cartesian   -0.02
    101 x         11.014756     11.013792    -0.000964    Cartesian   -0.01
    101 y         15.420658     15.418944    -0.001714    Cartesian   -0.01
    101 z         -2.202951     -2.203396    -0.000445    Cartesian    0.02
    102 x          4.405902      4.405689    -0.000213    Cartesian   -0.00
    102 y         17.623609     17.613590    -0.010019    Cartesian   -0.06
    102 z          4.405902      4.404176    -0.001726    Cartesian   -0.04
    103 x          8.811805      8.807951    -0.003853    Cartesian   -0.04
    103 y          8.811805      8.807951    -0.003853    Cartesian   -0.04
    103 z         13.217707     13.208106    -0.009601    Cartesian   -0.07
    104 x         13.217707     13.210620    -0.007087    Cartesian   -0.05
    104 y         13.217707     13.210620    -0.007087    Cartesian   -0.05
    104 z          4.405902      4.403044    -0.002859    Cartesian   -0.06
    105 x          4.405902      4.405407    -0.000495    Cartesian   -0.01
    105 y          6.608853      6.610293     0.001440    Cartesian    0.02
    105 z         15.420658     15.425623     0.004965    Cartesian    0.03
    106 x          8.811805      8.813048     0.001244    Cartesian    0.01
    106 y         15.420658     15.427840     0.007182    Cartesian    0.05
    106 z          6.608853      6.610795     0.001941    Cartesian    0.03
    107 x         13.217707     13.219681     0.001974    Cartesian    0.01
    107 y          6.608853      6.610271     0.001418    Cartesian    0.02
    107 z         11.014756     11.017671     0.002916    Cartesian    0.03
    108 x         17.623609     17.626106     0.002496    Cartesian    0.01
    108 y          6.608853      6.612590     0.003737    Cartesian    0.06
    108 z         -2.202951     -2.207440    -0.004489    Cartesian    0.20
    109 x          6.608853      6.611173     0.002319    Cartesian    0.04
    109 y         11.014756     11.021625     0.006869    Cartesian    0.06
    109 z         13.217707     13.220238     0.002531    Cartesian    0.02
    110 x          6.608853      6.611628     0.002775    Cartesian    0.04
    110 y         15.420658     15.430609     0.009951    Cartesian    0.06
    110 z          8.811805      8.814017     0.002212    Cartesian    0.03
    111 x         11.014756     11.019757     0.005001    Cartesian    0.05
    111 y         15.420658     15.428640     0.007982    Cartesian    0.05
    111 z          4.405902      4.406741     0.000839    Cartesian    0.02
    112 x          6.608853      6.607124    -0.001729    Cartesian   -0.03
    112 y          6.608853      6.607124    -0.001729    Cartesian   -0.03
    112 z         15.420658     15.416945    -0.003713    Cartesian   -0.02
    113 x         11.014756     11.012081    -0.002674    Cartesian   -0.02
    113 y         11.014756     11.012081    -0.002674    Cartesian   -0.02
    113 z         11.014756     11.011573    -0.003183    Cartesian   -0.03
    114 x          8.811805      8.808105    -0.003699    Cartesian   -0.04
    114 y         17.623609     17.612086    -0.011523    Cartesian   -0.07
    114 z          0.000000      0.000000     0.000000    Cartesian    0.00
    115 x          8.811805      8.812707     0.000902    Cartesian    0.01
    115 y          2.202951      2.202951     0.000000    Cartesian    0.00
    115 z         15.420658     15.430324     0.009666    Cartesian    0.06
    116 x         17.623609     17.627532     0.003923    Cartesian    0.02
    116 y          2.202951      2.202951     0.000000    Cartesian    0.00
    116 z          6.608853      6.621307     0.012453    Cartesian    0.19
    117 x          2.202951      2.202951     0.000000    Cartesian    0.00
    117 y          2.202951      2.202951     0.000000    Cartesian    0.00
    117 z          0.000000      0.000000     0.000000    Cartesian    0.00
    118 x          2.202951      2.202951     0.000000    Cartesian    0.00
    118 y          2.202951      2.202951     0.000000    Cartesian    0.00
    118 z         -2.202951     -1.869137     0.333814    Cartesian  -15.15
    119 x          4.405902      4.117987    -0.287916    Cartesian   -6.53
    119 y          4.405902      4.117987    -0.287916    Cartesian   -6.53
    119 z          0.000000      0.000000     0.000000    Cartesian    0.00
    120 x          2.202951      2.202951     0.000000    Cartesian    0.00
    120 y          6.608853      6.641234     0.032381    Cartesian    0.49
    120 z         -2.202951     -2.196851     0.006100    Cartesian   -0.28
    121 x          4.405902      4.331911    -0.073991    Cartesian   -1.68
    121 y          4.405902      4.331911    -0.073991    Cartesian   -1.68
    121 z          4.405902      4.304820    -0.101082    Cartesian   -2.29
    122 x          2.202951      2.202951     0.000000    Cartesian    0.00
    122 y          2.202951      2.202951     0.000000    Cartesian    0.00
    122 z          6.608853      6.550992    -0.057861    Cartesian   -0.88
    123 x          6.608853      6.598211    -0.010642    Cartesian   -0.16
    123 y          6.608853      6.598211    -0.010642    Cartesian   -0.16
    123 z         -2.202951     -2.194129     0.008822    Cartesian   -0.40
    124 x          4.405902      4.414126     0.008224    Cartesian    0.19
    124 y          8.811805      8.783381    -0.028424    Cartesian   -0.32
    124 z          0.000000      0.000000     0.000000    Cartesian    0.00
    125 x          2.202951      2.202951     0.000000    Cartesian    0.00
    125 y          6.608853      6.607973    -0.000880    Cartesian   -0.01
    125 z          6.608853      6.598946    -0.009907    Cartesian   -0.15
    126 x          4.405902      4.410679     0.004777    Cartesian    0.11
    126 y          8.811805      8.790895    -0.020910    Cartesian   -0.24
    126 z          4.405902      4.393193    -0.012709    Cartesian   -0.29
    127 x          6.608853      6.602112    -0.006742    Cartesian   -0.10
    127 y          6.608853      6.602112    -0.006742    Cartesian   -0.10
    127 z          6.608853      6.600139    -0.008715    Cartesian   -0.13
    128 x          2.202951      2.202951     0.000000    Cartesian    0.00
    128 y         11.014756     11.026571     0.011816    Cartesian    0.11
    128 z         -2.202951     -2.201418     0.001533    Cartesian   -0.07
    129 x          4.405902      4.401688    -0.004215    Cartesian   -0.10
    129 y          4.405902      4.401688    -0.004215    Cartesian   -0.10
    129 z          8.811805      8.777739    -0.034066    Cartesian   -0.39
    130 x          8.811805      8.788558    -0.023247    Cartesian   -0.26
    130 y          8.811805      8.788558    -0.023247    Cartesian   -0.26
    130 z          0.000000      0.000000     0.000000    Cartesian    0.00
    131 x          6.608853      6.608081    -0.000773    Cartesian   -0.01
    131 y         11.014756     11.015650     0.000894    Cartesian    0.01
    131 z         -2.202951     -2.202909     0.000042    Cartesian   -0.00
    132 x          8.811805      8.791680    -0.020124    Cartesian   -0.23
    132 y          8.811805      8.791680    -0.020124    Cartesian   -0.23
    132 z          4.405902      4.392910    -0.012992    Cartesian   -0.29
    133 x          2.202951      2.202951     0.000000    Cartesian    0.00
    133 y          2.202951      2.202951     0.000000    Cartesian    0.00
    133 z         11.014756     10.997721    -0.017035    Cartesian   -0.15
    134 x          2.202951      2.202951     0.000000    Cartesian    0.00
    134 y         11.014756     11.014318    -0.000438    Cartesian   -0.00
    134 z          6.608853      6.607448    -0.001406    Cartesian   -0.02
    135 x          4.405902      4.403289    -0.002613    Cartesian   -0.06
    135 y          8.811805      8.800511    -0.011294    Cartesian   -0.13
    135 z          8.811805      8.794897    -0.016907    Cartesian   -0.19
    136 x          4.405902      4.404894    -0.001008    Cartesian   -0.02
    136 y         13.217707     13.207005    -0.010702    Cartesian   -0.08
    136 z          0.000000      0.000000     0.000000    Cartesian    0.00
    137 x          2.202951      2.202951     0.000000    Cartesian    0.00
    137 y          6.608853      6.604912    -0.003941    Cartesian   -0.06
    137 z         11.014756     11.007350    -0.007406    Cartesian   -0.07
    138 x          6.608853      6.608385    -0.000468    Cartesian   -0.01
    138 y         11.014756     11.014206    -0.000549    Cartesian   -0.00
    138 z          6.608853      6.608764    -0.000089    Cartesian   -0.00
    139 x          4.405902      4.403436    -0.002466    Cartesian   -0.06
    139 y         13.217707     13.207319    -0.010388    Cartesian   -0.08
    139 z          4.405902      4.403376    -0.002526    Cartesian   -0.06
    140 x          6.608853      6.607506    -0.001348    Cartesian   -0.02
    140 y          6.608853      6.607506    -0.001348    Cartesian   -0.02
    140 z         11.014756     11.011685    -0.003071    Cartesian   -0.03
    141 x         11.014756     11.012547    -0.002209    Cartesian   -0.02
    141 y         11.014756     11.012547    -0.002209    Cartesian   -0.02
    141 z         -2.202951     -2.202470     0.000481    Cartesian   -0.02
    142 x          8.811805      8.801372    -0.010433    Cartesian   -0.12
    142 y          8.811805      8.801372    -0.010433    Cartesian   -0.12
    142 z          8.811805      8.798712    -0.013093    Cartesian   -0.15
    143 x          8.811805      8.805992    -0.005812    Cartesian   -0.07
    143 y         13.217707     13.206275    -0.011432    Cartesian   -0.09
    143 z          0.000000      0.000000     0.000000    Cartesian    0.00
    144 x          2.202951      2.202951     0.000000    Cartesian    0.00
    144 y         15.420658     15.424308     0.003650    Cartesian    0.02
    144 z         -2.202951     -2.204680    -0.001728    Cartesian    0.08
    145 x          8.811805      8.806720    -0.005085    Cartesian   -0.06
    145 y         13.217707     13.207990    -0.009716    Cartesian   -0.07
    145 z          4.405902      4.402820    -0.003082    Cartesian   -0.07
    146 x          4.405902      4.402029    -0.003873    Cartesian   -0.09
    146 y          4.405902      4.402029    -0.003873    Cartesian   -0.09
    146 z         13.217707     13.202894    -0.014813    Cartesian   -0.11
    147 x          6.608853      6.609507     0.000654    Cartesian    0.01
    147 y         15.420658     15.421372     0.000714    Cartesian    0.00
    147 z         -2.202951     -2.203384    -0.000432    Cartesian    0.02
    148 x          2.202951      2.202951     0.000000    Cartesian    0.00
    148 y         11.014756     11.014886     0.000131    Cartesian    0.00
    148 z         11.014756     11.013892    -0.000864    Cartesian   -0.01
    149 x         11.014756     11.013308    -0.001448    Cartesian   -0.01
    149 y         11.014756     11.013308    -0.001448    Cartesian   -0.01
    149 z          6.608853      6.607703    -0.001151    Cartesian   -0.02
    150 x          4.405902      4.403250    -0.002652    Cartesian   -0.06
    150 y         13.217707     13.209842    -0.007865    Cartesian   -0.06
    150 z          8.811805      8.806784    -0.005020    Cartesian   -0.06
    151 x          6.608853      6.607827    -0.001026    Cartesian   -0.02
    151 y         11.014756     11.014545    -0.000211    Cartesian   -0.00
    151 z         11.014756     11.015068     0.000313    Cartesian    0.00
    152 x          2.202951      2.202951     0.000000    Cartesian    0.00
    152 y         15.420658     15.422733     0.002075    Cartesian    0.01
    152 z          6.608853      6.610017     0.001164    Cartesian    0.02
    153 x          4.405902      4.404774    -0.001129    Cartesian   -0.03
    153 y          8.811805      8.808297    -0.003508    Cartesian   -0.04
    153 z         13.217707     13.206962    -0.010745    Cartesian   -0.08
    154 x          2.202951      2.202951     0.000000    Cartesian    0.00
    154 y          2.202951      2.202951     0.000000    Cartesian    0.00
    154 z         15.420658     15.415729    -0.004929    Cartesian   -0.03
    155 x          6.608853      6.609100     0.000247    Cartesian    0.00
    155 y         15.420658     15.420136    -0.000523    Cartesian   -0.00
    155 z          6.608853      6.609997     0.001144    Cartesian    0.02
    156 x          4.405902      4.404180    -0.001722    Cartesian   -0.04
    156 y         17.623609     17.615029    -0.008580    Cartesian   -0.05
    156 z          0.000000      0.000000     0.000000    Cartesian    0.00
    157 x          8.811805      8.808221    -0.003584    Cartesian   -0.04
    157 y         13.217707     13.210284    -0.007423    Cartesian   -0.06
    157 z          8.811805      8.806335    -0.005470    Cartesian   -0.06
    158 x         13.217707     13.210415    -0.007292    Cartesian   -0.06
    158 y         13.217707     13.210415    -0.007292    Cartesian   -0.06
    158 z          0.000000      0.000000     0.000000    Cartesian    0.00
    159 x          2.202951      2.202951     0.000000    Cartesian    0.00
    159 y          6.608853      6.608903     0.000050    Cartesian    0.00
    159 z         15.420658     15.418187    -0.002471    Cartesian   -0.02
    160 x         11.014756     11.013791    -0.000965    Cartesian   -0.01
    160 y         15.420658     15.418943    -0.001715    Cartesian   -0.01
    160 z         -2.202951     -2.203396    -0.000445    Cartesian    0.02
    161 x          4.405902      4.405531    -0.000371    Cartesian   -0.01
    161 y         17.623609     17.611948    -0.011661    Cartesian   -0.07
    161 z          4.405902      4.403737    -0.002165    Cartesian   -0.05
    162 x          8.811805      8.807447    -0.004357    Cartesian   -0.05
    162 y          8.811805      8.807447    -0.004357    Cartesian   -0.05
    162 z         13.217707     13.206695    -0.011012    Cartesian   -0.08
    163 x         13.217707     13.209636    -0.008071    Cartesian   -0.06
    163 y         13.217707     13.209636    -0.008071    Cartesian   -0.06
    163 z          4.405902      4.402618    -0.003285    Cartesian   -0.07
    164 x          6.608853      6.607122    -0.001732    Cartesian   -0.03
    164 y          6.608853      6.607122    -0.001732    Cartesian   -0.03
    164 z         15.420658     15.416941    -0.003717    Cartesian   -0.02
    165 x         11.014756     11.012078    -0.002677    Cartesian   -0.02
    165 y         11.014756     11.012078    -0.002677    Cartesian   -0.02
    165 z         11.014756     11.011569    -0.003187    Cartesian   -0.03
    166 x          8.811805      8.807485    -0.004319    Cartesian   -0.05
    166 y         17.623609     17.610487    -0.013122    Cartesian   -0.07
    166 z          0.000000      0.000000     0.000000    Cartesian    0.00
--------------------------------------------------------------------------------


  Time to end of optimisation  =       44.4960 seconds


  Peak dynamic memory used =     465.08 MB 


  Timing analysis for GULP :

--------------------------------------------------------------------------------
  Task / Subroutine                                          Time (Seconds)
--------------------------------------------------------------------------------
  Calculation of reciprocal space energy and derivatives          0.0003
  Calculation of reciprocal space energy using symmetry           0.0006
  Calculation of real space energy and derivatives                0.0018
  Calculation of real space energy using symmetry                 0.0061
  Calculation for region 1 energy and derivatives (2-b)          25.3640
  Calculation for region 2a energy                               15.7012
  Calculation for region 2b energy                                0.0003
  Calculation and manipulation of Hessian matrix                  2.8519
  Calculation of matrix inversion                                 0.1611
  Symmetry generation of equivalent positions                     0.0033
--------------------------------------------------------------------------------
  Total CPU time                                                 44.4962
--------------------------------------------------------------------------------


  Dump file written as Na3OCl.grs


  Job Finished at 13:14.51  2nd February   2021                               

