********************************************************************************
*                       GENERAL UTILITY LATTICE PROGRAM                        *
*                                 Julian Gale                                  *
*                       Curtin Institute for Computation                       *
*                    School of Molecular and Life Sciences                     *
*                    Curtin University, Western Australia                      *
********************************************************************************
* Version = 5.2.0 * Last modified =  10th September 2020                       *
********************************************************************************
*  optimise     - perform optimisation run                                     *
*  conp         - constant pressure calculation                                *
*  property     - calculate properties for final geometry                      *
*  defect       - perform defect calculation after bulk run                    *
*  compare      - compare initial and final structures                         *
********************************************************************************

  Job Started  at 13:14.20  2nd February   2021                               

  Number of CPUs =     1


  Total number of configurations input =      1

********************************************************************************
*  Input for Configuration =   1                                               *
********************************************************************************

  Formula = ClONa3                                                      

  Number of irreducible atoms/shells =       5


  Total number atoms/shells =       7

  Dimensionality = 3               :  Bulk   


  Symmetry :

  Crystal family                   :  Cubic       
  Crystal class  (Groth - 1921)    :  Cubic Hexakisoctahedral              

  Space group (centrosymmetric)    :  P M 3 M         

  Patterson group                  :  P m -3 m 

  Cartesian lattice vectors (Angstroms) :

        4.504000    0.000000    0.000000
        0.000000    4.504000    0.000000
        0.000000    0.000000    4.504000

  Cell parameters (Angstroms/Degrees):

  a =       4.5040    alpha =  90.0000
  b =       4.5040    beta  =  90.0000
  c =       4.5040    gamma =  90.0000

  Initial cell volume =          91.368216 Angs**3

  Temperature of configuration =   0.00     K 

  Pressure of configuration =         0.000 GPa 

  Fractional coordinates of asymmetric unit :

--------------------------------------------------------------------------------
   No.  Atomic       x           y          z         Charge      Occupancy
        Label      (Frac)      (Frac)     (Frac)        (e)         (Frac)  
--------------------------------------------------------------------------------
      1 Cl    c    0.000000    0.000000    0.000000     1.48500    1.000000    
      2 O     c    0.500000    0.500000    0.500000     0.18300    1.000000    
      3 Na    c    0.500000    0.500000    0.000000     1.00000    1.000000    
      4 Cl    s    0.000000    0.000000    0.000000    -2.48500    1.000000    
      5 O     s    0.500000    0.500000    0.500000    -2.18300    1.000000    
--------------------------------------------------------------------------------


  Constraints : 

--------------------------------------------------------------------------------
  Constraint no.      Unconstrained     Constrained    Coefficient    Offset
                         Variable         Variable
--------------------------------------------------------------------------------
           1              Strain 1        Strain 2       1.00000      0.0000
           2              Strain 1        Strain 3       1.00000      0.0000
--------------------------------------------------------------------------------


********************************************************************************
*  General input information                                                   *
********************************************************************************

  Species output for all configurations : 

--------------------------------------------------------------------------------
  Species    Type    Atomic    Atomic    Charge       Radii (Angs)     Library
                     Number     Mass       (e)     Cova   Ionic  VDW   Symbol
--------------------------------------------------------------------------------
    Na       Core       11      22.99   1.000000   0.970  0.000  2.300          
    O        Core        8      16.00   0.183000   0.730  0.000  1.360          
    O        Shell       8       0.00  -2.183000   0.730  0.000  1.360          
    Cl       Core       17      35.45   1.485000   0.990  0.000  1.650          
    Cl       Shell      17       0.00  -2.485000   0.990  0.000  1.650          
    Mg       Core       12      24.31   0.415000   1.100  0.000  0.000          
    Mg       Shell      12       0.00   1.585000   1.100  0.000  0.000          
    Ca       Core       20      40.08  -1.135000   0.990  0.000  0.000          
    Ca       Shell      20       0.00   3.135000   0.990  0.000  0.000          
    Sr       Core       38      87.62  -1.251000   1.120  0.000  0.000          
    Sr       Shell      38       0.00   3.251000   1.120  0.000  0.000          
    Ba       Core       56     137.33  -7.203000   1.340  0.000  0.000          
    Ba       Shell      56       0.00   9.203000   1.340  0.000  0.000          
--------------------------------------------------------------------------------


  Lattice summation method               =    Ewald          (3-D)
                                         =    Parry          (2-D)
                                         =    Saunders et al (1-D)
  Accuracy factor for lattice sums       =   12.000


  Analytic derivatives to be used

  Time limit = Infinity

  Maximum range for interatomic potentials =    100000.000000 Angstroms

  General interatomic potentials :

--------------------------------------------------------------------------------
Atom  Types   Potential      Parameter       Value         Units   Cutoffs(Ang)
  1     2                                                            Min /  Max 
--------------------------------------------------------------------------------
O    c O    s Spring (c-s)  Spring k 2       593.71600    eV*Ang^-2 0.000  0.800
                            Spring k 4       0.0000000    eV*Ang^-4 
--------------------------------------------------------------------------------
Cl   c Cl   s Spring (c-s)  Spring k 2       29.380000    eV*Ang^-2 0.000  0.800
                            Spring k 4       0.0000000    eV*Ang^-4 
--------------------------------------------------------------------------------
Mg   c Mg   s Spring (c-s)  Spring k 2       361.60000    eV*Ang^-2 0.000  0.800
                            Spring k 4       0.0000000    eV*Ang^-4 
--------------------------------------------------------------------------------
Ca   c Ca   s Spring (c-s)  Spring k 2       110.20000    eV*Ang^-2 0.000  0.800
                            Spring k 4       0.0000000    eV*Ang^-4 
--------------------------------------------------------------------------------
Sr   c Sr   s Spring (c-s)  Spring k 2       71.700000    eV*Ang^-2 0.000  0.800
                            Spring k 4       0.0000000    eV*Ang^-4 
--------------------------------------------------------------------------------
Ba   c Ba   s Spring (c-s)  Spring k 2       495.20000    eV*Ang^-2 0.000  0.800
                            Spring k 4       0.0000000    eV*Ang^-4 
--------------------------------------------------------------------------------
Na   c Na   c Buckingham    Buckingham A     1788.1900    eV        0.000 12.000
                            Buckingham rho  0.15900000    Ang       
                            Buckingham C     0.0000000    eV*Ang^6  
--------------------------------------------------------------------------------
Na   c O    s Buckingham    Buckingham A     588.38000    eV        0.000 12.000
                            Buckingham rho  0.33800000    Ang       
                            Buckingham C     0.0000000    eV*Ang^6  
--------------------------------------------------------------------------------
Na   c Cl   s Buckingham    Buckingham A     1170.4100    eV        0.000 12.000
                            Buckingham rho  0.31500000    Ang       
                            Buckingham C     0.0000000    eV*Ang^6  
--------------------------------------------------------------------------------
O    s O    s Buckingham    Buckingham A     22764.300    eV        0.000 12.000
                            Buckingham rho  0.14900000    Ang       
                            Buckingham C     13.190000    eV*Ang^6  
--------------------------------------------------------------------------------
O    s Cl   s Buckingham    Buckingham A     8286.9100    eV        0.000 12.000
                            Buckingham rho  0.25900000    Ang       
                            Buckingham C     62.200000    eV*Ang^6  
--------------------------------------------------------------------------------
Cl   s Cl   s Buckingham    Buckingham A     1227.2000    eV        0.000 12.000
                            Buckingham rho  0.32100000    Ang       
                            Buckingham C     14.530000    eV*Ang^6  
--------------------------------------------------------------------------------
O    s Mg   s Buckingham    Buckingham A     1428.5000    eV        0.000 12.000
                            Buckingham rho  0.29450000    Ang       
                            Buckingham C     0.0000000    eV*Ang^6  
--------------------------------------------------------------------------------
Mg   s Cl   s Buckingham    Buckingham A     4914.5400    eV        0.000 12.000
                            Buckingham rho  0.25700000    Ang       
                            Buckingham C     0.0000000    eV*Ang^6  
--------------------------------------------------------------------------------
O    s Ca   s Buckingham    Buckingham A     1090.4000    eV        0.000 12.000
                            Buckingham rho  0.34370000    Ang       
                            Buckingham C     0.0000000    eV*Ang^6  
--------------------------------------------------------------------------------
Cl   s Ca   s Buckingham    Buckingham A     2302.0000    eV        0.000 12.000
                            Buckingham rho  0.34020000    Ang       
                            Buckingham C     0.0000000    eV*Ang^6  
--------------------------------------------------------------------------------
O    s Sr   s Buckingham    Buckingham A     959.10000    eV        0.000 12.000
                            Buckingham rho  0.37210000    Ang       
                            Buckingham C     0.0000000    eV*Ang^6  
--------------------------------------------------------------------------------
Cl   s Sr   s Buckingham    Buckingham A     2191.0900    eV        0.000 12.000
                            Buckingham rho  0.34570000    Ang       
                            Buckingham C     0.0000000    eV*Ang^6  
--------------------------------------------------------------------------------
O    s Ba   s Buckingham    Buckingham A     905.70000    eV        0.000 12.000
                            Buckingham rho  0.39760000    Ang       
                            Buckingham C     0.0000000    eV*Ang^6  
--------------------------------------------------------------------------------
Cl   s Ba   s Buckingham    Buckingham A     2704.5500    eV        0.000 12.000
                            Buckingham rho  0.35280000    Ang       
                            Buckingham C     0.0000000    eV*Ang^6  
--------------------------------------------------------------------------------

********************************************************************************
*  Output for configuration   1                                                *
********************************************************************************


  Components of energy : 

--------------------------------------------------------------------------------
  Interatomic potentials     =           4.94315381 eV    
  Monopole - monopole (real) =         -10.03624526 eV    
  Monopole - monopole (recip)=         -29.53581274 eV    
  Monopole - monopole (total)=         -39.57205800 eV    
--------------------------------------------------------------------------------
  Total lattice energy       =         -34.62890419 eV    
--------------------------------------------------------------------------------
  Total lattice energy       =           -3341.1599 kJ/(mole unit cells)
--------------------------------------------------------------------------------


  Number of variables =        1

  Maximum number of calculations  =          1000
  Maximum Hessian update interval =            10
  Maximum step size               =   1.000000000
  Maximum parameter tolerance     =   0.000010000
  Maximum function  tolerance     =   0.000010000
  Maximum gradient  tolerance     =   0.001000000
  Maximum gradient  component     =   0.010000000

  Symmetry constrained optimisation

  Symmetry used for second derivatives

  Cell parameters to be optimised using strains

  Newton-Raphson optimiser to be used

  BFGS hessian update to be used

  Lower half triangular hessian to be used

  Start of bulk optimisation :

  Cycle:      0 Energy:       -34.628904  Gnorm:      4.328237  CPU:    0.016
  ** Hessian calculated **
  Cycle:      1 Energy:       -34.677667  Gnorm:      0.044008  CPU:    0.021
  Cycle:      2 Energy:       -34.677671  Gnorm:      0.003653  CPU:    0.024


  **** Optimisation achieved ****


  Final energy =     -34.67767136 eV
  Final Gnorm  =       0.00000010

  Components of energy : 

--------------------------------------------------------------------------------
  Interatomic potentials     =           5.77546103 eV    
  Monopole - monopole (real) =         -10.25970290 eV    
  Monopole - monopole (recip)=         -30.19342950 eV    
  Monopole - monopole (total)=         -40.45313239 eV    
--------------------------------------------------------------------------------
  Total lattice energy       =         -34.67767136 eV    
--------------------------------------------------------------------------------
  Total lattice energy       =           -3345.8652 kJ/(mole unit cells)
--------------------------------------------------------------------------------

  Final asymmetric unit coordinates :

--------------------------------------------------------------------------------
   No.  Atomic        x           y           z         Radius
        Label       (Frac)      (Frac)      (Frac)       (Angs) 
--------------------------------------------------------------------------------
     1  Cl    c     0.000000    0.000000    0.000000    0.000000
     2  O     c     0.500000    0.500000    0.500000    0.000000
     3  Na    c     0.500000    0.500000    0.000000    0.000000
     4  Cl    s     0.000000    0.000000    0.000000    0.000000
     5  O     s     0.500000    0.500000    0.500000    0.000000
--------------------------------------------------------------------------------

  Final Cartesian lattice vectors (Angstroms) :

        4.405902    0.000000    0.000000
        0.000000    4.405902    0.000000
        0.000000    0.000000    4.405902


  Final cell parameters and derivatives :

--------------------------------------------------------------------------------
       a            4.405902 Angstrom     dE/de1(xx)     0.000000 eV/strain
       b            4.405902 Angstrom     dE/de2(yy)     0.000000 eV/strain
       c            4.405902 Angstrom     dE/de3(zz)     0.000000 eV/strain
       alpha       90.000000 Degrees      dE/de4(yz)     0.000000 eV/strain
       beta        90.000000 Degrees      dE/de5(xz)     0.000000 eV/strain
       gamma       90.000000 Degrees      dE/de6(xy)     0.000000 eV/strain
--------------------------------------------------------------------------------

  Primitive cell volume =            85.527266 Angs**3

  Density of cell =      2.338030 g/cm**3

  Non-primitive cell volume =            85.527266 Angs**3


  Final internal derivatives :

--------------------------------------------------------------------------------
   No.  Atomic          a             b             c           Radius
        Label          (eV)          (eV)          (eV)        (eV/Angs)
--------------------------------------------------------------------------------
      1 Cl    c       0.000000      0.000000      0.000000      0.000000
      2 O     c       0.000000      0.000000      0.000000      0.000000
      3 Na    c       0.000000      0.000000      0.000000      0.000000
      4 Cl    s       0.000000      0.000000      0.000000      0.000000
      5 O     s       0.000000      0.000000      0.000000      0.000000
--------------------------------------------------------------------------------
  Maximum abs         0.000000      0.000000      0.000000      0.000000
--------------------------------------------------------------------------------

  Comparison of initial and final structures : 

--------------------------------------------------------------------------------
  Parameter   Initial value   Final value   Difference    Units      Percent
--------------------------------------------------------------------------------
    Volume        91.368216     85.527266    -5.840950    Angs**3     -6.39
    a              4.504000      4.405902    -0.098098    Angstroms   -2.18
    b              4.504000      4.405902    -0.098098    Angstroms   -2.18
    c              4.504000      4.405902    -0.098098    Angstroms   -2.18
    alpha         90.000000     90.000000     0.000000    Degrees      0.00
    beta          90.000000     90.000000     0.000000    Degrees      0.00
    gamma         90.000000     90.000000     0.000000    Degrees      0.00
      1 x          0.000000      0.000000     0.000000    Fractional   0.00
      1 y          0.000000      0.000000     0.000000    Fractional   0.00
      1 z          0.000000      0.000000     0.000000    Fractional   0.00
      2 x          0.500000      0.500000     0.000000    Fractional   0.00
      2 y          0.500000      0.500000     0.000000    Fractional   0.00
      2 z          0.500000      0.500000     0.000000    Fractional   0.00
      3 x          0.500000      0.500000     0.000000    Fractional   0.00
      3 y          0.500000      0.500000     0.000000    Fractional   0.00
      3 z          0.000000      0.000000     0.000000    Fractional   0.00
      4 x          0.000000      0.000000     0.000000    Fractional   0.00
      4 y          0.000000      0.000000     0.000000    Fractional   0.00
      4 z          0.000000      0.000000     0.000000    Fractional   0.00
      5 x          0.500000      0.500000     0.000000    Fractional   0.00
      5 y          0.500000      0.500000     0.000000    Fractional   0.00
      5 z          0.500000      0.500000     0.000000    Fractional   0.00
--------------------------------------------------------------------------------


  Born effective charge tensors : 

-------------------------------------------------------------------------------
  Atom             x           y             z
-------------------------------------------------------------------------------
    1 Cl    x      -0.9918     -0.0000     -0.0000
            y      -0.0000     -0.9918     -0.0000
            z      -0.0000     -0.0000     -0.9918
-------------------------------------------------------------------------------
    2 O     x      -2.2939      0.0000      0.0000
            y       0.0000     -2.2939      0.0000
            z       0.0000      0.0000     -2.2939
-------------------------------------------------------------------------------
    3 Na    x       1.2243      0.0000      0.0000
            y       0.0000      1.2243     -0.0000
            z       0.0000      0.0000      0.8372
-------------------------------------------------------------------------------




  Elastic Constant Matrix: (Units=GPa)

-------------------------------------------------------------------------------
  Indices      1         2         3         4         5         6    
-------------------------------------------------------------------------------
       1     82.7680   24.3534   24.3534   -0.0000    0.0000   -0.0000
       2     24.3534   82.7680   24.3534    0.0000   -0.0000   -0.0000
       3     24.3534   24.3534   82.7680    0.0000   -0.0000    0.0000
       4     -0.0000    0.0000    0.0000   24.3534   -0.0000    0.0000
       5      0.0000   -0.0000   -0.0000   -0.0000   24.3534    0.0000
       6     -0.0000   -0.0000    0.0000    0.0000    0.0000   24.3534
-------------------------------------------------------------------------------


  Elastic Compliance Matrix: (Units=1/GPa)

-------------------------------------------------------------------------------
  Indices      1         2         3         4         5         6    
-------------------------------------------------------------------------------
       1    0.013948 -0.003171 -0.003171  0.000000 -0.000000  0.000000
       2   -0.003171  0.013948 -0.003171 -0.000000  0.000000 -0.000000
       3   -0.003171 -0.003171  0.013948 -0.000000  0.000000 -0.000000
       4    0.000000 -0.000000 -0.000000  0.041062  0.000000 -0.000000
       5   -0.000000  0.000000  0.000000  0.000000  0.041062 -0.000000
       6    0.000000 -0.000000 -0.000000 -0.000000 -0.000000  0.041062
-------------------------------------------------------------------------------

  Mechanical properties :

-------------------------------------------------------------------------------
  Convention :                    Reuss         Voigt         Hill
-------------------------------------------------------------------------------
  Bulk  Modulus (GPa)     =      43.82493      43.82493      43.82493
  Shear Modulus (GPa)     =      26.08758      26.29496      26.19127
-------------------------------------------------------------------------------
  Velocity S-wave (km/s)  =       3.34035       3.35360       3.34698
  Velocity P-wave (km/s)  =       5.79842       5.80861       5.80351
-------------------------------------------------------------------------------
  Compressibility (1/GPa) =    0.02281806
-------------------------------------------------------------------------------
  Stress axis :                     x             y             z
-------------------------------------------------------------------------------
  Youngs Moduli (GPa)     =      71.69479      71.69479      71.69479
-------------------------------------------------------------------------------
  Poissons Ratio (x)      =                     0.22734       0.22734
  Poissons Ratio (y)      =       0.22734                     0.22734
  Poissons Ratio (z)      =       0.22734       0.22734
-------------------------------------------------------------------------------


  Piezoelectric Strain Matrix: (Units=C/m**2)

-------------------------------------------------------------------------------
  Indices      1         2         3         4         5         6    
-------------------------------------------------------------------------------
       x    -0.00000  -0.00000  -0.00000  -0.00000   0.00000  -0.00000
       y     0.00000  -0.00000   0.00000   0.00000  -0.00000   0.00000
       z    -0.00000  -0.00000   0.00000  -0.00000   0.00000  -0.00000
-------------------------------------------------------------------------------


  Piezoelectric Stress Matrix: (Units=10**-11 C/N)

-------------------------------------------------------------------------------
  Indices      1         2         3         4         5         6    
-------------------------------------------------------------------------------
       x     0.00000  -0.00000  -0.00000  -0.00000   0.00000  -0.00000
       y     0.00000  -0.00000   0.00000   0.00000  -0.00000   0.00000
       z    -0.00000  -0.00000   0.00000  -0.00000   0.00000  -0.00000
-------------------------------------------------------------------------------


  Static dielectric constant tensor : 

-------------------------------------------------------------------------------
              x         y         z
-------------------------------------------------------------------------------
       x    11.08357   0.00000   0.00000
       y     0.00000  11.08357   0.00000
       z     0.00000   0.00000  11.08357
--------------------------------------------------------------------------------

  High frequency dielectric constant tensor : 

-------------------------------------------------------------------------------
              x         y         z
-------------------------------------------------------------------------------
       x     1.50771   0.00000   0.00000
       y     0.00000   1.50771   0.00000
       z     0.00000   0.00000   1.50771
-------------------------------------------------------------------------------

  Static refractive indices : 

-------------------------------------------------------------------------------
    1 =    3.32920      2 =    3.32920      3 =    3.32920
-------------------------------------------------------------------------------

  High frequency refractive indices : 

-------------------------------------------------------------------------------
    1 =    1.22789      2 =    1.22789      3 =    1.22789
-------------------------------------------------------------------------------


  Time to end of optimisation =       0.0346 seconds

********************************************************************************
*  Defect calculation for configuration   1 :                                  *
********************************************************************************

  Total number of defects =      1

  Total charge on defect  =   1.00

  Defect centre is at   0.5000   0.5000   0.0000  Frac

  Region 1 radius =  19.0000      Number of ions =   2438

  Number of symmetry inequivalent region 1 ions  =    229

  Region 2 radius =  24.0000      Number of ions =   2338

  Number of symmetry inequivalent region 2a ions =    186

  Region 2a mode = 4 : screened electrostatics due to region 1 
                       neglect correction to region 1 forces from 2a
                       region 2a displacements based on defects only

  Region 2a ions will only interact with defects in region 1

  Impurities:

--------------------------------------------------------------------------------
    Specification type     Symbol/Number         x          y          z
--------------------------------------------------------------------------------
    Frac/Symbol             Mg               0.500000   0.500000   0.000000
--------------------------------------------------------------------------------


  Symmetry reduced region 1 (Relative to defect centre) :

--------------------------------------------------------------------------------
   No.   Atomic       x            y             z       Radius  Multiplicity   
         Label      (Angs)       (Angs)        (Angs)    (Angs)     
--------------------------------------------------------------------------------
     1  Mg    c      0.0000       0.0000       0.0000    0.0000     1    Defect
     2  O     c      0.0000       0.0000      -2.2030 *  0.0000     2          
     3  Cl    c      2.2030 *     2.2030       0.0000    0.0000     4          
     4  Na    c      2.2030 *     0.0000      -2.2030 *  0.0000     8          
     5  Na    c      0.0000       0.0000       4.4059 *  0.0000     2          
     6  Na    c      0.0000       4.4059 *     0.0000    0.0000     4          
     7  O     c      0.0000       4.4059 *    -2.2030 *  0.0000     8          
     8  Na    c      2.2030 *     4.4059 *    -2.2030 *  0.0000    16          
     9  Cl    c      2.2030 *     2.2030       4.4059 *  0.0000     8          
    10  Na    c      0.0000       4.4059 *     4.4059 *  0.0000     8          
    11  Na    c      4.4059 *     4.4059       0.0000    0.0000     4          
    12  O     c      0.0000       0.0000       6.6089 *  0.0000     2          
    13  O     c      4.4059 *     4.4059      -2.2030 *  0.0000     8          
    14  Cl    c      2.2030 *     6.6089 *     0.0000    0.0000     8          
    15  Na    c      2.2030 *     0.0000       6.6089 *  0.0000     8          
    16  Na    c      6.6089 *     0.0000      -2.2030 *  0.0000     8          
    17  Na    c      4.4059 *     4.4059       4.4059 *  0.0000     8          
    18  O     c      0.0000       4.4059 *     6.6089 *  0.0000     8          
    19  Cl    c      2.2030 *     6.6089 *     4.4059 *  0.0000    16          
    20  Na    c      2.2030 *     4.4059 *     6.6089 *  0.0000    16          
    21  Na    c      6.6089 *     4.4059 *    -2.2030 *  0.0000    16          
    22  Na    c      0.0000       0.0000       8.8118 *  0.0000     2          
    23  Na    c      0.0000       8.8118 *     0.0000    0.0000     4          
    24  O     c      4.4059 *     4.4059       6.6089 *  0.0000     8          
    25  O     c      0.0000       8.8118 *    -2.2030 *  0.0000     8          
    26  Cl    c      2.2030 *     2.2030       8.8118 *  0.0000     8          
    27  Cl    c      6.6089 *     6.6089       0.0000    0.0000     4          
    28  Na    c      6.6089 *     0.0000       6.6089 *  0.0000     8          
    29  Na    c      2.2030 *     8.8118 *    -2.2030 *  0.0000    16          
    30  Na    c      0.0000       4.4059 *     8.8118 *  0.0000     8          
    31  Na    c      0.0000       8.8118 *     4.4059 *  0.0000     8          
    32  Na    c      4.4059 *     8.8118 *     0.0000    0.0000     8          
    33  O     c      4.4059 *     8.8118 *    -2.2030 *  0.0000    16          
    34  Cl    c      6.6089 *     6.6089       4.4059 *  0.0000     8          
    35  Na    c      6.6089 *     4.4059 *     6.6089 *  0.0000    16          
    36  Na    c      4.4059 *     8.8118 *     4.4059 *  0.0000    16          
    37  Na    c      4.4059 *     4.4059       8.8118 *  0.0000     8          
    38  O     c      0.0000       0.0000      11.0148 *  0.0000     2          
    39  O     c      0.0000       8.8118 *     6.6089 *  0.0000     8          
    40  Cl    c      2.2030 *     6.6089 *     8.8118 *  0.0000    16          
    41  Cl    c      2.2030 *    11.0148 *     0.0000    0.0000     8          
    42  Na    c      2.2030 *     0.0000      11.0148 *  0.0000     8          
    43  Na    c      2.2030 *     8.8118 *     6.6089 *  0.0000    16          
    44  Na    c     11.0148 *     0.0000      -2.2030 *  0.0000     8          
    45  Na    c      6.6089 *     8.8118 *    -2.2030 *  0.0000    16          
    46  O     c      0.0000       4.4059 *    11.0148 *  0.0000     8          
    47  O     c      4.4059 *     8.8118 *     6.6089 *  0.0000    16          
    48  Cl    c      2.2030 *    11.0148 *     4.4059 *  0.0000    16          
    49  Na    c      2.2030 *     4.4059 *    11.0148 *  0.0000    16          
    50  Na    c     11.0148 *     4.4059 *    -2.2030 *  0.0000    16          
    51  Na    c      0.0000       8.8118 *     8.8118 *  0.0000     8          
    52  Na    c      8.8118 *     8.8118       0.0000    0.0000     4          
    53  O     c      4.4059 *     4.4059      11.0148 *  0.0000     8          
    54  O     c      8.8118 *     8.8118      -2.2030 *  0.0000     8          
    55  Cl    c      6.6089 *     6.6089       8.8118 *  0.0000     8          
    56  Cl    c      6.6089 *    11.0148 *     0.0000    0.0000     8          
    57  Na    c      6.6089 *     0.0000      11.0148 *  0.0000     8          
    58  Na    c     11.0148 *     0.0000       6.6089 *  0.0000     8          
    59  Na    c      6.6089 *     8.8118 *     6.6089 *  0.0000    16          
    60  Na    c      0.0000       0.0000      13.2177 *  0.0000     2          
    61  Na    c      0.0000      13.2177 *     0.0000    0.0000     4          
    62  Na    c      4.4059 *     8.8118 *     8.8118 *  0.0000    16          
    63  Na    c      8.8118 *     8.8118       4.4059 *  0.0000     8          
    64  O     c      0.0000      13.2177 *    -2.2030 *  0.0000     8          
    65  Cl    c      6.6089 *    11.0148 *     4.4059 *  0.0000    16          
    66  Na    c      2.2030 *    13.2177 *    -2.2030 *  0.0000    16          
    67  Cl    c      2.2030 *     2.2030      13.2177 *  0.0000     8          
    68  Na    c      6.6089 *     4.4059 *    11.0148 *  0.0000    16          
    69  Na    c     11.0148 *     4.4059 *     6.6089 *  0.0000    16          
    70  Na    c      0.0000       4.4059 *    13.2177 *  0.0000     8          
    71  Na    c      0.0000      13.2177 *     4.4059 *  0.0000     8          
    72  Na    c      4.4059 *    13.2177 *     0.0000    0.0000     8          
    73  O     c      4.4059 *    13.2177 *    -2.2030 *  0.0000    16          
    74  O     c      0.0000       8.8118 *    11.0148 *  0.0000     8          
    75  O     c      8.8118 *     8.8118       6.6089 *  0.0000     8          
    76  Cl    c      2.2030 *    11.0148 *     8.8118 *  0.0000    16          
    77  Na    c      2.2030 *     8.8118 *    11.0148 *  0.0000    16          
    78  Na    c     11.0148 *     8.8118 *    -2.2030 *  0.0000    16          
    79  Na    c      4.4059 *    13.2177 *     4.4059 *  0.0000    16          
    80  Na    c      4.4059 *     4.4059      13.2177 *  0.0000     8          
    81  O     c      4.4059 *     8.8118 *    11.0148 *  0.0000    16          
    82  O     c      0.0000      13.2177 *     6.6089 *  0.0000     8          
    83  Cl    c      2.2030 *     6.6089 *    13.2177 *  0.0000    16          
    84  Na    c      2.2030 *    13.2177 *     6.6089 *  0.0000    16          
    85  Na    c      6.6089 *    13.2177 *    -2.2030 *  0.0000    16          
    86  Na    c      8.8118 *     8.8118       8.8118 *  0.0000     8          
    87  O     c      0.0000       0.0000      15.4207 *  0.0000     2          
    88  O     c      4.4059 *    13.2177 *     6.6089 *  0.0000    16          
    89  Cl    c      2.2030 *    15.4207 *     0.0000    0.0000     8          
    90  Cl    c      6.6089 *    11.0148 *     8.8118 *  0.0000    16          
    91  Cl    c     11.0148 *    11.0148       0.0000    0.0000     4          
    92  Na    c      2.2030 *     0.0000      15.4207 *  0.0000     8          
    93  Na    c     11.0148 *     0.0000      11.0148 *  0.0000     8          
    94  Na    c     15.4207 *     0.0000      -2.2030 *  0.0000     8          
    95  Na    c      6.6089 *     8.8118 *    11.0148 *  0.0000    16          
    96  Na    c     11.0148 *     8.8118 *     6.6089 *  0.0000    16          
    97  Na    c      0.0000       8.8118 *    13.2177 *  0.0000     8          
    98  Na    c      0.0000      13.2177 *     8.8118 *  0.0000     8          
    99  Na    c      8.8118 *    13.2177 *     0.0000    0.0000     8          
   100  O     c      0.0000       4.4059 *    15.4207 *  0.0000     8          
   101  O     c      8.8118 *    13.2177 *    -2.2030 *  0.0000    16          
   102  Cl    c      2.2030 *    15.4207 *     4.4059 *  0.0000    16          
   103  Cl    c      6.6089 *     6.6089      13.2177 *  0.0000     8          
   104  Cl    c     11.0148 *    11.0148       4.4059 *  0.0000     8          
   105  Na    c      2.2030 *     4.4059 *    15.4207 *  0.0000    16          
   106  Na    c      6.6089 *    13.2177 *     6.6089 *  0.0000    16          
   107  Na    c     11.0148 *     4.4059 *    11.0148 *  0.0000    16          
   108  Na    c     15.4207 *     4.4059 *    -2.2030 *  0.0000    16          
   109  Na    c      4.4059 *     8.8118 *    13.2177 *  0.0000    16          
   110  Na    c      4.4059 *    13.2177 *     8.8118 *  0.0000    16          
   111  Na    c      8.8118 *    13.2177 *     4.4059 *  0.0000    16          
   112  O     c      4.4059 *     4.4059      15.4207 *  0.0000     8          
   113  O     c      8.8118 *     8.8118      11.0148 *  0.0000     8          
   114  Cl    c      6.6089 *    15.4207 *     0.0000    0.0000     8          
   115  Na    c      6.6089 *     0.0000      15.4207 *  0.0000     8          
   116  Na    c     15.4207 *     0.0000       6.6089 *  0.0000     8          
   117  O     c      0.0000      13.2177 *    11.0148 *  0.0000     8          
   118  O     c      8.8118 *    13.2177 *     6.6089 *  0.0000    16          
   119  Cl    c      2.2030 *    11.0148 *    13.2177 *  0.0000    16          
   120  Na    c      2.2030 *    13.2177 *    11.0148 *  0.0000    16          
   121  Na    c      6.6089 *     4.4059 *    15.4207 *  0.0000    16          
   122  Cl    c      6.6089 *    15.4207 *     4.4059 *  0.0000    16          
   123  Na    c     11.0148 *    13.2177 *    -2.2030 *  0.0000    16          
   124  Na    c     15.4207 *     4.4059 *     6.6089 *  0.0000    16          
   125  Na    c      0.0000       0.0000      17.6236 *  0.0000     2          
   126  Na    c      0.0000      17.6236 *     0.0000    0.0000     4          
   127  O     c      4.4059 *    13.2177 *    11.0148 *  0.0000    16          
   128  O     c      0.0000       8.8118 *    15.4207 *  0.0000     8          
   129  O     c      0.0000      17.6236 *    -2.2030 *  0.0000     8          
   130  Cl    c      2.2030 *     2.2030      17.6236 *  0.0000     8          
   131  Cl    c      2.2030 *    15.4207 *     8.8118 *  0.0000    16          
   132  Cl    c     11.0148 *    11.0148       8.8118 *  0.0000     8          
   133  Na    c      2.2030 *     8.8118 *    15.4207 *  0.0000    16          
   134  Na    c     11.0148 *     8.8118 *    11.0148 *  0.0000    16          
   135  Na    c      2.2030 *    17.6236 *    -2.2030 *  0.0000    16          
   136  Na    c     15.4207 *     8.8118 *    -2.2030 *  0.0000    16          
   137  Na    c      8.8118 *     8.8118      13.2177 *  0.0000     8          
   138  Na    c      8.8118 *    13.2177 *     8.8118 *  0.0000    16          
   139  Na    c      0.0000       4.4059 *    17.6236 *  0.0000     8          
   140  Na    c      0.0000      17.6236 *     4.4059 *  0.0000     8          
   141  Na    c      4.4059 *    17.6236 *     0.0000    0.0000     8          
   142  O     c      4.4059 *     8.8118 *    15.4207 *  0.0000    16          
   143  O     c      4.4059 *    17.6236 *    -2.2030 *  0.0000    16          
   144  Cl    c      6.6089 *    11.0148 *    13.2177 *  0.0000    16          
   145  Na    c      6.6089 *    13.2177 *    11.0148 *  0.0000    16          
   146  Na    c     11.0148 *    13.2177 *     6.6089 *  0.0000    16          
   147  Na    c      0.0000      13.2177 *    13.2177 *  0.0000     8          
   148  Na    c      4.4059 *     4.4059      17.6236 *  0.0000     8          
   149  Na    c     13.2177 *    13.2177       0.0000    0.0000     4          
   150  Na    c      4.4059 *    17.6236 *     4.4059 *  0.0000    16          
   151  O     c      0.0000      17.6236 *     6.6089 *  0.0000     8          
   152  O     c     13.2177 *    13.2177      -2.2030 *  0.0000     8          
   153  Cl    c      2.2030 *     6.6089 *    17.6236 *  0.0000    16          
   154  Cl    c      6.6089 *    15.4207 *     8.8118 *  0.0000    16          
   155  Cl    c     11.0148 *    15.4207 *     0.0000    0.0000     8          
   156  Na    c      6.6089 *     8.8118 *    15.4207 *  0.0000    16          
   157  Na    c     11.0148 *     0.0000      15.4207 *  0.0000     8          
   158  Na    c     15.4207 *     0.0000      11.0148 *  0.0000     8          
   159  Na    c      2.2030 *    17.6236 *     6.6089 *  0.0000    16          
   160  Na    c      6.6089 *    17.6236 *    -2.2030 *  0.0000    16          
   161  Na    c     15.4207 *     8.8118 *     6.6089 *  0.0000    16          
   162  Mg    s      0.0000       0.0000       0.0000    0.0000     1    Defect
   163  O     s      0.0000       0.0000      -2.2030 *  0.0000     2          
   164  Cl    s      2.2030 *     2.2030       0.0000    0.0000     4          
   165  O     s      0.0000       4.4059 *    -2.2030 *  0.0000     8          
   166  Cl    s      2.2030 *     2.2030       4.4059 *  0.0000     8          
   167  O     s      0.0000       0.0000       6.6089 *  0.0000     2          
   168  O     s      4.4059 *     4.4059      -2.2030 *  0.0000     8          
   169  Cl    s      2.2030 *     6.6089 *     0.0000    0.0000     8          
   170  O     s      0.0000       4.4059 *     6.6089 *  0.0000     8          
   171  Cl    s      2.2030 *     6.6089 *     4.4059 *  0.0000    16          
   172  O     s      4.4059 *     4.4059       6.6089 *  0.0000     8          
   173  O     s      0.0000       8.8118 *    -2.2030 *  0.0000     8          
   174  Cl    s      2.2030 *     2.2030       8.8118 *  0.0000     8          
   175  Cl    s      6.6089 *     6.6089       0.0000    0.0000     4          
   176  O     s      4.4059 *     8.8118 *    -2.2030 *  0.0000    16          
   177  Cl    s      6.6089 *     6.6089       4.4059 *  0.0000     8          
   178  O     s      0.0000       0.0000      11.0148 *  0.0000     2          
   179  O     s      0.0000       8.8118 *     6.6089 *  0.0000     8          
   180  Cl    s      2.2030 *     6.6089 *     8.8118 *  0.0000    16          
   181  Cl    s      2.2030 *    11.0148 *     0.0000    0.0000     8          
   182  O     s      0.0000       4.4059 *    11.0148 *  0.0000     8          
   183  O     s      4.4059 *     8.8118 *     6.6089 *  0.0000    16          
   184  Cl    s      2.2030 *    11.0148 *     4.4059 *  0.0000    16          
   185  O     s      4.4059 *     4.4059      11.0148 *  0.0000     8          
   186  O     s      8.8118 *     8.8118      -2.2030 *  0.0000     8          
   187  Cl    s      6.6089 *     6.6089       8.8118 *  0.0000     8          
   188  Cl    s      6.6089 *    11.0148 *     0.0000    0.0000     8          
   189  O     s      0.0000      13.2177 *    -2.2030 *  0.0000     8          
   190  Cl    s      6.6089 *    11.0148 *     4.4059 *  0.0000    16          
   191  Cl    s      2.2030 *     2.2030      13.2177 *  0.0000     8          
   192  O     s      4.4059 *    13.2177 *    -2.2030 *  0.0000    16          
   193  O     s      0.0000       8.8118 *    11.0148 *  0.0000     8          
   194  O     s      8.8118 *     8.8118       6.6089 *  0.0000     8          
   195  Cl    s      2.2030 *    11.0148 *     8.8118 *  0.0000    16          
   196  O     s      4.4059 *     8.8118 *    11.0148 *  0.0000    16          
   197  O     s      0.0000      13.2177 *     6.6089 *  0.0000     8          
   198  Cl    s      2.2030 *     6.6089 *    13.2177 *  0.0000    16          
   199  O     s      0.0000       0.0000      15.4207 *  0.0000     2          
   200  O     s      4.4059 *    13.2177 *     6.6089 *  0.0000    16          
   201  Cl    s      2.2030 *    15.4207 *     0.0000    0.0000     8          
   202  Cl    s      6.6089 *    11.0148 *     8.8118 *  0.0000    16          
   203  Cl    s     11.0148 *    11.0148       0.0000    0.0000     4          
   204  O     s      0.0000       4.4059 *    15.4207 *  0.0000     8          
   205  O     s      8.8118 *    13.2177 *    -2.2030 *  0.0000    16          
   206  Cl    s      2.2030 *    15.4207 *     4.4059 *  0.0000    16          
   207  Cl    s      6.6089 *     6.6089      13.2177 *  0.0000     8          
   208  Cl    s     11.0148 *    11.0148       4.4059 *  0.0000     8          
   209  O     s      4.4059 *     4.4059      15.4207 *  0.0000     8          
   210  O     s      8.8118 *     8.8118      11.0148 *  0.0000     8          
   211  Cl    s      6.6089 *    15.4207 *     0.0000    0.0000     8          
   212  O     s      0.0000      13.2177 *    11.0148 *  0.0000     8          
   213  O     s      8.8118 *    13.2177 *     6.6089 *  0.0000    16          
   214  Cl    s      2.2030 *    11.0148 *    13.2177 *  0.0000    16          
   215  Cl    s      6.6089 *    15.4207 *     4.4059 *  0.0000    16          
   216  O     s      4.4059 *    13.2177 *    11.0148 *  0.0000    16          
   217  O     s      0.0000       8.8118 *    15.4207 *  0.0000     8          
   218  O     s      0.0000      17.6236 *    -2.2030 *  0.0000     8          
   219  Cl    s      2.2030 *     2.2030      17.6236 *  0.0000     8          
   220  Cl    s      2.2030 *    15.4207 *     8.8118 *  0.0000    16          
   221  Cl    s     11.0148 *    11.0148       8.8118 *  0.0000     8          
   222  O     s      4.4059 *     8.8118 *    15.4207 *  0.0000    16          
   223  O     s      4.4059 *    17.6236 *    -2.2030 *  0.0000    16          
   224  Cl    s      6.6089 *    11.0148 *    13.2177 *  0.0000    16          
   225  O     s      0.0000      17.6236 *     6.6089 *  0.0000     8          
   226  O     s     13.2177 *    13.2177      -2.2030 *  0.0000     8          
   227  Cl    s      2.2030 *     6.6089 *    17.6236 *  0.0000    16          
   228  Cl    s      6.6089 *    15.4207 *     8.8118 *  0.0000    16          
   229  Cl    s     11.0148 *    15.4207 *     0.0000    0.0000     8          
--------------------------------------------------------------------------------


  Constraints on symmetry reduced coordinates :

--------------------------------------------------------------------------------
  Constraint no.      Unconstrained     Constrained    Coefficient    
                         Variable         Variable
--------------------------------------------------------------------------------
           1                 3 x             3 y         1.00000
           2                 9 x             9 y         1.00000
           3                11 x            11 y         1.00000
           4                13 x            13 y         1.00000
           5                17 x            17 y         1.00000
           6                24 x            24 y         1.00000
           7                26 x            26 y         1.00000
           8                27 x            27 y         1.00000
           9                34 x            34 y         1.00000
          10                37 x            37 y         1.00000
          11                52 x            52 y         1.00000
          12                53 x            53 y         1.00000
          13                54 x            54 y         1.00000
          14                55 x            55 y         1.00000
          15                63 x            63 y         1.00000
          16                67 x            67 y         1.00000
          17                75 x            75 y         1.00000
          18                80 x            80 y         1.00000
          19                86 x            86 y         1.00000
          20                91 x            91 y         1.00000
          21               103 x           103 y         1.00000
          22               104 x           104 y         1.00000
          23               112 x           112 y         1.00000
          24               113 x           113 y         1.00000
          25               130 x           130 y         1.00000
          26               132 x           132 y         1.00000
          27               137 x           137 y         1.00000
          28               148 x           148 y         1.00000
          29               149 x           149 y         1.00000
          30               152 x           152 y         1.00000
          31               164 x           164 y         1.00000
          32               166 x           166 y         1.00000
          33               168 x           168 y         1.00000
          34               172 x           172 y         1.00000
          35               174 x           174 y         1.00000
          36               175 x           175 y         1.00000
          37               177 x           177 y         1.00000
          38               185 x           185 y         1.00000
          39               186 x           186 y         1.00000
          40               187 x           187 y         1.00000
          41               191 x           191 y         1.00000
          42               194 x           194 y         1.00000
          43               203 x           203 y         1.00000
          44               207 x           207 y         1.00000
          45               208 x           208 y         1.00000
          46               209 x           209 y         1.00000
          47               210 x           210 y         1.00000
          48               219 x           219 y         1.00000
          49               221 x           221 y         1.00000
          50               226 x           226 y         1.00000
--------------------------------------------------------------------------------


  Components of defect energy : 

--------------------------------------------------------------------------------
  Region 1 - region 1                   =      7.86549389 eV
  Region 1 - region 2a (unrelaxed)      =    -18.67437412 eV
  Region 1 - 2a (relaxed - correction)  =     -0.13398006 eV
  Region 1 (Total)                      =    -10.94286030 eV
  Region 2a                             =      0.06699612 eV
  Region 2b                             =     -0.27216525 eV
--------------------------------------------------------------------------------
  Total defect energy                   =    -11.14802943 eV
--------------------------------------------------------------------------------

  Largest displacement in region 2 =   0.0062 Angstroms


  Number of variables =      522

  Maximum number of calculations  =        1000
  Maximum Hessian update interval =          10
  Maximum step size               =   1.0000000
  Maximum parameter tolerance     =   0.0000100
  Maximum function  tolerance     =   0.0000100
  Maximum gradient  tolerance     =   0.0010000

  Symmetry adapted optimisation

  Symmetry to be used for second derivatives

  Newton-Raphson optimiser to be used

  BFGS hessian update to be used

  Lower half triangular hessian to be used

  Start of defect optimisation :

  Cycle:      0 Defect Energy: -11.148029  Gnorm:     0.084326  CPU:   17.684
  ** Hessian calculated **
  Cycle:      1 Defect Energy: -14.806246  Gnorm:     0.052410  CPU:   35.121
  ** Hessian calculated **
  Cycle:      2 Defect Energy: -16.256205  Gnorm:     0.003451  CPU:   44.107
  Cycle:      3 Defect Energy: -16.282258  Gnorm:     0.001739  CPU:   45.517
  Cycle:      4 Defect Energy: -16.286691  Gnorm:     0.001181  CPU:   46.954
  Cycle:      5 Defect Energy: -16.289114  Gnorm:     0.000815  CPU:   48.406
  Cycle:      6 Defect Energy: -16.290305  Gnorm:     0.000567  CPU:   49.770
  Cycle:      7 Defect Energy: -16.290891  Gnorm:     0.000398  CPU:   51.008
  Cycle:      8 Defect Energy: -16.291178  Gnorm:     0.000279  CPU:   52.330
  Cycle:      9 Defect Energy: -16.291317  Gnorm:     0.000196  CPU:   53.810
  Cycle:     10 Defect Energy: -16.291385  Gnorm:     0.000140  CPU:   55.140
  Cycle:     11 Defect Energy: -16.291418  Gnorm:     0.000101  CPU:   56.350
  ** Hessian calculated **
  Cycle:     12 Defect Energy: -16.291433  Gnorm:     0.000072  CPU:   59.659


  **** Optimisation achieved ****


  Final defect energy  =      -16.29144023
  Final defect Gnorm   =        0.00005056

  Components of defect energy : 

--------------------------------------------------------------------------------
  Region 1 - region 1                   =      1.13528940 eV
  Region 1 - region 2a (unrelaxed)      =    -17.09851952 eV
  Region 1 - 2a (relaxed - correction)  =     -0.11207957 eV
  Region 1 (Total)                      =    -16.07530969 eV
  Region 2a                             =      0.05603471 eV
  Region 2b                             =     -0.27216525 eV
--------------------------------------------------------------------------------
  Total defect energy                   =    -16.29144023 eV
--------------------------------------------------------------------------------

  Largest displacement in region 2 =   0.0062 Angstroms

  Final coordinates of region 1 :

--------------------------------------------------------------------------------
   No.  Atomic        x           y           z          Radius      Charge
        Label       (Angs)      (Angs)      (Angs)       (Angs)       (e) 
--------------------------------------------------------------------------------
     1  Mg    c     2.202951    2.202951    0.000000    0.000000    0.415000
     2  O     c     2.202951    2.202951   -1.870215    0.000000    0.183000
     3  O     c     2.202951    2.202951    1.870215    0.000000    0.183000
     4  Cl    c     4.144809    4.144809    0.000000    0.000000    1.485000
     5  Cl    c     4.144809    0.261093    0.000000    0.000000    1.485000
     6  Cl    c     0.261093    4.144809    0.000000    0.000000    1.485000
     7  Cl    c     0.261093    0.261093    0.000000    0.000000    1.485000
     8  Na    c     4.457333    2.202951   -2.203236    0.000000    1.000000
     9  Na    c     4.457333    2.202951    2.203236    0.000000    1.000000
    10  Na    c    -0.051431    2.202951   -2.203236    0.000000    1.000000
    11  Na    c    -0.051431    2.202951    2.203236    0.000000    1.000000
    12  Na    c     2.202951    4.457333   -2.203236    0.000000    1.000000
    13  Na    c     2.202951    4.457333    2.203236    0.000000    1.000000
    14  Na    c     2.202951   -0.051431   -2.203236    0.000000    1.000000
    15  Na    c     2.202951   -0.051431    2.203236    0.000000    1.000000
    16  Na    c     2.202951    2.202951    4.330095    0.000000    1.000000
    17  Na    c     2.202951    2.202951   -4.330095    0.000000    1.000000
    18  Na    c     2.202951    6.619777    0.000000    0.000000    1.000000
    19  Na    c     2.202951   -2.213875    0.000000    0.000000    1.000000
    20  Na    c     6.619777    2.202951    0.000000    0.000000    1.000000
    21  Na    c    -2.213875    2.202951    0.000000    0.000000    1.000000
    22  O     c     2.202951    6.641456   -2.196236    0.000000    0.183000
    23  O     c     2.202951    6.641456    2.196236    0.000000    0.183000
    24  O     c     2.202951   -2.235554   -2.196236    0.000000    0.183000
    25  O     c     2.202951   -2.235554    2.196236    0.000000    0.183000
    26  O     c     6.641456    2.202951   -2.196236    0.000000    0.183000
    27  O     c     6.641456    2.202951    2.196236    0.000000    0.183000
    28  O     c    -2.235554    2.202951   -2.196236    0.000000    0.183000
    29  O     c    -2.235554    2.202951    2.196236    0.000000    0.183000
    30  Na    c     4.404459    6.651989   -2.231184    0.000000    1.000000
    31  Na    c     4.404459    6.651989    2.231184    0.000000    1.000000
    32  Na    c     4.404459   -2.246087   -2.231184    0.000000    1.000000
    33  Na    c     4.404459   -2.246087    2.231184    0.000000    1.000000
    34  Na    c     0.001444    6.651989   -2.231184    0.000000    1.000000
    35  Na    c     0.001444    6.651989    2.231184    0.000000    1.000000
    36  Na    c     0.001444   -2.246087   -2.231184    0.000000    1.000000
    37  Na    c     0.001444   -2.246087    2.231184    0.000000    1.000000
    38  Na    c     6.651989    4.404459   -2.231184    0.000000    1.000000
    39  Na    c     6.651989    4.404459    2.231184    0.000000    1.000000
    40  Na    c     6.651989    0.001444   -2.231184    0.000000    1.000000
    41  Na    c     6.651989    0.001444    2.231184    0.000000    1.000000
    42  Na    c    -2.246087    4.404459   -2.231184    0.000000    1.000000
    43  Na    c    -2.246087    4.404459    2.231184    0.000000    1.000000
    44  Na    c    -2.246087    0.001444   -2.231184    0.000000    1.000000
    45  Na    c    -2.246087    0.001444    2.231184    0.000000    1.000000
    46  Cl    c     4.340636    4.340636    4.312877    0.000000    1.485000
    47  Cl    c     4.340636    4.340636   -4.312877    0.000000    1.485000
    48  Cl    c     4.340636    0.065266    4.312877    0.000000    1.485000
    49  Cl    c     4.340636    0.065266   -4.312877    0.000000    1.485000
    50  Cl    c     0.065266    4.340636    4.312877    0.000000    1.485000
    51  Cl    c     0.065266    4.340636   -4.312877    0.000000    1.485000
    52  Cl    c     0.065266    0.065266    4.312877    0.000000    1.485000
    53  Cl    c     0.065266    0.065266   -4.312877    0.000000    1.485000
    54  Na    c     2.202951    6.664918    4.403248    0.000000    1.000000
    55  Na    c     2.202951    6.664918   -4.403248    0.000000    1.000000
    56  Na    c     2.202951   -2.259016    4.403248    0.000000    1.000000
    57  Na    c     2.202951   -2.259016   -4.403248    0.000000    1.000000
    58  Na    c     6.664918    2.202951    4.403248    0.000000    1.000000
    59  Na    c     6.664918    2.202951   -4.403248    0.000000    1.000000
    60  Na    c    -2.259016    2.202951    4.403248    0.000000    1.000000
    61  Na    c    -2.259016    2.202951   -4.403248    0.000000    1.000000
    62  Na    c     6.667504    6.667504    0.000000    0.000000    1.000000
    63  Na    c     6.667504   -2.261602    0.000000    0.000000    1.000000
    64  Na    c    -2.261602    6.667504    0.000000    0.000000    1.000000
    65  Na    c    -2.261602   -2.261602    0.000000    0.000000    1.000000
    66  O     c     2.202951    2.202951    6.548941    0.000000    0.183000
    67  O     c     2.202951    2.202951   -6.548941    0.000000    0.183000
    68  O     c     6.598451    6.598451   -2.193579    0.000000    0.183000
    69  O     c     6.598451    6.598451    2.193579    0.000000    0.183000
    70  O     c     6.598451   -2.192549   -2.193579    0.000000    0.183000
    71  O     c     6.598451   -2.192549    2.193579    0.000000    0.183000
    72  O     c    -2.192549    6.598451   -2.193579    0.000000    0.183000
    73  O     c    -2.192549    6.598451    2.193579    0.000000    0.183000
    74  O     c    -2.192549   -2.192549   -2.193579    0.000000    0.183000
    75  O     c    -2.192549   -2.192549    2.193579    0.000000    0.183000
    76  Cl    c     4.414466    8.787746    0.000000    0.000000    1.485000
    77  Cl    c     4.414466   -4.381844    0.000000    0.000000    1.485000
    78  Cl    c     8.787746    4.414466    0.000000    0.000000    1.485000
    79  Cl    c     8.787746   -0.008564    0.000000    0.000000    1.485000
    80  Cl    c    -0.008564    8.787746    0.000000    0.000000    1.485000
    81  Cl    c    -0.008564   -4.381844    0.000000    0.000000    1.485000
    82  Cl    c    -4.381844    4.414466    0.000000    0.000000    1.485000
    83  Cl    c    -4.381844   -0.008564    0.000000    0.000000    1.485000
    84  Na    c     4.403740    2.202951    6.565419    0.000000    1.000000
    85  Na    c     4.403740    2.202951   -6.565419    0.000000    1.000000
    86  Na    c     0.002162    2.202951    6.565419    0.000000    1.000000
    87  Na    c     0.002162    2.202951   -6.565419    0.000000    1.000000
    88  Na    c     2.202951    4.403740    6.565419    0.000000    1.000000
    89  Na    c     2.202951    4.403740   -6.565419    0.000000    1.000000
    90  Na    c     2.202951    0.002162    6.565419    0.000000    1.000000
    91  Na    c     2.202951    0.002162   -6.565419    0.000000    1.000000
    92  Na    c     8.837497    2.202951   -2.164895    0.000000    1.000000
    93  Na    c     8.837497    2.202951    2.164895    0.000000    1.000000
    94  Na    c    -4.431595    2.202951   -2.164895    0.000000    1.000000
    95  Na    c    -4.431595    2.202951    2.164895    0.000000    1.000000
    96  Na    c     2.202951    8.837497   -2.164895    0.000000    1.000000
    97  Na    c     2.202951    8.837497    2.164895    0.000000    1.000000
    98  Na    c     2.202951   -4.431595   -2.164895    0.000000    1.000000
    99  Na    c     2.202951   -4.431595    2.164895    0.000000    1.000000
   100  Na    c     6.626309    6.626309    4.404616    0.000000    1.000000
   101  Na    c     6.626309    6.626309   -4.404616    0.000000    1.000000
   102  Na    c     6.626309   -2.220406    4.404616    0.000000    1.000000
   103  Na    c     6.626309   -2.220406   -4.404616    0.000000    1.000000
   104  Na    c    -2.220406    6.626309    4.404616    0.000000    1.000000
   105  Na    c    -2.220406    6.626309   -4.404616    0.000000    1.000000
   106  Na    c    -2.220406   -2.220406    4.404616    0.000000    1.000000
   107  Na    c    -2.220406   -2.220406   -4.404616    0.000000    1.000000
   108  O     c     2.202951    6.607957    6.597753    0.000000    0.183000
   109  O     c     2.202951    6.607957   -6.597753    0.000000    0.183000
   110  O     c     2.202951   -2.202055    6.597753    0.000000    0.183000
   111  O     c     2.202951   -2.202055   -6.597753    0.000000    0.183000
   112  O     c     6.607957    2.202951    6.597753    0.000000    0.183000
   113  O     c     6.607957    2.202951   -6.597753    0.000000    0.183000
   114  O     c    -2.202055    2.202951    6.597753    0.000000    0.183000
   115  O     c    -2.202055    2.202951   -6.597753    0.000000    0.183000
   116  Cl    c     4.410694    8.795420    4.394757    0.000000    1.485000
   117  Cl    c     4.410694    8.795420   -4.394757    0.000000    1.485000
   118  Cl    c     4.410694   -4.389517    4.394757    0.000000    1.485000
   119  Cl    c     4.410694   -4.389517   -4.394757    0.000000    1.485000
   120  Cl    c     8.795420    4.410694    4.394757    0.000000    1.485000
   121  Cl    c     8.795420    4.410694   -4.394757    0.000000    1.485000
   122  Cl    c     8.795420   -0.004792    4.394757    0.000000    1.485000
   123  Cl    c     8.795420   -0.004792   -4.394757    0.000000    1.485000
   124  Cl    c    -0.004792    8.795420    4.394757    0.000000    1.485000
   125  Cl    c    -0.004792    8.795420   -4.394757    0.000000    1.485000
   126  Cl    c    -0.004792   -4.389517    4.394757    0.000000    1.485000
   127  Cl    c    -0.004792   -4.389517   -4.394757    0.000000    1.485000
   128  Cl    c    -4.389517    4.410694    4.394757    0.000000    1.485000
   129  Cl    c    -4.389517    4.410694   -4.394757    0.000000    1.485000
   130  Cl    c    -4.389517   -0.004792    4.394757    0.000000    1.485000
   131  Cl    c    -4.389517   -0.004792   -4.394757    0.000000    1.485000
   132  Na    c     4.404157    6.622831    6.628209    0.000000    1.000000
   133  Na    c     4.404157    6.622831   -6.628209    0.000000    1.000000
   134  Na    c     4.404157   -2.216928    6.628209    0.000000    1.000000
   135  Na    c     4.404157   -2.216928   -6.628209    0.000000    1.000000
   136  Na    c     0.001745    6.622831    6.628209    0.000000    1.000000
   137  Na    c     0.001745    6.622831   -6.628209    0.000000    1.000000
   138  Na    c     0.001745   -2.216928    6.628209    0.000000    1.000000
   139  Na    c     0.001745   -2.216928   -6.628209    0.000000    1.000000
   140  Na    c     6.622831    4.404157    6.628209    0.000000    1.000000
   141  Na    c     6.622831    4.404157   -6.628209    0.000000    1.000000
   142  Na    c     6.622831    0.001745    6.628209    0.000000    1.000000
   143  Na    c     6.622831    0.001745   -6.628209    0.000000    1.000000
   144  Na    c    -2.216928    4.404157    6.628209    0.000000    1.000000
   145  Na    c    -2.216928    4.404157   -6.628209    0.000000    1.000000
   146  Na    c    -2.216928    0.001745    6.628209    0.000000    1.000000
   147  Na    c    -2.216928    0.001745   -6.628209    0.000000    1.000000
   148  Na    c     8.818291    6.612385   -2.212645    0.000000    1.000000
   149  Na    c     8.818291    6.612385    2.212645    0.000000    1.000000
   150  Na    c     8.818291   -2.206483   -2.212645    0.000000    1.000000
   151  Na    c     8.818291   -2.206483    2.212645    0.000000    1.000000
   152  Na    c    -4.412389    6.612385   -2.212645    0.000000    1.000000
   153  Na    c    -4.412389    6.612385    2.212645    0.000000    1.000000
   154  Na    c    -4.412389   -2.206483   -2.212645    0.000000    1.000000
   155  Na    c    -4.412389   -2.206483    2.212645    0.000000    1.000000
   156  Na    c     6.612385    8.818291   -2.212645    0.000000    1.000000
   157  Na    c     6.612385    8.818291    2.212645    0.000000    1.000000
   158  Na    c     6.612385   -4.412389   -2.212645    0.000000    1.000000
   159  Na    c     6.612385   -4.412389    2.212645    0.000000    1.000000
   160  Na    c    -2.206483    8.818291   -2.212645    0.000000    1.000000
   161  Na    c    -2.206483    8.818291    2.212645    0.000000    1.000000
   162  Na    c    -2.206483   -4.412389   -2.212645    0.000000    1.000000
   163  Na    c    -2.206483   -4.412389    2.212645    0.000000    1.000000
   164  Na    c     2.202951    2.202951    8.779427    0.000000    1.000000
   165  Na    c     2.202951    2.202951   -8.779427    0.000000    1.000000
   166  Na    c     2.202951   11.086526    0.000000    0.000000    1.000000
   167  Na    c     2.202951   -6.680624    0.000000    0.000000    1.000000
   168  Na    c    11.086526    2.202951    0.000000    0.000000    1.000000
   169  Na    c    -6.680624    2.202951    0.000000    0.000000    1.000000
   170  O     c     6.602116    6.602116    6.599066    0.000000    0.183000
   171  O     c     6.602116    6.602116   -6.599066    0.000000    0.183000
   172  O     c     6.602116   -2.196214    6.599066    0.000000    0.183000
   173  O     c     6.602116   -2.196214   -6.599066    0.000000    0.183000
   174  O     c    -2.196214    6.602116    6.599066    0.000000    0.183000
   175  O     c    -2.196214    6.602116   -6.599066    0.000000    0.183000
   176  O     c    -2.196214   -2.196214    6.599066    0.000000    0.183000
   177  O     c    -2.196214   -2.196214   -6.599066    0.000000    0.183000
   178  O     c     2.202951   11.026826   -2.200890    0.000000    0.183000
   179  O     c     2.202951   11.026826    2.200890    0.000000    0.183000
   180  O     c     2.202951   -6.620924   -2.200890    0.000000    0.183000
   181  O     c     2.202951   -6.620924    2.200890    0.000000    0.183000
   182  O     c    11.026826    2.202951   -2.200890    0.000000    0.183000
   183  O     c    11.026826    2.202951    2.200890    0.000000    0.183000
   184  O     c    -6.620924    2.202951   -2.200890    0.000000    0.183000
   185  O     c    -6.620924    2.202951    2.200890    0.000000    0.183000
   186  Cl    c     4.401331    4.401331    8.778791    0.000000    1.485000
   187  Cl    c     4.401331    4.401331   -8.778791    0.000000    1.485000
   188  Cl    c     4.401331    0.004571    8.778791    0.000000    1.485000
   189  Cl    c     4.401331    0.004571   -8.778791    0.000000    1.485000
   190  Cl    c     0.004571    4.401331    8.778791    0.000000    1.485000
   191  Cl    c     0.004571    4.401331   -8.778791    0.000000    1.485000
   192  Cl    c     0.004571    0.004571    8.778791    0.000000    1.485000
   193  Cl    c     0.004571    0.004571   -8.778791    0.000000    1.485000
   194  Cl    c     8.793743    8.793743    0.000000    0.000000    1.485000
   195  Cl    c     8.793743   -4.387840    0.000000    0.000000    1.485000
   196  Cl    c    -4.387840    8.793743    0.000000    0.000000    1.485000
   197  Cl    c    -4.387840   -4.387840    0.000000    0.000000    1.485000
   198  Na    c     8.816035    2.202951    6.643703    0.000000    1.000000
   199  Na    c     8.816035    2.202951   -6.643703    0.000000    1.000000
   200  Na    c    -4.410132    2.202951    6.643703    0.000000    1.000000
   201  Na    c    -4.410132    2.202951   -6.643703    0.000000    1.000000
   202  Na    c     2.202951    8.816035    6.643703    0.000000    1.000000
   203  Na    c     2.202951    8.816035   -6.643703    0.000000    1.000000
   204  Na    c     2.202951   -4.410132    6.643703    0.000000    1.000000
   205  Na    c     2.202951   -4.410132   -6.643703    0.000000    1.000000
   206  Na    c     4.407949   11.035768   -2.205828    0.000000    1.000000
   207  Na    c     4.407949   11.035768    2.205828    0.000000    1.000000
   208  Na    c     4.407949   -6.629866   -2.205828    0.000000    1.000000
   209  Na    c     4.407949   -6.629866    2.205828    0.000000    1.000000
   210  Na    c    -0.002046   11.035768   -2.205828    0.000000    1.000000
   211  Na    c    -0.002046   11.035768    2.205828    0.000000    1.000000
   212  Na    c    -0.002046   -6.629866   -2.205828    0.000000    1.000000
   213  Na    c    -0.002046   -6.629866    2.205828    0.000000    1.000000
   214  Na    c    11.035768    4.407949   -2.205828    0.000000    1.000000
   215  Na    c    11.035768    4.407949    2.205828    0.000000    1.000000
   216  Na    c    11.035768   -0.002046   -2.205828    0.000000    1.000000
   217  Na    c    11.035768   -0.002046    2.205828    0.000000    1.000000
   218  Na    c    -6.629866    4.407949   -2.205828    0.000000    1.000000
   219  Na    c    -6.629866    4.407949    2.205828    0.000000    1.000000
   220  Na    c    -6.629866   -0.002046   -2.205828    0.000000    1.000000
   221  Na    c    -6.629866   -0.002046    2.205828    0.000000    1.000000
   222  Na    c     2.202951    6.581468    8.806855    0.000000    1.000000
   223  Na    c     2.202951    6.581468   -8.806855    0.000000    1.000000
   224  Na    c     2.202951   -2.175565    8.806855    0.000000    1.000000
   225  Na    c     2.202951   -2.175565   -8.806855    0.000000    1.000000
   226  Na    c     6.581468    2.202951    8.806855    0.000000    1.000000
   227  Na    c     6.581468    2.202951   -8.806855    0.000000    1.000000
   228  Na    c    -2.175565    2.202951    8.806855    0.000000    1.000000
   229  Na    c    -2.175565    2.202951   -8.806855    0.000000    1.000000
   230  Na    c     2.202951   11.003571    4.406455    0.000000    1.000000
   231  Na    c     2.202951   11.003571   -4.406455    0.000000    1.000000
   232  Na    c     2.202951   -6.597669    4.406455    0.000000    1.000000
   233  Na    c     2.202951   -6.597669   -4.406455    0.000000    1.000000
   234  Na    c    11.003571    2.202951    4.406455    0.000000    1.000000
   235  Na    c    11.003571    2.202951   -4.406455    0.000000    1.000000
   236  Na    c    -6.597669    2.202951    4.406455    0.000000    1.000000
   237  Na    c    -6.597669    2.202951   -4.406455    0.000000    1.000000
   238  Na    c     6.612187   11.020161    0.000000    0.000000    1.000000
   239  Na    c     6.612187   -6.614258    0.000000    0.000000    1.000000
   240  Na    c    11.020161    6.612187    0.000000    0.000000    1.000000
   241  Na    c    11.020161   -2.206285    0.000000    0.000000    1.000000
   242  Na    c    -2.206285   11.020161    0.000000    0.000000    1.000000
   243  Na    c    -2.206285   -6.614258    0.000000    0.000000    1.000000
   244  Na    c    -6.614258    6.612187    0.000000    0.000000    1.000000
   245  Na    c    -6.614258   -2.206285    0.000000    0.000000    1.000000
   246  O     c     6.608711   11.016220   -2.202406    0.000000    0.183000
   247  O     c     6.608711   11.016220    2.202406    0.000000    0.183000
   248  O     c     6.608711   -6.610318   -2.202406    0.000000    0.183000
   249  O     c     6.608711   -6.610318    2.202406    0.000000    0.183000
   250  O     c    11.016220    6.608711   -2.202406    0.000000    0.183000
   251  O     c    11.016220    6.608711    2.202406    0.000000    0.183000
   252  O     c    11.016220   -2.202809   -2.202406    0.000000    0.183000
   253  O     c    11.016220   -2.202809    2.202406    0.000000    0.183000
   254  O     c    -2.202809   11.016220   -2.202406    0.000000    0.183000
   255  O     c    -2.202809   11.016220    2.202406    0.000000    0.183000
   256  O     c    -2.202809   -6.610318   -2.202406    0.000000    0.183000
   257  O     c    -2.202809   -6.610318    2.202406    0.000000    0.183000
   258  O     c    -6.610318    6.608711   -2.202406    0.000000    0.183000
   259  O     c    -6.610318    6.608711    2.202406    0.000000    0.183000
   260  O     c    -6.610318   -2.202809   -2.202406    0.000000    0.183000
   261  O     c    -6.610318   -2.202809    2.202406    0.000000    0.183000
   262  Cl    c     8.794869    8.794869    4.393603    0.000000    1.485000
   263  Cl    c     8.794869    8.794869   -4.393603    0.000000    1.485000
   264  Cl    c     8.794869   -4.388967    4.393603    0.000000    1.485000
   265  Cl    c     8.794869   -4.388967   -4.393603    0.000000    1.485000
   266  Cl    c    -4.388967    8.794869    4.393603    0.000000    1.485000
   267  Cl    c    -4.388967    8.794869   -4.393603    0.000000    1.485000
   268  Cl    c    -4.388967   -4.388967    4.393603    0.000000    1.485000
   269  Cl    c    -4.388967   -4.388967   -4.393603    0.000000    1.485000
   270  Na    c     8.813121    6.610705    6.609968    0.000000    1.000000
   271  Na    c     8.813121    6.610705   -6.609968    0.000000    1.000000
   272  Na    c     8.813121   -2.204803    6.609968    0.000000    1.000000
   273  Na    c     8.813121   -2.204803   -6.609968    0.000000    1.000000
   274  Na    c    -4.407219    6.610705    6.609968    0.000000    1.000000
   275  Na    c    -4.407219    6.610705   -6.609968    0.000000    1.000000
   276  Na    c    -4.407219   -2.204803    6.609968    0.000000    1.000000
   277  Na    c    -4.407219   -2.204803   -6.609968    0.000000    1.000000
   278  Na    c     6.610705    8.813121    6.609968    0.000000    1.000000
   279  Na    c     6.610705    8.813121   -6.609968    0.000000    1.000000
   280  Na    c     6.610705   -4.407219    6.609968    0.000000    1.000000
   281  Na    c     6.610705   -4.407219   -6.609968    0.000000    1.000000
   282  Na    c    -2.204803    8.813121    6.609968    0.000000    1.000000
   283  Na    c    -2.204803    8.813121   -6.609968    0.000000    1.000000
   284  Na    c    -2.204803   -4.407219    6.609968    0.000000    1.000000
   285  Na    c    -2.204803   -4.407219   -6.609968    0.000000    1.000000
   286  Na    c     6.613735   11.028765    4.406726    0.000000    1.000000
   287  Na    c     6.613735   11.028765   -4.406726    0.000000    1.000000
   288  Na    c     6.613735   -6.622863    4.406726    0.000000    1.000000
   289  Na    c     6.613735   -6.622863   -4.406726    0.000000    1.000000
   290  Na    c    11.028765    6.613735    4.406726    0.000000    1.000000
   291  Na    c    11.028765    6.613735   -4.406726    0.000000    1.000000
   292  Na    c    11.028765   -2.207832    4.406726    0.000000    1.000000
   293  Na    c    11.028765   -2.207832   -4.406726    0.000000    1.000000
   294  Na    c    -2.207832   11.028765    4.406726    0.000000    1.000000
   295  Na    c    -2.207832   11.028765   -4.406726    0.000000    1.000000
   296  Na    c    -2.207832   -6.622863    4.406726    0.000000    1.000000
   297  Na    c    -2.207832   -6.622863   -4.406726    0.000000    1.000000
   298  Na    c    -6.622863    6.613735    4.406726    0.000000    1.000000
   299  Na    c    -6.622863    6.613735   -4.406726    0.000000    1.000000
   300  Na    c    -6.622863   -2.207832    4.406726    0.000000    1.000000
   301  Na    c    -6.622863   -2.207832   -4.406726    0.000000    1.000000
   302  Na    c     6.613698    6.613698    8.810293    0.000000    1.000000
   303  Na    c     6.613698    6.613698   -8.810293    0.000000    1.000000
   304  Na    c     6.613698   -2.207796    8.810293    0.000000    1.000000
   305  Na    c     6.613698   -2.207796   -8.810293    0.000000    1.000000
   306  Na    c    -2.207796    6.613698    8.810293    0.000000    1.000000
   307  Na    c    -2.207796    6.613698   -8.810293    0.000000    1.000000
   308  Na    c    -2.207796   -2.207796    8.810293    0.000000    1.000000
   309  Na    c    -2.207796   -2.207796   -8.810293    0.000000    1.000000
   310  O     c     2.202951    2.202951   10.996179    0.000000    0.183000
   311  O     c     2.202951    2.202951  -10.996179    0.000000    0.183000
   312  O     c     2.202951   11.013939    6.606231    0.000000    0.183000
   313  O     c     2.202951   11.013939   -6.606231    0.000000    0.183000
   314  O     c     2.202951   -6.608037    6.606231    0.000000    0.183000
   315  O     c     2.202951   -6.608037   -6.606231    0.000000    0.183000
   316  O     c    11.013939    2.202951    6.606231    0.000000    0.183000
   317  O     c    11.013939    2.202951   -6.606231    0.000000    0.183000
   318  O     c    -6.608037    2.202951    6.606231    0.000000    0.183000
   319  O     c    -6.608037    2.202951   -6.606231    0.000000    0.183000
   320  Cl    c     4.403990    8.801355    8.795662    0.000000    1.485000
   321  Cl    c     4.403990    8.801355   -8.795662    0.000000    1.485000
   322  Cl    c     4.403990   -4.395453    8.795662    0.000000    1.485000
   323  Cl    c     4.403990   -4.395453   -8.795662    0.000000    1.485000
   324  Cl    c     8.801355    4.403990    8.795662    0.000000    1.485000
   325  Cl    c     8.801355    4.403990   -8.795662    0.000000    1.485000
   326  Cl    c     8.801355    0.001912    8.795662    0.000000    1.485000
   327  Cl    c     8.801355    0.001912   -8.795662    0.000000    1.485000
   328  Cl    c     0.001912    8.801355    8.795662    0.000000    1.485000
   329  Cl    c     0.001912    8.801355   -8.795662    0.000000    1.485000
   330  Cl    c     0.001912   -4.395453    8.795662    0.000000    1.485000
   331  Cl    c     0.001912   -4.395453   -8.795662    0.000000    1.485000
   332  Cl    c    -4.395453    4.403990    8.795662    0.000000    1.485000
   333  Cl    c    -4.395453    4.403990   -8.795662    0.000000    1.485000
   334  Cl    c    -4.395453    0.001912    8.795662    0.000000    1.485000
   335  Cl    c    -4.395453    0.001912   -8.795662    0.000000    1.485000
   336  Cl    c     4.405362   13.210840    0.000000    0.000000    1.485000
   337  Cl    c     4.405362   -8.804938    0.000000    0.000000    1.485000
   338  Cl    c    13.210840    4.405362    0.000000    0.000000    1.485000
   339  Cl    c    13.210840    0.000541    0.000000    0.000000    1.485000
   340  Cl    c     0.000541   13.210840    0.000000    0.000000    1.485000
   341  Cl    c     0.000541   -8.804938    0.000000    0.000000    1.485000
   342  Cl    c    -8.804938    4.405362    0.000000    0.000000    1.485000
   343  Cl    c    -8.804938    0.000541    0.000000    0.000000    1.485000
   344  Na    c     4.402629    2.202951   11.014064    0.000000    1.000000
   345  Na    c     4.402629    2.202951  -11.014064    0.000000    1.000000
   346  Na    c     0.003274    2.202951   11.014064    0.000000    1.000000
[...]
    149 y         15.420658     15.424686     0.004028    Cartesian    0.03
    149 z          0.000000      0.000000     0.000000    Cartesian    0.00
    150 x          6.608853      6.611087     0.002233    Cartesian    0.03
    150 y         19.826560     19.833678     0.007118    Cartesian    0.04
    150 z          4.405902      4.406800     0.000897    Cartesian    0.02
    151 x          2.202951      2.202951     0.000000    Cartesian    0.00
    151 y         19.826560     19.825094    -0.001466    Cartesian   -0.01
    151 z          6.608853      6.608896     0.000042    Cartesian    0.00
    152 x         15.420658     15.418698    -0.001960    Cartesian   -0.01
    152 y         15.420658     15.418698    -0.001960    Cartesian   -0.01
    152 z         -2.202951     -2.201899     0.001052    Cartesian   -0.05
    153 x          4.405902      4.404619    -0.001284    Cartesian   -0.03
    153 y          8.811805      8.808485    -0.003319    Cartesian   -0.04
    153 z         17.623609     17.614247    -0.009363    Cartesian   -0.05
    154 x          8.811805      8.808950    -0.002855    Cartesian   -0.03
    154 y         17.623609     17.615414    -0.008195    Cartesian   -0.05
    154 z          8.811805      8.808352    -0.003452    Cartesian   -0.04
    155 x         13.217707     13.212724    -0.004983    Cartesian   -0.04
    155 y         17.623609     17.615800    -0.007809    Cartesian   -0.04
    155 z          0.000000      0.000000     0.000000    Cartesian    0.00
    156 x          8.811805      8.812366     0.000561    Cartesian    0.01
    156 y         11.014756     11.017576     0.002820    Cartesian    0.03
    156 z         15.420658     15.427058     0.006400    Cartesian    0.04
    157 x         13.217707     13.218183     0.000476    Cartesian    0.00
    157 y          2.202951      2.202951     0.000000    Cartesian    0.00
    157 z         15.420658     15.423458     0.002800    Cartesian    0.02
    158 x         17.623609     17.625041     0.001431    Cartesian    0.01
    158 y          2.202951      2.202951     0.000000    Cartesian    0.00
    158 z         11.014756     11.016906     0.002150    Cartesian    0.02
    159 x          4.405902      4.406074     0.000171    Cartesian    0.00
    159 y         19.826560     19.833968     0.007407    Cartesian    0.04
    159 z          6.608853      6.610489     0.001635    Cartesian    0.02
    160 x          8.811805      8.812987     0.001182    Cartesian    0.01
    160 y         19.826560     19.834586     0.008025    Cartesian    0.04
    160 z         -2.202951     -2.203258    -0.000306    Cartesian    0.01
    161 x         17.623609     17.625837     0.002228    Cartesian    0.01
    161 y         11.014756     11.019647     0.004891    Cartesian    0.04
    161 z          6.608853      6.611151     0.002297    Cartesian    0.03
    162 x          2.202951      2.202951     0.000000    Cartesian    0.00
    162 y          2.202951      2.202951     0.000000    Cartesian    0.00
    162 z          0.000000      0.000000     0.000000    Cartesian    0.00
    163 x          2.202951      2.202951     0.000000    Cartesian    0.00
    163 y          2.202951      2.202951     0.000000    Cartesian    0.00
    163 z         -2.202951     -1.869270     0.333681    Cartesian  -15.15
    164 x          4.405902      4.117854    -0.288048    Cartesian   -6.54
    164 y          4.405902      4.117854    -0.288048    Cartesian   -6.54
    164 z          0.000000      0.000000     0.000000    Cartesian    0.00
    165 x          2.202951      2.202951     0.000000    Cartesian    0.00
    165 y          6.608853      6.641446     0.032593    Cartesian    0.49
    165 z         -2.202951     -2.196231     0.006720    Cartesian   -0.31
    166 x          4.405902      4.332096    -0.073806    Cartesian   -1.68
    166 y          4.405902      4.332096    -0.073806    Cartesian   -1.68
    166 z          4.405902      4.303995    -0.101907    Cartesian   -2.31
    167 x          2.202951      2.202951     0.000000    Cartesian    0.00
    167 y          2.202951      2.202951     0.000000    Cartesian    0.00
    167 z          6.608853      6.548941    -0.059912    Cartesian   -0.91
    168 x          6.608853      6.598452    -0.010402    Cartesian   -0.16
    168 y          6.608853      6.598452    -0.010402    Cartesian   -0.16
    168 z         -2.202951     -2.193581     0.009370    Cartesian   -0.43
    169 x          4.405902      4.414489     0.008587    Cartesian    0.19
    169 y          8.811805      8.783587    -0.028218    Cartesian   -0.32
    169 z          0.000000      0.000000     0.000000    Cartesian    0.00
    170 x          2.202951      2.202951     0.000000    Cartesian    0.00
    170 y          6.608853      6.607964    -0.000890    Cartesian   -0.01
    170 z          6.608853      6.597750    -0.011104    Cartesian   -0.17
    171 x          4.405902      4.411003     0.005101    Cartesian    0.12
    171 y          8.811805      8.791197    -0.020608    Cartesian   -0.23
    171 z          4.405902      4.392153    -0.013749    Cartesian   -0.31
    172 x          6.608853      6.602113    -0.006741    Cartesian   -0.10
    172 y          6.608853      6.602113    -0.006741    Cartesian   -0.10
    172 z          6.608853      6.599061    -0.009793    Cartesian   -0.15
    173 x          2.202951      2.202951     0.000000    Cartesian    0.00
    173 y         11.014756     11.026820     0.012064    Cartesian    0.11
    173 z         -2.202951     -2.200887     0.002064    Cartesian   -0.09
    174 x          4.405902      4.401426    -0.004476    Cartesian   -0.10
    174 y          4.405902      4.401426    -0.004476    Cartesian   -0.10
    174 z          8.811805      8.776285    -0.035520    Cartesian   -0.40
    175 x          8.811805      8.789116    -0.022689    Cartesian   -0.26
    175 y          8.811805      8.789116    -0.022689    Cartesian   -0.26
    175 z          0.000000      0.000000     0.000000    Cartesian    0.00
    176 x          6.608853      6.608710    -0.000144    Cartesian   -0.00
    176 y         11.014756     11.016218     0.001462    Cartesian    0.01
    176 z         -2.202951     -2.202406     0.000545    Cartesian   -0.02
    177 x          8.811805      8.791761    -0.020044    Cartesian   -0.23
    177 y          8.811805      8.791761    -0.020044    Cartesian   -0.23
    177 z          4.405902      4.391813    -0.014090    Cartesian   -0.32
    178 x          2.202951      2.202951     0.000000    Cartesian    0.00
    178 y          2.202951      2.202951     0.000000    Cartesian    0.00
    178 z         11.014756     10.996195    -0.018561    Cartesian   -0.17
    179 x          2.202951      2.202951     0.000000    Cartesian    0.00
    179 y         11.014756     11.013936    -0.000820    Cartesian   -0.01
    179 z          6.608853      6.606230    -0.002623    Cartesian   -0.04
    180 x          4.405902      4.403656    -0.002247    Cartesian   -0.05
    180 y          8.811805      8.799430    -0.012375    Cartesian   -0.14
    180 z          8.811805      8.792879    -0.018925    Cartesian   -0.21
    181 x          4.405902      4.404668    -0.001234    Cartesian   -0.03
    181 y         13.217707     13.208122    -0.009585    Cartesian   -0.07
    181 z          0.000000      0.000000     0.000000    Cartesian    0.00
    182 x          2.202951      2.202951     0.000000    Cartesian    0.00
    182 y          6.608853      6.604291    -0.004563    Cartesian   -0.07
    182 z         11.014756     11.005946    -0.008810    Cartesian   -0.08
    183 x          6.608853      6.608680    -0.000173    Cartesian   -0.00
    183 y         11.014756     11.014152    -0.000604    Cartesian   -0.01
    183 z          6.608853      6.607316    -0.001538    Cartesian   -0.02
    184 x          4.405902      4.403516    -0.002386    Cartesian   -0.05
    184 y         13.217707     13.207470    -0.010237    Cartesian   -0.08
    184 z          4.405902      4.401766    -0.004137    Cartesian   -0.09
    185 x          6.608853      6.607398    -0.001455    Cartesian   -0.02
    185 y          6.608853      6.607398    -0.001455    Cartesian   -0.02
    185 z         11.014756     11.010547    -0.004209    Cartesian   -0.04
    186 x         11.014756     11.013490    -0.001266    Cartesian   -0.01
    186 y         11.014756     11.013490    -0.001266    Cartesian   -0.01
    186 z         -2.202951     -2.202397     0.000554    Cartesian   -0.03
    187 x          8.811805      8.802149    -0.009656    Cartesian   -0.11
    187 y          8.811805      8.802149    -0.009656    Cartesian   -0.11
    187 z          8.811805      8.798281    -0.013523    Cartesian   -0.15
    188 x          8.811805      8.807355    -0.004449    Cartesian   -0.05
    188 y         13.217707     13.208057    -0.009650    Cartesian   -0.07
    188 z          0.000000      0.000000     0.000000    Cartesian    0.00
    189 x          2.202951      2.202951     0.000000    Cartesian    0.00
    189 y         15.420658     15.424947     0.004289    Cartesian    0.03
    189 z         -2.202951     -2.204080    -0.001128    Cartesian    0.05
    190 x          8.811805      8.807803    -0.004001    Cartesian   -0.05
    190 y         13.217707     13.208680    -0.009027    Cartesian   -0.07
    190 z          4.405902      4.402125    -0.003777    Cartesian   -0.09
    191 x          4.405902      4.402548    -0.003354    Cartesian   -0.08
    191 y          4.405902      4.402548    -0.003354    Cartesian   -0.08
    191 z         13.217707     13.200987    -0.016720    Cartesian   -0.13
    192 x          6.608853      6.609524     0.000670    Cartesian    0.01
    192 y         15.420658     15.422111     0.001453    Cartesian    0.01
    192 z         -2.202951     -2.202694     0.000257    Cartesian   -0.01
    193 x          2.202951      2.202951     0.000000    Cartesian    0.00
    193 y         11.014756     11.013624    -0.001132    Cartesian   -0.01
    193 z         11.014756     11.011988    -0.002768    Cartesian   -0.03
    194 x         11.014756     11.013513    -0.001243    Cartesian   -0.01
    194 y         11.014756     11.013513    -0.001243    Cartesian   -0.01
    194 z          6.608853      6.607454    -0.001400    Cartesian   -0.02
    195 x          4.405902      4.403607    -0.002295    Cartesian   -0.05
    195 y         13.217707     13.209419    -0.008288    Cartesian   -0.06
    195 z          8.811805      8.805001    -0.006804    Cartesian   -0.08
    196 x          6.608853      6.608255    -0.000598    Cartesian   -0.01
    196 y         11.014756     11.012787    -0.001969    Cartesian   -0.02
    196 z         11.014756     11.012517    -0.002238    Cartesian   -0.02
    197 x          2.202951      2.202951     0.000000    Cartesian    0.00
    197 y         15.420658     15.421691     0.001033    Cartesian    0.01
    197 z          6.608853      6.608186    -0.000668    Cartesian   -0.01
    198 x          4.405902      4.404991    -0.000911    Cartesian   -0.02
    198 y          8.811805      8.806605    -0.005200    Cartesian   -0.06
    198 z         13.217707     13.205873    -0.011834    Cartesian   -0.09
    199 x          2.202951      2.202951     0.000000    Cartesian    0.00
    199 y          2.202951      2.202951     0.000000    Cartesian    0.00
    199 z         15.420658     15.413673    -0.006985    Cartesian   -0.05
    200 x          6.608853      6.608679    -0.000175    Cartesian   -0.00
    200 y         15.420658     15.420115    -0.000543    Cartesian   -0.00
    200 z          6.608853      6.608211    -0.000642    Cartesian   -0.01
    201 x          4.405902      4.405331    -0.000572    Cartesian   -0.01
    201 y         17.623609     17.618162    -0.005447    Cartesian   -0.03
    201 z          0.000000      0.000000     0.000000    Cartesian    0.00
    202 x          8.811805      8.808797    -0.003007    Cartesian   -0.03
    202 y         13.217707     13.210352    -0.007355    Cartesian   -0.06
    202 z          8.811805      8.806108    -0.005697    Cartesian   -0.06
    203 x         13.217707     13.209011    -0.008696    Cartesian   -0.07
    203 y         13.217707     13.209011    -0.008696    Cartesian   -0.07
    203 z          0.000000      0.000000     0.000000    Cartesian    0.00
    204 x          2.202951      2.202951     0.000000    Cartesian    0.00
    204 y          6.608853      6.607732    -0.001121    Cartesian   -0.02
    204 z         15.420658     15.417046    -0.003612    Cartesian   -0.02
    205 x         11.014756     11.014376    -0.000380    Cartesian   -0.00
    205 y         15.420658     15.420702     0.000044    Cartesian    0.00
    205 z         -2.202951     -2.203534    -0.000582    Cartesian    0.03
    206 x          4.405902      4.405346    -0.000556    Cartesian   -0.01
    206 y         17.623609     17.617491    -0.006118    Cartesian   -0.03
    206 z          4.405902      4.403784    -0.002118    Cartesian   -0.05
    207 x          8.811805      8.807714    -0.004090    Cartesian   -0.05
    207 y          8.811805      8.807714    -0.004090    Cartesian   -0.05
    207 z         13.217707     13.208863    -0.008844    Cartesian   -0.07
    208 x         13.217707     13.211590    -0.006117    Cartesian   -0.05
    208 y         13.217707     13.211590    -0.006117    Cartesian   -0.05
    208 z          4.405902      4.403830    -0.002072    Cartesian   -0.05
    209 x          6.608853      6.608350    -0.000504    Cartesian   -0.01
    209 y          6.608853      6.608350    -0.000504    Cartesian   -0.01
    209 z         15.420658     15.418407    -0.002251    Cartesian   -0.01
    210 x         11.014756     11.014319    -0.000437    Cartesian   -0.00
    210 y         11.014756     11.014319    -0.000437    Cartesian   -0.00
    210 z         11.014756     11.013894    -0.000862    Cartesian   -0.01
    211 x          8.811805      8.810157    -0.001648    Cartesian   -0.02
    211 y         17.623609     17.617833    -0.005777    Cartesian   -0.03
    211 z          0.000000      0.000000     0.000000    Cartesian    0.00
    212 x          2.202951      2.202951     0.000000    Cartesian    0.00
    212 y         15.420658     15.420027    -0.000631    Cartesian   -0.00
    212 z         11.014756     11.016140     0.001384    Cartesian    0.01
    213 x         11.014756     11.015666     0.000911    Cartesian    0.01
    213 y         15.420658     15.421281     0.000623    Cartesian    0.00
    213 z          6.608853      6.608634    -0.000219    Cartesian   -0.00
    214 x          4.405902      4.405678    -0.000224    Cartesian   -0.01
    214 y         13.217707     13.212911    -0.004796    Cartesian   -0.04
    214 z         13.217707     13.211341    -0.006365    Cartesian   -0.05
    215 x          8.811805      8.809865    -0.001940    Cartesian   -0.02
    215 y         17.623609     17.617912    -0.005697    Cartesian   -0.03
    215 z          4.405902      4.404418    -0.001484    Cartesian   -0.03
    216 x          6.608853      6.608551    -0.000302    Cartesian   -0.00
    216 y         15.420658     15.419547    -0.001111    Cartesian   -0.01
    216 z         11.014756     11.013690    -0.001066    Cartesian   -0.01
    217 x          2.202951      2.202951     0.000000    Cartesian    0.00
    217 y         11.014756     11.013304    -0.001452    Cartesian   -0.01
    217 z         15.420658     15.419042    -0.001616    Cartesian   -0.01
    218 x          2.202951      2.202951     0.000000    Cartesian    0.00
    218 y         19.826560     19.827026     0.000466    Cartesian    0.00
    218 z         -2.202951     -2.201621     0.001330    Cartesian   -0.06
    219 x          4.405902      4.404567    -0.001335    Cartesian   -0.03
    219 y          4.405902      4.404567    -0.001335    Cartesian   -0.03
    219 z         17.623609     17.614878    -0.008731    Cartesian   -0.05
    220 x          4.405902      4.405051    -0.000852    Cartesian   -0.02
    220 y         17.623609     17.617289    -0.006320    Cartesian   -0.04
    220 z          8.811805      8.809108    -0.002696    Cartesian   -0.03
    221 x         13.217707     13.212661    -0.005045    Cartesian   -0.04
    221 y         13.217707     13.212661    -0.005045    Cartesian   -0.04
    221 z          8.811805      8.808108    -0.003697    Cartesian   -0.04
    222 x          6.608853      6.608746    -0.000107    Cartesian   -0.00
    222 y         11.014756     11.013829    -0.000926    Cartesian   -0.01
    222 z         15.420658     15.418922    -0.001736    Cartesian   -0.01
    223 x          6.608853      6.609263     0.000410    Cartesian    0.01
    223 y         19.826560     19.826618     0.000058    Cartesian    0.00
    223 z         -2.202951     -2.203525    -0.000574    Cartesian    0.03
    224 x          8.811805      8.808697    -0.003107    Cartesian   -0.04
    224 y         13.217707     13.212457    -0.005250    Cartesian   -0.04
    224 z         13.217707     13.210883    -0.006824    Cartesian   -0.05
    225 x          2.202951      2.202951     0.000000    Cartesian    0.00
    225 y         19.826560     19.825092    -0.001468    Cartesian   -0.01
    225 z          6.608853      6.608899     0.000045    Cartesian    0.00
    226 x         15.420658     15.418696    -0.001962    Cartesian   -0.01
    226 y         15.420658     15.418696    -0.001962    Cartesian   -0.01
    226 z         -2.202951     -2.201896     0.001055    Cartesian   -0.05
    227 x          4.405902      4.404425    -0.001477    Cartesian   -0.03
    227 y          8.811805      8.808090    -0.003714    Cartesian   -0.04
    227 z         17.623609     17.613082    -0.010527    Cartesian   -0.06
    228 x          8.811805      8.808548    -0.003257    Cartesian   -0.04
    228 y         17.623609     17.614225    -0.009384    Cartesian   -0.05
    228 z          8.811805      8.807947    -0.003858    Cartesian   -0.04
    229 x         13.217707     13.212068    -0.005639    Cartesian   -0.04
    229 y         17.623609     17.614723    -0.008886    Cartesian   -0.05
    229 z          0.000000      0.000000     0.000000    Cartesian    0.00
--------------------------------------------------------------------------------


  Time to end of optimisation  =       60.4073 seconds


  Peak dynamic memory used =     993.20 MB 


  Timing analysis for GULP :

--------------------------------------------------------------------------------
  Task / Subroutine                                          Time (Seconds)
--------------------------------------------------------------------------------
  Calculation of reciprocal space energy and derivatives          0.0007
  Calculation of reciprocal space energy using symmetry           0.0014
  Calculation of real space energy and derivatives                0.0041
  Calculation of real space energy using symmetry                 0.0133
  Calculation for region 1 energy and derivatives (2-b)          42.0373
  Calculation for region 2a energy                               13.2158
  Calculation for region 2b energy                                0.0003
  Calculation and manipulation of Hessian matrix                  3.7980
  Calculation of matrix inversion                                 0.2084
  Symmetry generation of equivalent positions                     0.0054
--------------------------------------------------------------------------------
  Total CPU time                                                 60.4074
--------------------------------------------------------------------------------


  Dump file written as Na3OCl.grs


  Job Finished at 13:15.21  2nd February   2021                               

