********************************************************************************
*                       GENERAL UTILITY LATTICE PROGRAM                        *
*                                 Julian Gale                                  *
*                       Curtin Institute for Computation                       *
*                    School of Molecular and Life Sciences                     *
*                    Curtin University, Western Australia                      *
********************************************************************************
* Version = 5.2.0 * Last modified =  10th September 2020                       *
********************************************************************************
*  optimise     - perform optimisation run                                     *
*  conp         - constant pressure calculation                                *
*  property     - calculate properties for final geometry                      *
*  defect       - perform defect calculation after bulk run                    *
*  compare      - compare initial and final structures                         *
********************************************************************************

  Job Started  at 18:06.31 30th November   2020                               

  Number of CPUs =     1


  Total number of configurations input =      1

********************************************************************************
*  Input for Configuration =   1                                               *
********************************************************************************

  Formula = ClONa3                                                      

  Number of irreducible atoms/shells =       5


  Total number atoms/shells =       7

  Dimensionality = 3               :  Bulk   


  Symmetry :

  Crystal family                   :  Cubic       
  Crystal class  (Groth - 1921)    :  Cubic Hexakisoctahedral              

  Space group (centrosymmetric)    :  P M 3 M         

  Patterson group                  :  P m -3 m 

  Cartesian lattice vectors (Angstroms) :

        4.504000    0.000000    0.000000
        0.000000    4.504000    0.000000
        0.000000    0.000000    4.504000

  Cell parameters (Angstroms/Degrees):

  a =       4.5040    alpha =  90.0000
  b =       4.5040    beta  =  90.0000
  c =       4.5040    gamma =  90.0000

  Initial cell volume =          91.368216 Angs**3

  Temperature of configuration =   0.00     K 

  Pressure of configuration =         0.000 GPa 

  Fractional coordinates of asymmetric unit :

--------------------------------------------------------------------------------
   No.  Atomic       x           y          z         Charge      Occupancy
        Label      (Frac)      (Frac)     (Frac)        (e)         (Frac)  
--------------------------------------------------------------------------------
      1 Cl    c    0.000000    0.000000    0.000000     1.48500    1.000000    
      2 O     c    0.500000    0.500000    0.500000     0.18300    1.000000    
      3 Na    c    0.500000    0.500000    0.000000     1.00000    1.000000    
      4 Cl    s    0.000000    0.000000    0.000000    -2.48500    1.000000    
      5 O     s    0.500000    0.500000    0.500000    -2.18300    1.000000    
--------------------------------------------------------------------------------


  Constraints : 

--------------------------------------------------------------------------------
  Constraint no.      Unconstrained     Constrained    Coefficient    Offset
                         Variable         Variable
--------------------------------------------------------------------------------
           1              Strain 1        Strain 2       1.00000      0.0000
           2              Strain 1        Strain 3       1.00000      0.0000
--------------------------------------------------------------------------------


********************************************************************************
*  General input information                                                   *
********************************************************************************

  Species output for all configurations : 

--------------------------------------------------------------------------------
  Species    Type    Atomic    Atomic    Charge       Radii (Angs)     Library
                     Number     Mass       (e)     Cova   Ionic  VDW   Symbol
--------------------------------------------------------------------------------
    Na       Core       11      22.99   1.000000   0.970  0.000  2.300          
    O        Core        8      16.00   0.183000   0.730  0.000  1.360          
    O        Shell       8       0.00  -2.183000   0.730  0.000  1.360          
    Cl       Core       17      35.45   1.485000   0.990  0.000  1.650          
    Cl       Shell      17       0.00  -2.485000   0.990  0.000  1.650          
    Mg       Core       12      24.31   0.415000   1.100  0.000  0.000          
    Mg       Shell      12       0.00   1.585000   1.100  0.000  0.000          
    Ca       Core       20      40.08  -1.135000   0.990  0.000  0.000          
    Ca       Shell      20       0.00   3.135000   0.990  0.000  0.000          
    Sr       Core       38      87.62  -1.251000   1.120  0.000  0.000          
    Sr       Shell      38       0.00   3.251000   1.120  0.000  0.000          
    Ba       Core       56     137.33  -7.203000   1.340  0.000  0.000          
    Ba       Shell      56       0.00   9.203000   1.340  0.000  0.000          
--------------------------------------------------------------------------------


  Lattice summation method               =    Ewald          (3-D)
                                         =    Parry          (2-D)
                                         =    Saunders et al (1-D)
  Accuracy factor for lattice sums       =   12.000


  Analytic derivatives to be used

  Time limit = Infinity

  Maximum range for interatomic potentials =    100000.000000 Angstroms

  General interatomic potentials :

--------------------------------------------------------------------------------
Atom  Types   Potential      Parameter       Value         Units   Cutoffs(Ang)
  1     2                                                            Min /  Max 
--------------------------------------------------------------------------------
O    c O    s Spring (c-s)  Spring k 2       593.71600    eV*Ang^-2 0.000  0.800
                            Spring k 4       0.0000000    eV*Ang^-4 
--------------------------------------------------------------------------------
Cl   c Cl   s Spring (c-s)  Spring k 2       29.380000    eV*Ang^-2 0.000  0.800
                            Spring k 4       0.0000000    eV*Ang^-4 
--------------------------------------------------------------------------------
Mg   c Mg   s Spring (c-s)  Spring k 2       361.60000    eV*Ang^-2 0.000  0.800
                            Spring k 4       0.0000000    eV*Ang^-4 
--------------------------------------------------------------------------------
Ca   c Ca   s Spring (c-s)  Spring k 2       110.20000    eV*Ang^-2 0.000  0.800
                            Spring k 4       0.0000000    eV*Ang^-4 
--------------------------------------------------------------------------------
Sr   c Sr   s Spring (c-s)  Spring k 2       71.700000    eV*Ang^-2 0.000  0.800
                            Spring k 4       0.0000000    eV*Ang^-4 
--------------------------------------------------------------------------------
Ba   c Ba   s Spring (c-s)  Spring k 2       495.20000    eV*Ang^-2 0.000  0.800
                            Spring k 4       0.0000000    eV*Ang^-4 
--------------------------------------------------------------------------------
Na   c Na   c Buckingham    Buckingham A     1788.1900    eV        0.000 12.000
                            Buckingham rho  0.15900000    Ang       
                            Buckingham C     0.0000000    eV*Ang^6  
--------------------------------------------------------------------------------
Na   c O    s Buckingham    Buckingham A     1226.8400    eV        0.000 12.000
                            Buckingham rho  0.30700000    Ang       
                            Buckingham C     0.0000000    eV*Ang^6  
--------------------------------------------------------------------------------
Na   c Cl   s Buckingham    Buckingham A     2314.7000    eV        0.000 12.000
                            Buckingham rho  0.29000000    Ang       
                            Buckingham C     0.0000000    eV*Ang^6  
--------------------------------------------------------------------------------
O    s O    s Buckingham    Buckingham A     22764.300    eV        0.000 12.000
                            Buckingham rho  0.14900000    Ang       
                            Buckingham C     13.190000    eV*Ang^6  
--------------------------------------------------------------------------------
O    s Cl   s Buckingham    Buckingham A     8286.9100    eV        0.000 12.000
                            Buckingham rho  0.25900000    Ang       
                            Buckingham C     62.200000    eV*Ang^6  
--------------------------------------------------------------------------------
Cl   s Cl   s Buckingham    Buckingham A     1227.2000    eV        0.000 12.000
                            Buckingham rho  0.32100000    Ang       
                            Buckingham C     14.530000    eV*Ang^6  
--------------------------------------------------------------------------------
O    s Mg   s Buckingham    Buckingham A     1428.5000    eV        0.000 12.000
                            Buckingham rho  0.29450000    Ang       
                            Buckingham C     0.0000000    eV*Ang^6  
--------------------------------------------------------------------------------
Mg   s Cl   s Buckingham    Buckingham A     4914.5400    eV        0.000 12.000
                            Buckingham rho  0.25700000    Ang       
                            Buckingham C     0.0000000    eV*Ang^6  
--------------------------------------------------------------------------------
O    s Ca   s Buckingham    Buckingham A     1090.4000    eV        0.000 12.000
                            Buckingham rho  0.34370000    Ang       
                            Buckingham C     0.0000000    eV*Ang^6  
--------------------------------------------------------------------------------
Cl   s Ca   s Buckingham    Buckingham A     2302.0000    eV        0.000 12.000
                            Buckingham rho  0.34020000    Ang       
                            Buckingham C     0.0000000    eV*Ang^6  
--------------------------------------------------------------------------------
O    s Sr   s Buckingham    Buckingham A     959.10000    eV        0.000 12.000
                            Buckingham rho  0.37210000    Ang       
                            Buckingham C     0.0000000    eV*Ang^6  
--------------------------------------------------------------------------------
Cl   s Sr   s Buckingham    Buckingham A     2191.0900    eV        0.000 12.000
                            Buckingham rho  0.34570000    Ang       
                            Buckingham C     0.0000000    eV*Ang^6  
--------------------------------------------------------------------------------
O    s Ba   s Buckingham    Buckingham A     905.70000    eV        0.000 12.000
                            Buckingham rho  0.39760000    Ang       
                            Buckingham C     0.0000000    eV*Ang^6  
--------------------------------------------------------------------------------
Cl   s Ba   s Buckingham    Buckingham A     2704.5500    eV        0.000 12.000
                            Buckingham rho  0.35280000    Ang       
                            Buckingham C     0.0000000    eV*Ang^6  
--------------------------------------------------------------------------------

********************************************************************************
*  Output for configuration   1                                                *
********************************************************************************


  Components of energy : 

--------------------------------------------------------------------------------
  Interatomic potentials     =           5.13022605 eV    
  Monopole - monopole (real) =         -10.03624526 eV    
  Monopole - monopole (recip)=         -29.53581274 eV    
  Monopole - monopole (total)=         -39.57205800 eV    
--------------------------------------------------------------------------------
  Total lattice energy       =         -34.44183194 eV    
--------------------------------------------------------------------------------
  Total lattice energy       =           -3323.1103 kJ/(mole unit cells)
--------------------------------------------------------------------------------


  Number of variables =        1

  Maximum number of calculations  =          1000
  Maximum Hessian update interval =            10
  Maximum step size               =   1.000000000
  Maximum parameter tolerance     =   0.000010000
  Maximum function  tolerance     =   0.000010000
  Maximum gradient  tolerance     =   0.001000000
  Maximum gradient  component     =   0.010000000

  Symmetry constrained optimisation

  Symmetry used for second derivatives

  Cell parameters to be optimised using strains

  Newton-Raphson optimiser to be used

  BFGS hessian update to be used

  Lower half triangular hessian to be used

  Start of bulk optimisation :

  Cycle:      0 Energy:       -34.441832  Gnorm:      0.196570  CPU:    0.008
  ** Hessian calculated **
  Cycle:      1 Energy:       -34.441914  Gnorm:      0.000103  CPU:    0.010


  **** Optimisation achieved ****


  Final energy =     -34.44191447 eV
  Final Gnorm  =       0.00000000

  Components of energy : 

--------------------------------------------------------------------------------
  Interatomic potentials     =           5.09689708 eV    
  Monopole - monopole (real) =         -10.02781331 eV    
  Monopole - monopole (recip)=         -29.51099824 eV    
  Monopole - monopole (total)=         -39.53881155 eV    
--------------------------------------------------------------------------------
  Total lattice energy       =         -34.44191447 eV    
--------------------------------------------------------------------------------
  Total lattice energy       =           -3323.1183 kJ/(mole unit cells)
--------------------------------------------------------------------------------

  Final asymmetric unit coordinates :

--------------------------------------------------------------------------------
   No.  Atomic        x           y           z         Radius
        Label       (Frac)      (Frac)      (Frac)       (Angs) 
--------------------------------------------------------------------------------
     1  Cl    c     0.000000    0.000000    0.000000    0.000000
     2  O     c     0.500000    0.500000    0.500000    0.000000
     3  Na    c     0.500000    0.500000    0.000000    0.000000
     4  Cl    s     0.000000    0.000000    0.000000    0.000000
     5  O     s     0.500000    0.500000    0.500000    0.000000
--------------------------------------------------------------------------------

  Final Cartesian lattice vectors (Angstroms) :

        4.507787    0.000000    0.000000
        0.000000    4.507787    0.000000
        0.000000    0.000000    4.507787


  Final cell parameters and derivatives :

--------------------------------------------------------------------------------
       a            4.507787 Angstrom     dE/de1(xx)     0.000000 eV/strain
       b            4.507787 Angstrom     dE/de2(yy)     0.000000 eV/strain
       c            4.507787 Angstrom     dE/de3(zz)     0.000000 eV/strain
       alpha       90.000000 Degrees      dE/de4(yz)     0.000000 eV/strain
       beta        90.000000 Degrees      dE/de5(xz)     0.000000 eV/strain
       gamma       90.000000 Degrees      dE/de6(xy)     0.000000 eV/strain
--------------------------------------------------------------------------------

  Primitive cell volume =            91.598892 Angs**3

  Density of cell =      2.183054 g/cm**3

  Non-primitive cell volume =            91.598892 Angs**3


  Final internal derivatives :

--------------------------------------------------------------------------------
   No.  Atomic          a             b             c           Radius
        Label          (eV)          (eV)          (eV)        (eV/Angs)
--------------------------------------------------------------------------------
      1 Cl    c       0.000000      0.000000      0.000000      0.000000
      2 O     c       0.000000      0.000000      0.000000      0.000000
      3 Na    c       0.000000      0.000000      0.000000      0.000000
      4 Cl    s       0.000000      0.000000      0.000000      0.000000
      5 O     s       0.000000      0.000000      0.000000      0.000000
--------------------------------------------------------------------------------
  Maximum abs         0.000000      0.000000      0.000000      0.000000
--------------------------------------------------------------------------------

  Comparison of initial and final structures : 

--------------------------------------------------------------------------------
  Parameter   Initial value   Final value   Difference    Units      Percent
--------------------------------------------------------------------------------
    Volume        91.368216     91.598892     0.230676    Angs**3      0.25
    a              4.504000      4.507787     0.003787    Angstroms    0.08
    b              4.504000      4.507787     0.003787    Angstroms    0.08
    c              4.504000      4.507787     0.003787    Angstroms    0.08
    alpha         90.000000     90.000000     0.000000    Degrees      0.00
    beta          90.000000     90.000000     0.000000    Degrees      0.00
    gamma         90.000000     90.000000     0.000000    Degrees      0.00
      1 x          0.000000      0.000000     0.000000    Fractional   0.00
      1 y          0.000000      0.000000     0.000000    Fractional   0.00
      1 z          0.000000      0.000000     0.000000    Fractional   0.00
      2 x          0.500000      0.500000     0.000000    Fractional   0.00
      2 y          0.500000      0.500000     0.000000    Fractional   0.00
      2 z          0.500000      0.500000     0.000000    Fractional   0.00
      3 x          0.500000      0.500000     0.000000    Fractional   0.00
      3 y          0.500000      0.500000     0.000000    Fractional   0.00
      3 z          0.000000      0.000000     0.000000    Fractional   0.00
      4 x          0.000000      0.000000     0.000000    Fractional   0.00
      4 y          0.000000      0.000000     0.000000    Fractional   0.00
      4 z          0.000000      0.000000     0.000000    Fractional   0.00
      5 x          0.500000      0.500000     0.000000    Fractional   0.00
      5 y          0.500000      0.500000     0.000000    Fractional   0.00
      5 z          0.500000      0.500000     0.000000    Fractional   0.00
--------------------------------------------------------------------------------


  Born effective charge tensors : 

-------------------------------------------------------------------------------
  Atom             x           y             z
-------------------------------------------------------------------------------
    1 Cl    x      -1.0181     -0.0000      0.0000
            y      -0.0000     -1.0181      0.0000
            z       0.0000      0.0000     -1.0181
-------------------------------------------------------------------------------
    2 O     x      -2.2647      0.0000     -0.0000
            y       0.0000     -2.2647     -0.0000
            z      -0.0000     -0.0000     -2.2647
-------------------------------------------------------------------------------
    3 Na    x       1.2258     -0.0000      0.0000
            y      -0.0000      1.2258     -0.0000
            z       0.0000     -0.0000      0.8313
-------------------------------------------------------------------------------




  Elastic Constant Matrix: (Units=GPa)

-------------------------------------------------------------------------------
  Indices      1         2         3         4         5         6    
-------------------------------------------------------------------------------
       1     95.8177   20.0737   20.0737   -0.0000   -0.0000    0.0000
       2     20.0737   95.8177   20.0737   -0.0000   -0.0000    0.0000
       3     20.0737   20.0737   95.8177   -0.0000   -0.0000    0.0000
       4     -0.0000   -0.0000   -0.0000   20.0737   -0.0000    0.0000
       5     -0.0000   -0.0000   -0.0000   -0.0000   20.0737    0.0000
       6      0.0000    0.0000    0.0000    0.0000    0.0000   20.0737
-------------------------------------------------------------------------------


  Elastic Compliance Matrix: (Units=1/GPa)

-------------------------------------------------------------------------------
  Indices      1         2         3         4         5         6    
-------------------------------------------------------------------------------
       1    0.011253 -0.001949 -0.001949  0.000000  0.000000 -0.000000
       2   -0.001949  0.011253 -0.001949  0.000000  0.000000  0.000000
       3   -0.001949 -0.001949  0.011253  0.000000  0.000000 -0.000000
       4    0.000000  0.000000  0.000000  0.049816  0.000000 -0.000000
       5    0.000000  0.000000  0.000000  0.000000  0.049816 -0.000000
       6   -0.000000  0.000000 -0.000000 -0.000000 -0.000000  0.049816
-------------------------------------------------------------------------------

  Mechanical properties :

-------------------------------------------------------------------------------
  Convention :                    Reuss         Voigt         Hill
-------------------------------------------------------------------------------
  Bulk  Modulus (GPa)     =      45.32174      45.32174      45.32174
  Shear Modulus (GPa)     =      24.72085      27.19304      25.95695
-------------------------------------------------------------------------------
  Velocity S-wave (km/s)  =       3.36511       3.52937       3.44822
  Velocity P-wave (km/s)  =       5.98827       6.11304       6.05098
-------------------------------------------------------------------------------
  Compressibility (1/GPa) =    0.02206447
-------------------------------------------------------------------------------
  Stress axis :                     x             y             z
-------------------------------------------------------------------------------
  Youngs Moduli (GPa)     =      88.86373      88.86373      88.86373
-------------------------------------------------------------------------------
  Poissons Ratio (x)      =                     0.17321       0.17321
  Poissons Ratio (y)      =       0.17321                     0.17321
  Poissons Ratio (z)      =       0.17321       0.17321
-------------------------------------------------------------------------------


  Piezoelectric Strain Matrix: (Units=C/m**2)

-------------------------------------------------------------------------------
  Indices      1         2         3         4         5         6    
-------------------------------------------------------------------------------
       x    -0.00000  -0.00000  -0.00000   0.00000  -0.00000  -0.00000
       y    -0.00000  -0.00000   0.00000  -0.00000   0.00000   0.00000
       z    -0.00000  -0.00000  -0.00000  -0.00000   0.00000   0.00000
-------------------------------------------------------------------------------


  Piezoelectric Stress Matrix: (Units=10**-11 C/N)

-------------------------------------------------------------------------------
  Indices      1         2         3         4         5         6    
-------------------------------------------------------------------------------
       x    -0.00000   0.00000   0.00000   0.00000  -0.00000  -0.00000
       y    -0.00000  -0.00000   0.00000  -0.00000   0.00000   0.00000
       z     0.00000   0.00000  -0.00000  -0.00000   0.00000   0.00000
-------------------------------------------------------------------------------


  Static dielectric constant tensor : 

-------------------------------------------------------------------------------
              x         y         z
-------------------------------------------------------------------------------
       x    22.84729   0.00000   0.00000
       y     0.00000  22.84729  -0.00000
       z     0.00000  -0.00000  22.84729
--------------------------------------------------------------------------------

  High frequency dielectric constant tensor : 

-------------------------------------------------------------------------------
              x         y         z
-------------------------------------------------------------------------------
       x     1.47557   0.00000  -0.00000
       y     0.00000   1.47557  -0.00000
       z    -0.00000  -0.00000   1.47557
-------------------------------------------------------------------------------

  Static refractive indices : 

-------------------------------------------------------------------------------
    1 =    4.77988      2 =    4.77988      3 =    4.77988
-------------------------------------------------------------------------------

  High frequency refractive indices : 

-------------------------------------------------------------------------------
    1 =    1.21473      2 =    1.21473      3 =    1.21473
-------------------------------------------------------------------------------


  Time to end of optimisation =       0.0155 seconds

********************************************************************************
*  Defect calculation for configuration   1 :                                  *
********************************************************************************

  Total number of defects =      1

  Total charge on defect  =  -1.00

  Defect centre is at   0.5000   0.0000   0.0000  Frac

  Region 1 radius =  16.0000      Number of ions =   1322

  Number of symmetry inequivalent region 1 ions  =    132

  Region 2 radius =  20.0000      Number of ions =   1256

  Number of symmetry inequivalent region 2a ions =    100

  Region 2a mode = 4 : screened electrostatics due to region 1 
                       neglect correction to region 1 forces from 2a
                       region 2a displacements based on defects only

  Region 2a ions will only interact with defects in region 1

  Interstitials:

--------------------------------------------------------------------------------
    Specification type     Symbol/Number         x          y          z
--------------------------------------------------------------------------------
    Atom/Fractional         Cl               0.500000   0.000000   0.000000
--------------------------------------------------------------------------------


  Symmetry reduced region 1 (Relative to defect centre) :

--------------------------------------------------------------------------------
   No.   Atomic       x            y             z       Radius  Multiplicity   
         Label      (Angs)       (Angs)        (Angs)    (Angs)     
--------------------------------------------------------------------------------
     1  Cl    c      0.0000       0.0000       0.0000    0.0000     1    Defect
     2  Cl    c      2.2539 *     0.0000       0.0000    0.0000     2          
     3  Na    c      0.0000      -2.2539 *     0.0000    0.0000     4          
     4  O     c      0.0000      -2.2539 *    -2.2539    0.0000     4          
     5  Na    c      2.2539 *    -2.2539 *    -2.2539    0.0000     8          
     6  Cl    c      2.2539 *     0.0000       4.5078 *  0.0000     8          
     7  Na    c      0.0000      -2.2539 *     4.5078 *  0.0000     8          
     8  Na    c     -4.5078 *    -2.2539 *     0.0000    0.0000     8          
     9  O     c     -4.5078 *    -2.2539 *    -2.2539    0.0000     8          
    10  Cl    c      2.2539 *     4.5078 *     4.5078    0.0000     8          
    11  Na    c     -4.5078 *    -2.2539 *     4.5078 *  0.0000    16          
    12  Cl    c      6.7617 *     0.0000       0.0000    0.0000     2          
    13  Na    c      0.0000       6.7617 *     0.0000    0.0000     4          
    14  O     c      0.0000      -2.2539 *     6.7617 *  0.0000     8          
    15  Na    c      2.2539 *    -2.2539 *     6.7617 *  0.0000    16          
    16  Na    c      6.7617 *    -2.2539 *    -2.2539    0.0000     8          
    17  Cl    c      6.7617 *     0.0000       4.5078 *  0.0000     8          
    18  Na    c      0.0000       6.7617 *     4.5078 *  0.0000     8          
    19  Na    c     -4.5078 *     6.7617 *     0.0000    0.0000     8          
    20  O     c     -4.5078 *    -2.2539 *     6.7617 *  0.0000    16          
    21  Cl    c      2.2539 *     0.0000       9.0156 *  0.0000     8          
    22  Cl    c      6.7617 *     4.5078 *     4.5078    0.0000     8          
    23  Na    c      0.0000      -2.2539 *     9.0156 *  0.0000     8          
    24  Na    c      9.0156 *    -2.2539 *     0.0000    0.0000     8          
    25  Na    c     -4.5078 *     6.7617 *     4.5078 *  0.0000    16          
    26  O     c      9.0156 *    -2.2539 *    -2.2539    0.0000     8          
    27  O     c      0.0000       6.7617 *     6.7617    0.0000     4          
    28  Na    c      2.2539 *     6.7617 *     6.7617    0.0000     8          
    29  Na    c      6.7617 *    -2.2539 *     6.7617 *  0.0000    16          
    30  Cl    c      2.2539 *     4.5078 *     9.0156 *  0.0000    16          
    31  Na    c      9.0156 *    -2.2539 *     4.5078 *  0.0000    16          
    32  Na    c     -4.5078 *    -2.2539 *     9.0156 *  0.0000    16          
    33  O     c     -4.5078 *     6.7617 *     6.7617    0.0000     8          
    34  Cl    c     11.2695 *     0.0000       0.0000    0.0000     2          
    35  Na    c      0.0000      11.2695 *     0.0000    0.0000     4          
    36  Cl    c      6.7617 *     0.0000       9.0156 *  0.0000     8          
    37  Na    c      0.0000       6.7617 *     9.0156 *  0.0000     8          
    38  Na    c      9.0156 *     6.7617 *     0.0000    0.0000     8          
    39  O     c      0.0000      -2.2539 *    11.2695 *  0.0000     8          
    40  O     c      9.0156 *    -2.2539 *     6.7617 *  0.0000    16          
    41  Na    c      2.2539 *    -2.2539 *    11.2695 *  0.0000    16          
    42  Na    c     11.2695 *    -2.2539 *    -2.2539    0.0000     8          
    43  Na    c      6.7617 *     6.7617 *     6.7617    0.0000     8          
    44  Cl    c     11.2695 *     0.0000       4.5078 *  0.0000     8          
    45  Na    c      0.0000      11.2695 *     4.5078 *  0.0000     8          
    46  Na    c      4.5078 *    11.2695 *     0.0000    0.0000     8          
    47  Cl    c      6.7617 *     4.5078 *     9.0156 *  0.0000    16          
    48  Na    c      4.5078 *     6.7617 *     9.0156 *  0.0000    16          
    49  Na    c      9.0156 *     6.7617 *     4.5078 *  0.0000    16          
    50  O     c      4.5078 *    -2.2539 *    11.2695 *  0.0000    16          
    51  Cl    c     11.2695 *     4.5078 *     4.5078    0.0000     8          
    52  Na    c      4.5078 *    11.2695 *     4.5078 *  0.0000    16          
    53  Cl    c      2.2539 *     9.0156 *     9.0156    0.0000     8          
    54  Na    c      9.0156 *    -2.2539 *     9.0156 *  0.0000    16          
    55  O     c      0.0000       6.7617 *    11.2695 *  0.0000     8          
    56  O     c      9.0156 *     6.7617 *     6.7617    0.0000     8          
    57  Na    c      6.7617 *    11.2695 *    -2.2539 *  0.0000    16          
    58  Na    c     11.2695 *     6.7617 *    -2.2539 *  0.0000    16          
    59  Na    c      2.2539 *     6.7617 *    11.2695 *  0.0000    16          
    60  Cl    c      2.2539 *     0.0000      13.5234 *  0.0000     8          
    61  Na    c      0.0000      -2.2539 *    13.5234 *  0.0000     8          
    62  Na    c     13.5234 *    -2.2539 *     0.0000    0.0000     8          
    63  O     c      4.5078 *    11.2695 *     6.7617 *  0.0000    16          
    64  O     c     13.5234 *    -2.2539 *    -2.2539    0.0000     8          
    65  Cl    c      6.7617 *     9.0156 *     9.0156    0.0000     8          
    66  Cl    c     11.2695 *     0.0000       9.0156 *  0.0000     8          
    67  Na    c      0.0000      11.2695 *     9.0156 *  0.0000     8          
    68  Na    c      9.0156 *     6.7617 *     9.0156 *  0.0000    16          
    69  Na    c      9.0156 *    11.2695 *     0.0000    0.0000     8          
    70  Cl    c      2.2539 *     4.5078 *    13.5234 *  0.0000    16          
    71  Na    c      4.5078 *    -2.2539 *    13.5234 *  0.0000    16          
    72  Na    c     13.5234 *    -2.2539 *     4.5078 *  0.0000    16          
    73  O     c      9.0156 *    -2.2539 *    11.2695 *  0.0000    16          
    74  Na    c      6.7617 *     6.7617 *    11.2695 *  0.0000    16          
    75  Na    c     11.2695 *     6.7617 *     6.7617    0.0000     8          
    76  Cl    c     11.2695 *     4.5078 *     9.0156 *  0.0000    16          
    77  Na    c      4.5078 *    11.2695 *     9.0156 *  0.0000    16          
    78  Na    c      9.0156 *    11.2695 *     4.5078 *  0.0000    16          
    79  Cl    c      6.7617 *     0.0000      13.5234 *  0.0000     8          
    80  Na    c      0.0000       6.7617 *    13.5234 *  0.0000     8          
    81  Na    c     13.5234 *     6.7617 *     0.0000    0.0000     8          
    82  O     c     13.5234 *    -2.2539 *     6.7617 *  0.0000    16          
    83  Cl    c    -15.7773 *     0.0000       0.0000    0.0000     2          
    84  Na    c      0.0000      15.7773 *     0.0000    0.0000     4          
    85  Cl    c      6.7617 *     4.5078 *    13.5234 *  0.0000    16          
    86  Na    c      4.5078 *     6.7617 *    13.5234 *  0.0000    16          
    87  Na    c     13.5234 *     6.7617 *     4.5078 *  0.0000    16          
    88  O     c      0.0000      -2.2539 *    15.7773 *  0.0000     8          
    89  O     c      0.0000      11.2695 *    11.2695    0.0000     4          
    90  O     c      9.0156 *     6.7617 *    11.2695 *  0.0000    16          
    91  Cl    s      0.0000       0.0000       0.0000    0.0000     1    Defect
    92  Cl    s      2.2539 *     0.0000       0.0000    0.0000     2          
    93  O     s      0.0000      -2.2539 *    -2.2539    0.0000     4          
    94  Cl    s      2.2539 *     0.0000       4.5078 *  0.0000     8          
    95  O     s     -4.5078 *    -2.2539 *    -2.2539    0.0000     8          
    96  Cl    s      2.2539 *     4.5078 *     4.5078    0.0000     8          
    97  Cl    s      6.7617 *     0.0000       0.0000    0.0000     2          
    98  O     s      0.0000      -2.2539 *     6.7617 *  0.0000     8          
    99  Cl    s      6.7617 *     0.0000       4.5078 *  0.0000     8          
   100  O     s     -4.5078 *    -2.2539 *     6.7617 *  0.0000    16          
   101  Cl    s      2.2539 *     0.0000       9.0156 *  0.0000     8          
   102  Cl    s      6.7617 *     4.5078 *     4.5078    0.0000     8          
   103  O     s      9.0156 *    -2.2539 *    -2.2539    0.0000     8          
   104  O     s      0.0000       6.7617 *     6.7617    0.0000     4          
   105  Cl    s      2.2539 *     4.5078 *     9.0156 *  0.0000    16          
   106  O     s     -4.5078 *     6.7617 *     6.7617    0.0000     8          
   107  Cl    s     11.2695 *     0.0000       0.0000    0.0000     2          
   108  Cl    s      6.7617 *     0.0000       9.0156 *  0.0000     8          
   109  O     s      0.0000      -2.2539 *    11.2695 *  0.0000     8          
   110  O     s      9.0156 *    -2.2539 *     6.7617 *  0.0000    16          
   111  Cl    s     11.2695 *     0.0000       4.5078 *  0.0000     8          
   112  Cl    s      6.7617 *     4.5078 *     9.0156 *  0.0000    16          
   113  O     s      4.5078 *    -2.2539 *    11.2695 *  0.0000    16          
   114  Cl    s     11.2695 *     4.5078 *     4.5078    0.0000     8          
   115  Cl    s      2.2539 *     9.0156 *     9.0156    0.0000     8          
   116  O     s      0.0000       6.7617 *    11.2695 *  0.0000     8          
   117  O     s      9.0156 *     6.7617 *     6.7617    0.0000     8          
   118  Cl    s      2.2539 *     0.0000      13.5234 *  0.0000     8          
   119  O     s      4.5078 *    11.2695 *     6.7617 *  0.0000    16          
   120  O     s     13.5234 *    -2.2539 *    -2.2539    0.0000     8          
   121  Cl    s      6.7617 *     9.0156 *     9.0156    0.0000     8          
   122  Cl    s     11.2695 *     0.0000       9.0156 *  0.0000     8          
   123  Cl    s      2.2539 *     4.5078 *    13.5234 *  0.0000    16          
   124  O     s      9.0156 *    -2.2539 *    11.2695 *  0.0000    16          
   125  Cl    s     11.2695 *     4.5078 *     9.0156 *  0.0000    16          
   126  Cl    s      6.7617 *     0.0000      13.5234 *  0.0000     8          
   127  O     s     13.5234 *    -2.2539 *     6.7617 *  0.0000    16          
   128  Cl    s    -15.7773 *     0.0000       0.0000    0.0000     2          
   129  Cl    s      6.7617 *     4.5078 *    13.5234 *  0.0000    16          
   130  O     s      0.0000      -2.2539 *    15.7773 *  0.0000     8          
   131  O     s      0.0000      11.2695 *    11.2695    0.0000     4          
   132  O     s      9.0156 *     6.7617 *    11.2695 *  0.0000    16          
--------------------------------------------------------------------------------


  Constraints on symmetry reduced coordinates :

--------------------------------------------------------------------------------
  Constraint no.      Unconstrained     Constrained    Coefficient    
                         Variable         Variable
--------------------------------------------------------------------------------
           1                 4 y             4 z         1.00000
           2                 5 y             5 z         1.00000
           3                 9 y             9 z         1.00000
           4                10 y            10 z         1.00000
           5                16 y            16 z         1.00000
           6                22 y            22 z         1.00000
           7                26 y            26 z         1.00000
           8                27 y            27 z         1.00000
           9                28 y            28 z         1.00000
          10                33 y            33 z         1.00000
          11                42 y            42 z         1.00000
          12                43 y            43 z         1.00000
          13                51 y            51 z         1.00000
          14                53 y            53 z         1.00000
          15                56 y            56 z         1.00000
          16                64 y            64 z         1.00000
          17                65 y            65 z         1.00000
          18                75 y            75 z         1.00000
          19                89 y            89 z         1.00000
          20                93 y            93 z         1.00000
          21                95 y            95 z         1.00000
          22                96 y            96 z         1.00000
          23               102 y           102 z         1.00000
          24               103 y           103 z         1.00000
          25               104 y           104 z         1.00000
          26               106 y           106 z         1.00000
          27               114 y           114 z         1.00000
          28               115 y           115 z         1.00000
          29               117 y           117 z         1.00000
          30               120 y           120 z         1.00000
          31               121 y           121 z         1.00000
          32               131 y           131 z         1.00000
--------------------------------------------------------------------------------


  Components of defect energy : 

--------------------------------------------------------------------------------
  Region 1 - region 1                   =     40.76282105 eV
  Region 1 - region 2a (unrelaxed)      =    -35.84035418 eV
  Region 1 - 2a (relaxed - correction)  =     -0.17231508 eV
  Region 1 (Total)                      =      4.75015178 eV
  Region 2a                             =      0.08613954 eV
  Region 2b                             =     -0.34409413 eV
--------------------------------------------------------------------------------
  Total defect energy                   =      4.49219720 eV
--------------------------------------------------------------------------------

  Largest displacement in region 2 =   0.0113 Angstroms


  Number of variables =      288

  Maximum number of calculations  =        1000
  Maximum Hessian update interval =          10
  Maximum step size               =   1.0000000
  Maximum parameter tolerance     =   0.0000100
  Maximum function  tolerance     =   0.0000100
  Maximum gradient  tolerance     =   0.0010000

  Symmetry adapted optimisation

  Symmetry to be used for second derivatives

  Newton-Raphson optimiser to be used

  BFGS hessian update to be used

  Lower half triangular hessian to be used

  Start of defect optimisation :

  Cycle:      0 Defect Energy:   4.492197  Gnorm:     0.145728  CPU:    4.914
  ** Hessian calculated **
  Cycle:      1 Defect Energy:  -0.860505  Gnorm:     0.030958  CPU:   12.935
  Cycle:      2 Defect Energy:  -1.740857  Gnorm:     0.010959  CPU:   16.987
  Cycle:      3 Defect Energy:  -1.824401  Gnorm:     0.010042  CPU:   17.894
  Cycle:      4 Defect Energy:  -1.864667  Gnorm:     0.008617  CPU:   18.746
  ** Hessian calculated **
  Cycle:      5 Defect Energy:  -1.918872  Gnorm:     0.006077  CPU:   20.985
  Cycle:      6 Defect Energy:  -1.947940  Gnorm:     0.004324  CPU:   21.823
  Cycle:      7 Defect Energy:  -1.964628  Gnorm:     0.003077  CPU:   22.613
  Cycle:      8 Defect Energy:  -1.974222  Gnorm:     0.002189  CPU:   23.414
  Cycle:      9 Defect Energy:  -1.979845  Gnorm:     0.001556  CPU:   24.205
  Cycle:     10 Defect Energy:  -1.983267  Gnorm:     0.001104  CPU:   24.972
  Cycle:     11 Defect Energy:  -1.985483  Gnorm:     0.000782  CPU:   25.797
  Cycle:     12 Defect Energy:  -1.987075  Gnorm:     0.000561  CPU:   26.366
  Cycle:     13 Defect Energy:  -1.988473  Gnorm:     0.000435  CPU:   27.026
  Cycle:     14 Defect Energy:  -1.990249  Gnorm:     0.000473  CPU:   27.738
  ** Hessian calculated **
  Cycle:     15 Defect Energy:  -1.990303  Gnorm:     0.000284  CPU:   29.655
  Cycle:     16 Defect Energy:  -1.990371  Gnorm:     0.000235  CPU:   30.372
  Cycle:     17 Defect Energy:  -1.990453  Gnorm:     0.000235  CPU:   31.078
  Cycle:     18 Defect Energy:  -1.990572  Gnorm:     0.000257  CPU:   31.794
  Cycle:     19 Defect Energy:  -1.990727  Gnorm:     0.000339  CPU:   32.514
  Cycle:     20 Defect Energy:  -1.990950  Gnorm:     0.000455  CPU:   33.234
  Cycle:     21 Defect Energy:  -1.991251  Gnorm:     0.000627  CPU:   34.044
  Cycle:     22 Defect Energy:  -1.991690  Gnorm:     0.000872  CPU:   34.764
  Cycle:     23 Defect Energy:  -1.992337  Gnorm:     0.001219  CPU:   35.470
  Cycle:     24 Defect Energy:  -1.993383  Gnorm:     0.001748  CPU:   36.163
  ** Hessian calculated **
  Cycle:     25 Defect Energy:  -1.993691  Gnorm:     0.001453  CPU:   37.806
  Cycle:     26 Defect Energy:  -1.994007  Gnorm:     0.001373  CPU:   38.452
  Cycle:     27 Defect Energy:  -1.994458  Gnorm:     0.001330  CPU:   39.185
  Cycle:     28 Defect Energy:  -1.995036  Gnorm:     0.001319  CPU:   40.754
  Cycle:     29 Defect Energy:  -1.995889  Gnorm:     0.001384  CPU:   44.165
  Cycle:     30 Defect Energy:  -1.997094  Gnorm:     0.001550  CPU:   44.997
  Cycle:     31 Defect Energy:  -1.998894  Gnorm:     0.001931  CPU:   45.819
  Cycle:     32 Defect Energy:  -2.001633  Gnorm:     0.002567  CPU:   46.641
  Cycle:     33 Defect Energy:  -2.005810  Gnorm:     0.003678  CPU:   47.469
  Cycle:     34 Defect Energy:  -2.012061  Gnorm:     0.005455  CPU:   48.332
  ** Hessian calculated **
  Cycle:     35 Defect Energy:  -2.017963  Gnorm:     0.003647  CPU:   50.490
  Cycle:     36 Defect Energy:  -2.024421  Gnorm:     0.003020  CPU:   51.291
  Cycle:     37 Defect Energy:  -2.032414  Gnorm:     0.002607  CPU:   52.098
  Cycle:     38 Defect Energy:  -2.042794  Gnorm:     0.002739  CPU:   52.911
  Cycle:     39 Defect Energy:  -2.056683  Gnorm:     0.003374  CPU:   53.727
  Cycle:     40 Defect Energy:  -2.076063  Gnorm:     0.004702  CPU:   54.622
  Cycle:     41 Defect Energy:  -2.104294  Gnorm:     0.006944  CPU:   55.404
  Cycle:     42 Defect Energy:  -2.144303  Gnorm:     0.009722  CPU:   56.167
  Cycle:     43 Defect Energy:  -2.186546  Gnorm:     0.014220  CPU:   56.935
  Cycle:     44 Defect Energy:  -2.227872  Gnorm:     0.017500  CPU:   60.237
  ** Hessian calculated **
  Cycle:     45 Defect Energy:  -2.375783  Gnorm:     0.017647  CPU:   65.216
  Cycle:     46 Defect Energy:  -2.616762  Gnorm:     0.014438  CPU:   68.378
  Cycle:     47 Defect Energy:  -2.725933  Gnorm:     0.006664  CPU:   70.784
  ** Hessian calculated **
  Cycle:     48 Defect Energy:  -2.736793  Gnorm:     0.005076  CPU:   72.612
  Cycle:     49 Defect Energy:  -2.747160  Gnorm:     0.004179  CPU:   73.220
  Cycle:     50 Defect Energy:  -2.757620  Gnorm:     0.003819  CPU:   74.170
  Cycle:     51 Defect Energy:  -2.766104  Gnorm:     0.003499  CPU:   77.681
  Cycle:     52 Defect Energy:  -2.773018  Gnorm:     0.003411  CPU:   78.836
  Cycle:     53 Defect Energy:  -2.779444  Gnorm:     0.003592  CPU:   79.698
  Cycle:     54 Defect Energy:  -2.786380  Gnorm:     0.003738  CPU:   80.572
  Cycle:     55 Defect Energy:  -2.794792  Gnorm:     0.004098  CPU:   81.444
  Cycle:     56 Defect Energy:  -2.807329  Gnorm:     0.004760  CPU:   82.336
  Cycle:     57 Defect Energy:  -2.826576  Gnorm:     0.005645  CPU:   83.169
  ** Hessian calculated **
  Cycle:     58 Defect Energy:  -2.831616  Gnorm:     0.005427  CPU:   85.222
  Cycle:     59 Defect Energy:  -2.838529  Gnorm:     0.005333  CPU:   86.059
  Cycle:     60 Defect Energy:  -2.848450  Gnorm:     0.005226  CPU:   87.099
  Cycle:     61 Defect Energy:  -2.861867  Gnorm:     0.005221  CPU:   87.911
  Cycle:     62 Defect Energy:  -2.879880  Gnorm:     0.005395  CPU:   88.711
  Cycle:     63 Defect Energy:  -2.902549  Gnorm:     0.006061  CPU:   89.509
  Cycle:     64 Defect Energy:  -2.924116  Gnorm:     0.007011  CPU:   90.300
  Cycle:     65 Defect Energy:  -2.943126  Gnorm:     0.008164  CPU:   91.088
  Cycle:     66 Defect Energy:  -2.961331  Gnorm:     0.009156  CPU:   91.967
  Cycle:     67 Defect Energy:  -2.980422  Gnorm:     0.010043  CPU:   92.726
  ** Hessian calculated **
  Cycle:     68 Defect Energy:  -2.994065  Gnorm:     0.009553  CPU:   94.571
  Cycle:     69 Defect Energy:  -3.012302  Gnorm:     0.009358  CPU:   95.323
  Cycle:     70 Defect Energy:  -3.037299  Gnorm:     0.008985  CPU:   96.160
  Cycle:     71 Defect Energy:  -3.069193  Gnorm:     0.008786  CPU:   96.904
  Cycle:     72 Defect Energy:  -3.101967  Gnorm:     0.008781  CPU:   97.624
  Cycle:     73 Defect Energy:  -3.127557  Gnorm:     0.008864  CPU:   98.329
  Cycle:     74 Defect Energy:  -3.150233  Gnorm:     0.009470  CPU:   99.046
  Cycle:     75 Defect Energy:  -3.172022  Gnorm:     0.009874  CPU:   99.758
  Cycle:     76 Defect Energy:  -3.191101  Gnorm:     0.010315  CPU:  100.570
  Cycle:     77 Defect Energy:  -3.207240  Gnorm:     0.010538  CPU:  101.299
  ** Hessian calculated **
  Cycle:     78 Defect Energy:  -3.275827  Gnorm:     0.009107  CPU:  103.075
  Cycle:     79 Defect Energy:  -3.359532  Gnorm:     0.006723  CPU:  103.785
  Cycle:     80 Defect Energy:  -3.401904  Gnorm:     0.004626  CPU:  104.485
  Cycle:     81 Defect Energy:  -3.419957  Gnorm:     0.003205  CPU:  105.273
  Cycle:     82 Defect Energy:  -3.428326  Gnorm:     0.002237  CPU:  105.751
  Cycle:     83 Defect Energy:  -3.432329  Gnorm:     0.001560  CPU:  107.575
  Cycle:     84 Defect Energy:  -3.434264  Gnorm:     0.001092  CPU:  110.672
  Cycle:     85 Defect Energy:  -3.435206  Gnorm:     0.000762  CPU:  111.591
  Cycle:     86 Defect Energy:  -3.435666  Gnorm:     0.000534  CPU:  112.472
  Cycle:     87 Defect Energy:  -3.435892  Gnorm:     0.000373  CPU:  113.341
  ** Hessian calculated **
  Cycle:     88 Defect Energy:  -3.436003  Gnorm:     0.000261  CPU:  115.515
  Cycle:     89 Defect Energy:  -3.436057  Gnorm:     0.000183  CPU:  116.517
  Cycle:     90 Defect Energy:  -3.436084  Gnorm:     0.000128  CPU:  117.327
  Cycle:     91 Defect Energy:  -3.436098  Gnorm:     0.000090  CPU:  118.144


  **** Optimisation achieved ****


  Final defect energy  =       -3.43610449
  Final defect Gnorm   =        0.00006268

  Components of defect energy : 

--------------------------------------------------------------------------------
  Region 1 - region 1                   =     31.45432568 eV
  Region 1 - region 2a (unrelaxed)      =    -34.48067674 eV
  Region 1 - 2a (relaxed - correction)  =     -0.13126138 eV
  Region 1 (Total)                      =     -3.15761244 eV
  Region 2a                             =      0.06560207 eV
  Region 2b                             =     -0.34409413 eV
--------------------------------------------------------------------------------
  Total defect energy                   =     -3.43610449 eV
--------------------------------------------------------------------------------

  Largest displacement in region 2 =   0.0113 Angstroms

  Final coordinates of region 1 :

--------------------------------------------------------------------------------
   No.  Atomic        x           y           z          Radius      Charge
        Label       (Angs)      (Angs)      (Angs)       (Angs)       (e) 
--------------------------------------------------------------------------------
     1  Cl    c     2.253894    0.000000    0.000000    0.000000    1.485000
     2  Cl    c     5.310075    0.000000    0.000000    0.000000    1.485000
     3  Cl    c    -0.802288    0.000000    0.000000    0.000000    1.485000
     4  Na    c     2.253894   -2.537237    0.000000    0.000000    1.000000
     5  Na    c     2.253894    2.537237    0.000000    0.000000    1.000000
     6  Na    c     2.253894    0.000000   -2.537237    0.000000    1.000000
     7  Na    c     2.253894    0.000000    2.537237    0.000000    1.000000
     8  O     c     2.253894   -2.340235   -2.340235    0.000000    0.183000
     9  O     c     2.253894   -2.340235    2.340235    0.000000    0.183000
    10  O     c     2.253894    2.340235   -2.340235    0.000000    0.183000
    11  O     c     2.253894    2.340235    2.340235    0.000000    0.183000
    12  Na    c     4.488676   -1.989159   -1.989159    0.000000    1.000000
    13  Na    c     4.488676   -1.989159    1.989159    0.000000    1.000000
    14  Na    c     4.488676    1.989159   -1.989159    0.000000    1.000000
    15  Na    c     4.488676    1.989159    1.989159    0.000000    1.000000
    16  Na    c     0.019112   -1.989159   -1.989159    0.000000    1.000000
    17  Na    c     0.019112   -1.989159    1.989159    0.000000    1.000000
    18  Na    c     0.019112    1.989159   -1.989159    0.000000    1.000000
    19  Na    c     0.019112    1.989159    1.989159    0.000000    1.000000
    20  Cl    c     4.478314    0.000000    4.538676    0.000000    1.485000
    21  Cl    c     4.478314    0.000000   -4.538676    0.000000    1.485000
    22  Cl    c     4.478314    4.538676    0.000000    0.000000    1.485000
    23  Cl    c     4.478314   -4.538676    0.000000    0.000000    1.485000
    24  Cl    c     0.029473    0.000000    4.538676    0.000000    1.485000
    25  Cl    c     0.029473    0.000000   -4.538676    0.000000    1.485000
    26  Cl    c     0.029473    4.538676    0.000000    0.000000    1.485000
    27  Cl    c     0.029473   -4.538676    0.000000    0.000000    1.485000
    28  Na    c     2.253894   -2.454183    4.562357    0.000000    1.000000
    29  Na    c     2.253894   -2.454183   -4.562357    0.000000    1.000000
    30  Na    c     2.253894    2.454183    4.562357    0.000000    1.000000
    31  Na    c     2.253894    2.454183   -4.562357    0.000000    1.000000
    32  Na    c     2.253894    4.562357   -2.454183    0.000000    1.000000
    33  Na    c     2.253894    4.562357    2.454183    0.000000    1.000000
    34  Na    c     2.253894   -4.562357   -2.454183    0.000000    1.000000
    35  Na    c     2.253894   -4.562357    2.454183    0.000000    1.000000
    36  Na    c    -2.512437   -2.205070    0.000000    0.000000    1.000000
    37  Na    c    -2.512437    2.205070    0.000000    0.000000    1.000000
    38  Na    c    -2.512437    0.000000   -2.205070    0.000000    1.000000
    39  Na    c    -2.512437    0.000000    2.205070    0.000000    1.000000
    40  Na    c     7.020224   -2.205070    0.000000    0.000000    1.000000
    41  Na    c     7.020224    2.205070    0.000000    0.000000    1.000000
    42  Na    c     7.020224    0.000000   -2.205070    0.000000    1.000000
    43  Na    c     7.020224    0.000000    2.205070    0.000000    1.000000
    44  O     c    -2.253857   -2.288177   -2.288177    0.000000    0.183000
    45  O     c    -2.253857   -2.288177    2.288177    0.000000    0.183000
    46  O     c    -2.253857    2.288177   -2.288177    0.000000    0.183000
    47  O     c    -2.253857    2.288177    2.288177    0.000000    0.183000
    48  O     c     6.761644   -2.288177   -2.288177    0.000000    0.183000
    49  O     c     6.761644   -2.288177    2.288177    0.000000    0.183000
    50  O     c     6.761644    2.288177   -2.288177    0.000000    0.183000
    51  O     c     6.761644    2.288177    2.288177    0.000000    0.183000
    52  Cl    c     4.510150    4.584233    4.584233    0.000000    1.485000
    53  Cl    c     4.510150    4.584233   -4.584233    0.000000    1.485000
    54  Cl    c     4.510150   -4.584233    4.584233    0.000000    1.485000
    55  Cl    c     4.510150   -4.584233   -4.584233    0.000000    1.485000
    56  Cl    c    -0.002363    4.584233    4.584233    0.000000    1.485000
    57  Cl    c    -0.002363    4.584233   -4.584233    0.000000    1.485000
    58  Cl    c    -0.002363   -4.584233    4.584233    0.000000    1.485000
    59  Cl    c    -0.002363   -4.584233   -4.584233    0.000000    1.485000
    60  Na    c    -1.920817   -2.224740    4.503620    0.000000    1.000000
    61  Na    c    -1.920817   -2.224740   -4.503620    0.000000    1.000000
    62  Na    c    -1.920817    2.224740    4.503620    0.000000    1.000000
    63  Na    c    -1.920817    2.224740   -4.503620    0.000000    1.000000
    64  Na    c    -1.920817    4.503620   -2.224740    0.000000    1.000000
    65  Na    c    -1.920817    4.503620    2.224740    0.000000    1.000000
    66  Na    c    -1.920817   -4.503620   -2.224740    0.000000    1.000000
    67  Na    c    -1.920817   -4.503620    2.224740    0.000000    1.000000
    68  Na    c     6.428604   -2.224740    4.503620    0.000000    1.000000
    69  Na    c     6.428604   -2.224740   -4.503620    0.000000    1.000000
    70  Na    c     6.428604    2.224740    4.503620    0.000000    1.000000
    71  Na    c     6.428604    2.224740   -4.503620    0.000000    1.000000
    72  Na    c     6.428604    4.503620   -2.224740    0.000000    1.000000
    73  Na    c     6.428604    4.503620    2.224740    0.000000    1.000000
    74  Na    c     6.428604   -4.503620   -2.224740    0.000000    1.000000
    75  Na    c     6.428604   -4.503620    2.224740    0.000000    1.000000
    76  Cl    c     9.129991    0.000000    0.000000    0.000000    1.485000
    77  Cl    c    -4.622204    0.000000    0.000000    0.000000    1.485000
    78  Na    c     2.253894    6.460492    0.000000    0.000000    1.000000
    79  Na    c     2.253894   -6.460492    0.000000    0.000000    1.000000
    80  Na    c     2.253894    0.000000    6.460492    0.000000    1.000000
    81  Na    c     2.253894    0.000000   -6.460492    0.000000    1.000000
    82  O     c     2.253894   -2.262680    6.820142    0.000000    0.183000
    83  O     c     2.253894   -2.262680   -6.820142    0.000000    0.183000
    84  O     c     2.253894    2.262680    6.820142    0.000000    0.183000
    85  O     c     2.253894    2.262680   -6.820142    0.000000    0.183000
    86  O     c     2.253894    6.820142   -2.262680    0.000000    0.183000
    87  O     c     2.253894    6.820142    2.262680    0.000000    0.183000
    88  O     c     2.253894   -6.820142   -2.262680    0.000000    0.183000
    89  O     c     2.253894   -6.820142    2.262680    0.000000    0.183000
    90  Na    c     4.509008   -2.413818    6.955690    0.000000    1.000000
    91  Na    c     4.509008   -2.413818   -6.955690    0.000000    1.000000
    92  Na    c     4.509008    2.413818    6.955690    0.000000    1.000000
    93  Na    c     4.509008    2.413818   -6.955690    0.000000    1.000000
    94  Na    c     4.509008    6.955690   -2.413818    0.000000    1.000000
    95  Na    c     4.509008    6.955690    2.413818    0.000000    1.000000
    96  Na    c     4.509008   -6.955690   -2.413818    0.000000    1.000000
    97  Na    c     4.509008   -6.955690    2.413818    0.000000    1.000000
    98  Na    c    -0.001221   -2.413818    6.955690    0.000000    1.000000
    99  Na    c    -0.001221   -2.413818   -6.955690    0.000000    1.000000
   100  Na    c    -0.001221    2.413818    6.955690    0.000000    1.000000
   101  Na    c    -0.001221    2.413818   -6.955690    0.000000    1.000000
   102  Na    c    -0.001221    6.955690   -2.413818    0.000000    1.000000
   103  Na    c    -0.001221    6.955690    2.413818    0.000000    1.000000
   104  Na    c    -0.001221   -6.955690   -2.413818    0.000000    1.000000
   105  Na    c    -0.001221   -6.955690    2.413818    0.000000    1.000000
   106  Na    c     9.000716   -2.540304   -2.540304    0.000000    1.000000
   107  Na    c     9.000716   -2.540304    2.540304    0.000000    1.000000
   108  Na    c     9.000716    2.540304   -2.540304    0.000000    1.000000
   109  Na    c     9.000716    2.540304    2.540304    0.000000    1.000000
   110  Na    c    -4.492929   -2.540304   -2.540304    0.000000    1.000000
   111  Na    c    -4.492929   -2.540304    2.540304    0.000000    1.000000
   112  Na    c    -4.492929    2.540304   -2.540304    0.000000    1.000000
   113  Na    c    -4.492929    2.540304    2.540304    0.000000    1.000000
   114  Cl    c     9.049924    0.000000    4.453922    0.000000    1.485000
   115  Cl    c     9.049924    0.000000   -4.453922    0.000000    1.485000
   116  Cl    c     9.049924    4.453922    0.000000    0.000000    1.485000
   117  Cl    c     9.049924   -4.453922    0.000000    0.000000    1.485000
   118  Cl    c    -4.542136    0.000000    4.453922    0.000000    1.485000
   119  Cl    c    -4.542136    0.000000   -4.453922    0.000000    1.485000
   120  Cl    c    -4.542136    4.453922    0.000000    0.000000    1.485000
   121  Cl    c    -4.542136   -4.453922    0.000000    0.000000    1.485000
   122  Na    c     2.253894    6.954103    4.525309    0.000000    1.000000
   123  Na    c     2.253894    6.954103   -4.525309    0.000000    1.000000
   124  Na    c     2.253894   -6.954103    4.525309    0.000000    1.000000
   125  Na    c     2.253894   -6.954103   -4.525309    0.000000    1.000000
   126  Na    c     2.253894    4.525309    6.954103    0.000000    1.000000
   127  Na    c     2.253894    4.525309   -6.954103    0.000000    1.000000
   128  Na    c     2.253894   -4.525309    6.954103    0.000000    1.000000
   129  Na    c     2.253894   -4.525309   -6.954103    0.000000    1.000000
   130  Na    c    -1.990984    6.808373    0.000000    0.000000    1.000000
   131  Na    c    -1.990984   -6.808373    0.000000    0.000000    1.000000
   132  Na    c    -1.990984    0.000000    6.808373    0.000000    1.000000
   133  Na    c    -1.990984    0.000000   -6.808373    0.000000    1.000000
   134  Na    c     6.498771    6.808373    0.000000    0.000000    1.000000
   135  Na    c     6.498771   -6.808373    0.000000    0.000000    1.000000
   136  Na    c     6.498771    0.000000    6.808373    0.000000    1.000000
   137  Na    c     6.498771    0.000000   -6.808373    0.000000    1.000000
   138  O     c    -2.256443   -2.244874    6.756383    0.000000    0.183000
   139  O     c    -2.256443   -2.244874   -6.756383    0.000000    0.183000
   140  O     c    -2.256443    2.244874    6.756383    0.000000    0.183000
   141  O     c    -2.256443    2.244874   -6.756383    0.000000    0.183000
   142  O     c    -2.256443    6.756383   -2.244874    0.000000    0.183000
   143  O     c    -2.256443    6.756383    2.244874    0.000000    0.183000
   144  O     c    -2.256443   -6.756383   -2.244874    0.000000    0.183000
   145  O     c    -2.256443   -6.756383    2.244874    0.000000    0.183000
   146  O     c     6.764230   -2.244874    6.756383    0.000000    0.183000
   147  O     c     6.764230   -2.244874   -6.756383    0.000000    0.183000
   148  O     c     6.764230    2.244874    6.756383    0.000000    0.183000
   149  O     c     6.764230    2.244874   -6.756383    0.000000    0.183000
   150  O     c     6.764230    6.756383   -2.244874    0.000000    0.183000
   151  O     c     6.764230    6.756383    2.244874    0.000000    0.183000
   152  O     c     6.764230   -6.756383   -2.244874    0.000000    0.183000
   153  O     c     6.764230   -6.756383    2.244874    0.000000    0.183000
   154  Cl    c     4.514685    0.000000    9.019306    0.000000    1.485000
   155  Cl    c     4.514685    0.000000   -9.019306    0.000000    1.485000
   156  Cl    c     4.514685    9.019306    0.000000    0.000000    1.485000
   157  Cl    c     4.514685   -9.019306    0.000000    0.000000    1.485000
   158  Cl    c    -0.006898    0.000000    9.019306    0.000000    1.485000
   159  Cl    c    -0.006898    0.000000   -9.019306    0.000000    1.485000
   160  Cl    c    -0.006898    9.019306    0.000000    0.000000    1.485000
   161  Cl    c    -0.006898   -9.019306    0.000000    0.000000    1.485000
   162  Cl    c     9.021392    4.559572    4.559572    0.000000    1.485000
   163  Cl    c     9.021392    4.559572   -4.559572    0.000000    1.485000
   164  Cl    c     9.021392   -4.559572    4.559572    0.000000    1.485000
   165  Cl    c     9.021392   -4.559572   -4.559572    0.000000    1.485000
   166  Cl    c    -4.513605    4.559572    4.559572    0.000000    1.485000
   167  Cl    c    -4.513605    4.559572   -4.559572    0.000000    1.485000
   168  Cl    c    -4.513605   -4.559572    4.559572    0.000000    1.485000
   169  Cl    c    -4.513605   -4.559572   -4.559572    0.000000    1.485000
   170  Na    c     2.253894   -1.871464    9.038071    0.000000    1.000000
   171  Na    c     2.253894   -1.871464   -9.038071    0.000000    1.000000
   172  Na    c     2.253894    1.871464    9.038071    0.000000    1.000000
   173  Na    c     2.253894    1.871464   -9.038071    0.000000    1.000000
   174  Na    c     2.253894    9.038071   -1.871464    0.000000    1.000000
   175  Na    c     2.253894    9.038071    1.871464    0.000000    1.000000
   176  Na    c     2.253894   -9.038071   -1.871464    0.000000    1.000000
   177  Na    c     2.253894   -9.038071    1.871464    0.000000    1.000000
   178  Na    c    10.956545   -2.250985    0.000000    0.000000    1.000000
   179  Na    c    10.956545    2.250985    0.000000    0.000000    1.000000
   180  Na    c    -6.448758   -2.250985    0.000000    0.000000    1.000000
   181  Na    c    -6.448758    2.250985    0.000000    0.000000    1.000000
   182  Na    c    10.956545    0.000000   -2.250985    0.000000    1.000000
   183  Na    c    10.956545    0.000000    2.250985    0.000000    1.000000
   184  Na    c    -6.448758    0.000000   -2.250985    0.000000    1.000000
   185  Na    c    -6.448758    0.000000    2.250985    0.000000    1.000000
   186  Na    c    -2.486717    6.705425    4.505801    0.000000    1.000000
   187  Na    c    -2.486717    6.705425   -4.505801    0.000000    1.000000
   188  Na    c    -2.486717   -6.705425    4.505801    0.000000    1.000000
   189  Na    c    -2.486717   -6.705425   -4.505801    0.000000    1.000000
   190  Na    c     6.994504    6.705425    4.505801    0.000000    1.000000
   191  Na    c     6.994504    6.705425   -4.505801    0.000000    1.000000
   192  Na    c     6.994504   -6.705425    4.505801    0.000000    1.000000
   193  Na    c     6.994504   -6.705425   -4.505801    0.000000    1.000000
   194  Na    c     6.994504    4.505801    6.705425    0.000000    1.000000
   195  Na    c     6.994504    4.505801   -6.705425    0.000000    1.000000
   196  Na    c     6.994504   -4.505801    6.705425    0.000000    1.000000
   197  Na    c     6.994504   -4.505801   -6.705425    0.000000    1.000000
   198  Na    c    -2.486717    4.505801    6.705425    0.000000    1.000000
   199  Na    c    -2.486717    4.505801   -6.705425    0.000000    1.000000
   200  Na    c    -2.486717   -4.505801    6.705425    0.000000    1.000000
   201  Na    c    -2.486717   -4.505801   -6.705425    0.000000    1.000000
   202  O     c    11.258169   -2.259756   -2.259756    0.000000    0.183000
   203  O     c    11.258169   -2.259756    2.259756    0.000000    0.183000
   204  O     c    11.258169    2.259756   -2.259756    0.000000    0.183000
   205  O     c    11.258169    2.259756    2.259756    0.000000    0.183000
   206  O     c    -6.750382   -2.259756   -2.259756    0.000000    0.183000
   207  O     c    -6.750382   -2.259756    2.259756    0.000000    0.183000
   208  O     c    -6.750382    2.259756   -2.259756    0.000000    0.183000
   209  O     c    -6.750382    2.259756    2.259756    0.000000    0.183000
   210  O     c     2.253894    6.777904    6.777904    0.000000    0.183000
   211  O     c     2.253894    6.777904   -6.777904    0.000000    0.183000
   212  O     c     2.253894   -6.777904    6.777904    0.000000    0.183000
   213  O     c     2.253894   -6.777904   -6.777904    0.000000    0.183000
   214  Na    c     4.512739    6.609127    6.609127    0.000000    1.000000
   215  Na    c     4.512739    6.609127   -6.609127    0.000000    1.000000
   216  Na    c     4.512739   -6.609127    6.609127    0.000000    1.000000
   217  Na    c     4.512739   -6.609127   -6.609127    0.000000    1.000000
   218  Na    c    -0.004951    6.609127    6.609127    0.000000    1.000000
   219  Na    c    -0.004951    6.609127   -6.609127    0.000000    1.000000
   220  Na    c    -0.004951   -6.609127    6.609127    0.000000    1.000000
   221  Na    c    -0.004951   -6.609127   -6.609127    0.000000    1.000000
   222  Na    c     9.010012   -1.998257    6.464357    0.000000    1.000000
   223  Na    c     9.010012   -1.998257   -6.464357    0.000000    1.000000
   224  Na    c     9.010012    1.998257    6.464357    0.000000    1.000000
   225  Na    c     9.010012    1.998257   -6.464357    0.000000    1.000000
   226  Na    c     9.010012    6.464357   -1.998257    0.000000    1.000000
   227  Na    c     9.010012    6.464357    1.998257    0.000000    1.000000
   228  Na    c     9.010012   -6.464357   -1.998257    0.000000    1.000000
   229  Na    c     9.010012   -6.464357    1.998257    0.000000    1.000000
   230  Na    c    -4.502225   -1.998257    6.464357    0.000000    1.000000
   231  Na    c    -4.502225   -1.998257   -6.464357    0.000000    1.000000
   232  Na    c    -4.502225    1.998257    6.464357    0.000000    1.000000
   233  Na    c    -4.502225    1.998257   -6.464357    0.000000    1.000000
   234  Na    c    -4.502225    6.464357   -1.998257    0.000000    1.000000
   235  Na    c    -4.502225    6.464357    1.998257    0.000000    1.000000
   236  Na    c    -4.502225   -6.464357   -1.998257    0.000000    1.000000
   237  Na    c    -4.502225   -6.464357    1.998257    0.000000    1.000000
   238  Cl    c     4.480452    4.539839    9.036787    0.000000    1.485000
   239  Cl    c     4.480452    4.539839   -9.036787    0.000000    1.485000
   240  Cl    c     4.480452    9.036787    4.539839    0.000000    1.485000
   241  Cl    c     4.480452    9.036787   -4.539839    0.000000    1.485000
   242  Cl    c     4.480452   -4.539839    9.036787    0.000000    1.485000
   243  Cl    c     4.480452   -4.539839   -9.036787    0.000000    1.485000
   244  Cl    c     4.480452   -9.036787    4.539839    0.000000    1.485000
   245  Cl    c     4.480452   -9.036787   -4.539839    0.000000    1.485000
   246  Cl    c     0.027335    4.539839    9.036787    0.000000    1.485000
   247  Cl    c     0.027335    4.539839   -9.036787    0.000000    1.485000
   248  Cl    c     0.027335    9.036787    4.539839    0.000000    1.485000
   249  Cl    c     0.027335    9.036787   -4.539839    0.000000    1.485000
   250  Cl    c     0.027335   -4.539839    9.036787    0.000000    1.485000
   251  Cl    c     0.027335   -4.539839   -9.036787    0.000000    1.485000
   252  Cl    c     0.027335   -9.036787    4.539839    0.000000    1.485000
   253  Cl    c     0.027335   -9.036787   -4.539839    0.000000    1.485000
   254  Na    c    11.532025   -2.187811    4.501097    0.000000    1.000000
   255  Na    c    11.532025   -2.187811   -4.501097    0.000000    1.000000
   256  Na    c    11.532025    2.187811    4.501097    0.000000    1.000000
   257  Na    c    11.532025    2.187811   -4.501097    0.000000    1.000000
   258  Na    c    -7.024237   -2.187811    4.501097    0.000000    1.000000
   259  Na    c    -7.024237   -2.187811   -4.501097    0.000000    1.000000
   260  Na    c    -7.024237    2.187811    4.501097    0.000000    1.000000
   261  Na    c    -7.024237    2.187811   -4.501097    0.000000    1.000000
   262  Na    c    11.532025    4.501097   -2.187811    0.000000    1.000000
   263  Na    c    11.532025    4.501097    2.187811    0.000000    1.000000
   264  Na    c    11.532025   -4.501097   -2.187811    0.000000    1.000000
   265  Na    c    11.532025   -4.501097    2.187811    0.000000    1.000000
   266  Na    c    -7.024237    4.501097   -2.187811    0.000000    1.000000
   267  Na    c    -7.024237    4.501097    2.187811    0.000000    1.000000
   268  Na    c    -7.024237   -4.501097   -2.187811    0.000000    1.000000
   269  Na    c    -7.024237   -4.501097    2.187811    0.000000    1.000000
   270  Na    c    -2.508550   -2.289159    9.003800    0.000000    1.000000
   271  Na    c    -2.508550   -2.289159   -9.003800    0.000000    1.000000
   272  Na    c    -2.508550    2.289159    9.003800    0.000000    1.000000
   273  Na    c    -2.508550    2.289159   -9.003800    0.000000    1.000000
   274  Na    c    -2.508550    9.003800   -2.289159    0.000000    1.000000
   275  Na    c    -2.508550    9.003800    2.289159    0.000000    1.000000
   276  Na    c    -2.508550   -9.003800   -2.289159    0.000000    1.000000
   277  Na    c    -2.508550   -9.003800    2.289159    0.000000    1.000000
   278  Na    c     7.016338   -2.289159    9.003800    0.000000    1.000000
   279  Na    c     7.016338   -2.289159   -9.003800    0.000000    1.000000
   280  Na    c     7.016338    2.289159    9.003800    0.000000    1.000000
   281  Na    c     7.016338    2.289159   -9.003800    0.000000    1.000000
   282  Na    c     7.016338    9.003800   -2.289159    0.000000    1.000000
   283  Na    c     7.016338    9.003800    2.289159    0.000000    1.000000
   284  Na    c     7.016338   -9.003800   -2.289159    0.000000    1.000000
   285  Na    c     7.016338   -9.003800    2.289159    0.000000    1.000000
   286  O     c    -2.260965    6.769402    6.769402    0.000000    0.183000
   287  O     c    -2.260965    6.769402   -6.769402    0.000000    0.183000
   288  O     c    -2.260965   -6.769402    6.769402    0.000000    0.183000
   289  O     c    -2.260965   -6.769402   -6.769402    0.000000    0.183000
   290  O     c     6.768752    6.769402    6.769402    0.000000    0.183000
   291  O     c     6.768752    6.769402   -6.769402    0.000000    0.183000
   292  O     c     6.768752   -6.769402    6.769402    0.000000    0.183000
   293  O     c     6.768752   -6.769402   -6.769402    0.000000    0.183000
   294  Cl    c    13.639851    0.000000    0.000000    0.000000    1.485000
   295  Cl    c    -9.132064    0.000000    0.000000    0.000000    1.485000
   296  Na    c     2.253894   11.623498    0.000000    0.000000    1.000000
   297  Na    c     2.253894  -11.623498    0.000000    0.000000    1.000000
   298  Na    c     2.253894    0.000000   11.623498    0.000000    1.000000
   299  Na    c     2.253894    0.000000  -11.623498    0.000000    1.000000
   300  Cl    c     9.035741    0.000000    9.072640    0.000000    1.485000
   301  Cl    c     9.035741    0.000000   -9.072640    0.000000    1.485000
   302  Cl    c     9.035741    9.072640    0.000000    0.000000    1.485000
   303  Cl    c     9.035741   -9.072640    0.000000    0.000000    1.485000
   304  Cl    c    -4.527953    0.000000    9.072640    0.000000    1.485000
   305  Cl    c    -4.527953    0.000000   -9.072640    0.000000    1.485000
   306  Cl    c    -4.527953    9.072640    0.000000    0.000000    1.485000
   307  Cl    c    -4.527953   -9.072640    0.000000    0.000000    1.485000
   308  Na    c     2.253894    6.890034    9.026451    0.000000    1.000000
   309  Na    c     2.253894    6.890034   -9.026451    0.000000    1.000000
   310  Na    c     2.253894   -6.890034    9.026451    0.000000    1.000000
   311  Na    c     2.253894   -6.890034   -9.026451    0.000000    1.000000
   312  Na    c     2.253894    9.026451    6.890034    0.000000    1.000000
   313  Na    c     2.253894    9.026451   -6.890034    0.000000    1.000000
   314  Na    c     2.253894   -9.026451    6.890034    0.000000    1.000000
   315  Na    c     2.253894   -9.026451   -6.890034    0.000000    1.000000
   316  Na    c    11.512244    6.871949    0.000000    0.000000    1.000000
   317  Na    c    11.512244   -6.871949    0.000000    0.000000    1.000000
   318  Na    c    -7.004457    6.871949    0.000000    0.000000    1.000000
   319  Na    c    -7.004457   -6.871949    0.000000    0.000000    1.000000
   320  Na    c    11.512244    0.000000    6.871949    0.000000    1.000000
   321  Na    c    11.512244    0.000000   -6.871949    0.000000    1.000000
   322  Na    c    -7.004457    0.000000    6.871949    0.000000    1.000000
   323  Na    c    -7.004457    0.000000   -6.871949    0.000000    1.000000
   324  O     c     2.253894   -2.249944   11.261765    0.000000    0.183000
   325  O     c     2.253894   -2.249944  -11.261765    0.000000    0.183000
   326  O     c     2.253894    2.249944   11.261765    0.000000    0.183000
   327  O     c     2.253894    2.249944  -11.261765    0.000000    0.183000
   328  O     c     2.253894   11.261765   -2.249944    0.000000    0.183000
   329  O     c     2.253894   11.261765    2.249944    0.000000    0.183000
   330  O     c     2.253894  -11.261765   -2.249944    0.000000    0.183000
   331  O     c     2.253894  -11.261765    2.249944    0.000000    0.183000
   332  O     c    11.258043   -2.249912    6.756053    0.000000    0.183000
   333  O     c    11.258043   -2.249912   -6.756053    0.000000    0.183000
   334  O     c    11.258043    2.249912    6.756053    0.000000    0.183000
   335  O     c    11.258043    2.249912   -6.756053    0.000000    0.183000
   336  O     c    11.258043    6.756053   -2.249912    0.000000    0.183000
   337  O     c    11.258043    6.756053    2.249912    0.000000    0.183000
   338  O     c    11.258043   -6.756053   -2.249912    0.000000    0.183000
   339  O     c    11.258043   -6.756053    2.249912    0.000000    0.183000
   340  O     c    -6.750256   -2.249912    6.756053    0.000000    0.183000
   341  O     c    -6.750256   -2.249912   -6.756053    0.000000    0.183000
   342  O     c    -6.750256    2.249912    6.756053    0.000000    0.183000
   343  O     c    -6.750256    2.249912   -6.756053    0.000000    0.183000
   344  O     c    -6.750256    6.756053   -2.249912    0.000000    0.183000
   345  O     c    -6.750256    6.756053    2.249912    0.000000    0.183000
   346  O     c    -6.750256   -6.756053   -2.249912    0.000000    0.183000
   347  O     c    -6.750256   -6.756053    2.249912    0.000000    0.183000
   348  Na    c     4.516572   -2.408673   11.168592    0.000000    1.000000
   349  Na    c     4.516572   -2.408673  -11.168592    0.000000    1.000000
   350  Na    c     4.516572    2.408673   11.168592    0.000000    1.000000
   351  Na    c     4.516572    2.408673  -11.168592    0.000000    1.000000
   352  Na    c     4.516572   11.168592   -2.408673    0.000000    1.000000
   353  Na    c     4.516572   11.168592    2.408673    0.000000    1.000000
   354  Na    c     4.516572  -11.168592   -2.408673    0.000000    1.000000
   355  Na    c     4.516572  -11.168592    2.408673    0.000000    1.000000
   356  Na    c    -0.008785   -2.408673   11.168592    0.000000    1.000000
   357  Na    c    -0.008785   -2.408673  -11.168592    0.000000    1.000000
   358  Na    c    -0.008785    2.408673   11.168592    0.000000    1.000000
   359  Na    c    -0.008785    2.408673  -11.168592    0.000000    1.000000
   360  Na    c    -0.008785   11.168592   -2.408673    0.000000    1.000000
   361  Na    c    -0.008785   11.168592    2.408673    0.000000    1.000000
   362  Na    c    -0.008785  -11.168592   -2.408673    0.000000    1.000000
   363  Na    c    -0.008785  -11.168592    2.408673    0.000000    1.000000
   364  Na    c    13.505886   -2.042177   -2.042177    0.000000    1.000000
   365  Na    c    13.505886   -2.042177    2.042177    0.000000    1.000000
   366  Na    c    13.505886    2.042177   -2.042177    0.000000    1.000000
   367  Na    c    13.505886    2.042177    2.042177    0.000000    1.000000
   368  Na    c    -8.998099   -2.042177   -2.042177    0.000000    1.000000
   369  Na    c    -8.998099   -2.042177    2.042177    0.000000    1.000000
   370  Na    c    -8.998099    2.042177   -2.042177    0.000000    1.000000
   371  Na    c    -8.998099    2.042177    2.042177    0.000000    1.000000
   372  Na    c     9.002681    7.017434    7.017434    0.000000    1.000000
   373  Na    c     9.002681    7.017434   -7.017434    0.000000    1.000000
   374  Na    c     9.002681   -7.017434    7.017434    0.000000    1.000000
   375  Na    c     9.002681   -7.017434   -7.017434    0.000000    1.000000
   376  Na    c    -4.494893    7.017434    7.017434    0.000000    1.000000
   377  Na    c    -4.494893    7.017434   -7.017434    0.000000    1.000000
   378  Na    c    -4.494893   -7.017434    7.017434    0.000000    1.000000
   379  Na    c    -4.494893   -7.017434   -7.017434    0.000000    1.000000
   380  Cl    c    13.542574    0.000000    4.493892    0.000000    1.485000
[...]
     52 y         11.269468     11.293717     0.024249    Cartesian    0.22
     52 z          4.507787      4.497056    -0.010731    Cartesian   -0.24
     53 x          4.507787      4.503659    -0.004128    Cartesian   -0.09
     53 y          9.015574      9.040918     0.025343    Cartesian    0.28
     53 z          9.015574      9.040918     0.025343    Cartesian    0.28
     54 x         11.269468     11.055873    -0.213595    Cartesian   -1.90
     54 y         -2.253894     -2.340501    -0.086607    Cartesian    3.84
     54 z          9.015574      9.011871    -0.003704    Cartesian   -0.04
     55 x          2.253894      2.253894     0.000000    Cartesian    0.00
     55 y          6.761681      6.746472    -0.015208    Cartesian   -0.22
     55 z         11.269468     11.277258     0.007790    Cartesian    0.07
     56 x         11.269468     11.244178    -0.025290    Cartesian   -0.22
     56 y          6.761681      6.759966    -0.001715    Cartesian   -0.03
     56 z          6.761681      6.759966    -0.001715    Cartesian   -0.03
     57 x          9.015574      9.010360    -0.005214    Cartesian   -0.06
     57 y         11.269468     11.419025     0.149557    Cartesian    1.33
     57 z         -2.253894     -1.987800     0.266093    Cartesian  -11.81
     58 x         13.523362     13.503948    -0.019413    Cartesian   -0.14
     58 y          6.761681      6.919918     0.158237    Cartesian    2.34
     58 z         -2.253894     -2.474562    -0.220668    Cartesian    9.79
     59 x          4.507787      4.510612     0.002825    Cartesian    0.06
     59 y          6.761681      6.677802    -0.083879    Cartesian   -1.24
     59 z         11.269468     11.384119     0.114651    Cartesian    1.02
     60 x          4.507787      4.550899     0.043112    Cartesian    0.96
     60 y          0.000000      0.000000     0.000000    Cartesian    0.00
     60 z         13.523362     13.548282     0.024920    Cartesian    0.18
     61 x          2.253894      2.253894     0.000000    Cartesian    0.00
     61 y         -2.253894     -2.471281    -0.217387    Cartesian    9.64
     61 z         13.523362     13.505681    -0.017681    Cartesian   -0.13
     62 x         15.777255     15.865278     0.088023    Cartesian    0.56
     62 y         -2.253894     -2.289552    -0.035658    Cartesian    1.58
     62 z          0.000000      0.000000     0.000000    Cartesian    0.00
     63 x          6.761681      6.766687     0.005006    Cartesian    0.07
     63 y         11.269468     11.263867    -0.005601    Cartesian   -0.05
     63 z          6.761681      6.749506    -0.012174    Cartesian   -0.18
     64 x         15.777255     15.766917    -0.010339    Cartesian   -0.07
     64 y         -2.253894     -2.243522     0.010371    Cartesian   -0.46
     64 z         -2.253894     -2.243522     0.010371    Cartesian   -0.46
     65 x          9.015574      9.025951     0.010376    Cartesian    0.12
     65 y          9.015574      9.070139     0.054564    Cartesian    0.61
     65 z          9.015574      9.070139     0.054564    Cartesian    0.61
     66 x         13.523362     13.546189     0.022827    Cartesian    0.17
     66 y          0.000000      0.000000     0.000000    Cartesian    0.00
     66 z          9.015574      9.060004     0.044429    Cartesian    0.49
     67 x          2.253894      2.253894     0.000000    Cartesian    0.00
     67 y         11.269468     11.312936     0.043468    Cartesian    0.39
     67 z          9.015574      9.009814    -0.005761    Cartesian   -0.06
     68 x         11.269468     11.454348     0.184880    Cartesian    1.64
     68 y          6.761681      6.704056    -0.057625    Cartesian   -0.85
     68 z          9.015574      9.002344    -0.013230    Cartesian   -0.15
     69 x         11.269468     11.440192     0.170724    Cartesian    1.51
     69 y         11.269468     11.139981    -0.129487    Cartesian   -1.15
     69 z          0.000000      0.000000     0.000000    Cartesian    0.00
     70 x          4.507787      4.493114    -0.014673    Cartesian   -0.33
     70 y          4.507787      4.500116    -0.007671    Cartesian   -0.17
     70 z         13.523362     13.552859     0.029497    Cartesian    0.22
     71 x          6.761681      6.678718    -0.082963    Cartesian   -1.23
     71 y         -2.253894     -2.221787     0.032107    Cartesian   -1.42
     71 z         13.523362     13.519762    -0.003599    Cartesian   -0.03
     72 x         15.777255     15.670139    -0.107116    Cartesian   -0.68
     72 y         -2.253894     -2.270978    -0.017084    Cartesian    0.76
     72 z          4.507787      4.504888    -0.002899    Cartesian   -0.06
     73 x         11.269468     11.253316    -0.016152    Cartesian   -0.14
     73 y         -2.253894     -2.240888     0.013006    Cartesian   -0.58
     73 z         11.269468     11.269663     0.000195    Cartesian    0.00
     74 x          9.015574      9.021846     0.006272    Cartesian    0.07
     74 y          6.761681      6.867818     0.106137    Cartesian    1.57
     74 z         11.269468     11.101907    -0.167561    Cartesian   -1.49
     75 x         13.523362     13.510537    -0.012825    Cartesian   -0.09
     75 y          6.761681      6.623900    -0.137781    Cartesian   -2.04
     75 z          6.761681      6.623900    -0.137781    Cartesian   -2.04
     76 x         13.523362     13.566407     0.043045    Cartesian    0.32
     76 y          4.507787      4.530685     0.022898    Cartesian    0.51
     76 z          9.015574      9.016418     0.000843    Cartesian    0.01
     77 x          6.761681      6.721232    -0.040449    Cartesian   -0.60
     77 y         11.269468     11.245157    -0.024311    Cartesian   -0.22
     77 z          9.015574      9.009965    -0.005609    Cartesian   -0.06
     78 x         11.269468     11.157536    -0.111932    Cartesian   -0.99
     78 y         11.269468     11.312725     0.043257    Cartesian    0.38
     78 z          4.507787      4.500175    -0.007612    Cartesian   -0.17
     79 x          9.015574      9.026372     0.010798    Cartesian    0.12
     79 y          0.000000      0.000000     0.000000    Cartesian    0.00
     79 z         13.523362     13.570382     0.047020    Cartesian    0.35
     80 x          2.253894      2.253894     0.000000    Cartesian    0.00
     80 y          6.761681      6.690157    -0.071524    Cartesian   -1.06
     80 z         13.523362     13.525683     0.002322    Cartesian    0.02
     81 x         15.777255     15.684569    -0.092687    Cartesian   -0.59
     81 y          6.761681      6.719055    -0.042626    Cartesian   -0.63
     81 z          0.000000      0.000000     0.000000    Cartesian    0.00
     82 x         15.777255     15.757116    -0.020139    Cartesian   -0.13
     82 y         -2.253894     -2.272072    -0.018178    Cartesian    0.81
     82 z          6.761681      6.770033     0.008352    Cartesian    0.12
     83 x        -13.523362    -13.566432    -0.043071    Cartesian    0.32
     83 y          0.000000      0.000000     0.000000    Cartesian    0.00
     83 z          0.000000      0.000000     0.000000    Cartesian    0.00
     84 x          2.253894      2.253894     0.000000    Cartesian    0.00
     84 y         15.777255     15.679982    -0.097273    Cartesian   -0.62
     84 z          0.000000      0.000000     0.000000    Cartesian    0.00
     85 x          9.015574      9.028138     0.012563    Cartesian    0.14
     85 y          4.507787      4.496955    -0.010832    Cartesian   -0.24
     85 z         13.523362     13.552386     0.029024    Cartesian    0.21
     86 x          6.761681      6.844422     0.082742    Cartesian    1.22
     86 y          6.761681      6.775697     0.014016    Cartesian    0.21
     86 z         13.523362     13.516990    -0.006372    Cartesian   -0.05
     87 x         15.777255     15.842135     0.064880    Cartesian    0.41
     87 y          6.761681      6.762494     0.000813    Cartesian    0.01
     87 z          4.507787      4.514597     0.006809    Cartesian    0.15
     88 x          2.253894      2.253894     0.000000    Cartesian    0.00
     88 y         -2.253894     -2.264349    -0.010455    Cartesian    0.46
     88 z         15.777255     15.763931    -0.013324    Cartesian   -0.08
     89 x          2.253894      2.253894     0.000000    Cartesian    0.00
     89 y         11.269468     11.273975     0.004507    Cartesian    0.04
     89 z         11.269468     11.273975     0.004507    Cartesian    0.04
     90 x         11.269468     11.274629     0.005161    Cartesian    0.05
     90 y          6.761681      6.761066    -0.000615    Cartesian   -0.01
     90 z         11.269468     11.257621    -0.011847    Cartesian   -0.11
     91 x          2.253894      2.253894     0.000000    Cartesian    0.00
     91 y          0.000000      0.000000     0.000000    Cartesian    0.00
     91 z          0.000000      0.000000     0.000000    Cartesian    0.00
     92 x          4.507787      5.358591     0.850804    Cartesian   18.87
     92 y          0.000000      0.000000     0.000000    Cartesian    0.00
     92 z          0.000000      0.000000     0.000000    Cartesian    0.00
     93 x          2.253894      2.253894     0.000000    Cartesian    0.00
     93 y         -2.253894     -2.340317    -0.086423    Cartesian    3.83
     93 z         -2.253894     -2.340317    -0.086423    Cartesian    3.83
     94 x          4.507787      4.479807    -0.027980    Cartesian   -0.62
     94 y          0.000000      0.000000     0.000000    Cartesian    0.00
     94 z          4.507787      4.542046     0.034259    Cartesian    0.76
     95 x         -2.253894     -2.253861     0.000032    Cartesian   -0.00
     95 y         -2.253894     -2.288228    -0.034334    Cartesian    1.52
     95 z         -2.253894     -2.288228    -0.034334    Cartesian    1.52
     96 x          4.507787      4.512186     0.004399    Cartesian    0.10
     96 y          4.507787      4.590631     0.082843    Cartesian    1.84
     96 z          4.507787      4.590631     0.082843    Cartesian    1.84
     97 x          9.015574      9.147089     0.131515    Cartesian    1.46
     97 y          0.000000      0.000000     0.000000    Cartesian    0.00
     97 z          0.000000      0.000000     0.000000    Cartesian    0.00
     98 x          2.253894      2.253894     0.000000    Cartesian    0.00
     98 y         -2.253894     -2.262728    -0.008834    Cartesian    0.39
     98 z          6.761681      6.820168     0.058487    Cartesian    0.86
     99 x          9.015574      9.055746     0.040172    Cartesian    0.45
     99 y          0.000000      0.000000     0.000000    Cartesian    0.00
     99 z          4.507787      4.460580    -0.047207    Cartesian   -1.05
    100 x         -2.253894     -2.256412    -0.002518    Cartesian    0.11
    100 y         -2.253894     -2.244852     0.009042    Cartesian   -0.40
    100 z          6.761681      6.756390    -0.005291    Cartesian   -0.08
    101 x          4.507787      4.511147     0.003360    Cartesian    0.07
    101 y          0.000000      0.000000     0.000000    Cartesian    0.00
    101 z          9.015574      9.019440     0.003865    Cartesian    0.04
    102 x          9.015574      9.024717     0.009142    Cartesian    0.10
    102 y          4.507787      4.565445     0.057657    Cartesian    1.28
    102 z          4.507787      4.565445     0.057657    Cartesian    1.28
    103 x         11.269468     11.258197    -0.011272    Cartesian   -0.10
    103 y         -2.253894     -2.259775    -0.005881    Cartesian    0.26
    103 z         -2.253894     -2.259775    -0.005881    Cartesian    0.26
    104 x          2.253894      2.253894     0.000000    Cartesian    0.00
    104 y          6.761681      6.777910     0.016230    Cartesian    0.24
    104 z          6.761681      6.777910     0.016230    Cartesian    0.24
    105 x          4.507787      4.472543    -0.035244    Cartesian   -0.78
    105 y          4.507787      4.539843     0.032056    Cartesian    0.71
    105 z          9.015574      9.038180     0.022605    Cartesian    0.25
    106 x         -2.253894     -2.260960    -0.007066    Cartesian    0.31
    106 y          6.761681      6.769418     0.007738    Cartesian    0.11
    106 z          6.761681      6.769418     0.007738    Cartesian    0.11
    107 x         13.523362     13.648976     0.125615    Cartesian    0.93
    107 y          0.000000      0.000000     0.000000    Cartesian    0.00
    107 z          0.000000      0.000000     0.000000    Cartesian    0.00
    108 x          9.015574      9.036506     0.020931    Cartesian    0.23
    108 y          0.000000      0.000000     0.000000    Cartesian    0.00
    108 z          9.015574      9.082637     0.067063    Cartesian    0.74
    109 x          2.253894      2.253894     0.000000    Cartesian    0.00
    109 y         -2.253894     -2.249985     0.003909    Cartesian   -0.17
    109 z         11.269468     11.261752    -0.007716    Cartesian   -0.07
    110 x         11.269468     11.258077    -0.011391    Cartesian   -0.10
    110 y         -2.253894     -2.249910     0.003984    Cartesian   -0.18
    110 z          6.761681      6.756053    -0.005628    Cartesian   -0.08
    111 x         13.523362     13.538277     0.014916    Cartesian    0.11
    111 y          0.000000      0.000000     0.000000    Cartesian    0.00
    111 z          4.507787      4.494175    -0.013612    Cartesian   -0.30
    112 x          9.015574      9.022081     0.006506    Cartesian    0.07
    112 y          4.507787      4.534266     0.026479    Cartesian    0.59
    112 z          9.015574      9.036494     0.020920    Cartesian    0.23
    113 x          6.761681      6.772200     0.010519    Cartesian    0.16
    113 y         -2.253894     -2.244912     0.008981    Cartesian   -0.40
    113 z         11.269468     11.260225    -0.009243    Cartesian   -0.08
    114 x         13.523362     13.559566     0.036204    Cartesian    0.27
    114 y          4.507787      4.526475     0.018688    Cartesian    0.41
    114 z          4.507787      4.526475     0.018688    Cartesian    0.41
    115 x          4.507787      4.506313    -0.001474    Cartesian   -0.03
    115 y          9.015574      9.041360     0.025786    Cartesian    0.29
    115 z          9.015574      9.041360     0.025786    Cartesian    0.29
    116 x          2.253894      2.253894     0.000000    Cartesian    0.00
    116 y          6.761681      6.746463    -0.015217    Cartesian   -0.23
    116 z         11.269468     11.277263     0.007795    Cartesian    0.07
    117 x         11.269468     11.244168    -0.025300    Cartesian   -0.22
    117 y          6.761681      6.759989    -0.001692    Cartesian   -0.03
    117 z          6.761681      6.759989    -0.001692    Cartesian   -0.03
    118 x          4.507787      4.556423     0.048635    Cartesian    1.08
    118 y          0.000000      0.000000     0.000000    Cartesian    0.00
    118 z         13.523362     13.547805     0.024444    Cartesian    0.18
    119 x          6.761681      6.766683     0.005002    Cartesian    0.07
    119 y         11.269468     11.263875    -0.005593    Cartesian   -0.05
    119 z          6.761681      6.749515    -0.012166    Cartesian   -0.18
    120 x         15.777255     15.766940    -0.010315    Cartesian   -0.07
    120 y         -2.253894     -2.243482     0.010412    Cartesian   -0.46
    120 z         -2.253894     -2.243482     0.010412    Cartesian   -0.46
    121 x          9.015574      9.027358     0.011784    Cartesian    0.13
    121 y          9.015574      9.068528     0.052953    Cartesian    0.59
    121 z          9.015574      9.068528     0.052953    Cartesian    0.59
    122 x         13.523362     13.541912     0.018550    Cartesian    0.14
    122 y          0.000000      0.000000     0.000000    Cartesian    0.00
    122 z          9.015574      9.064884     0.049310    Cartesian    0.55
    123 x          4.507787      4.487156    -0.020631    Cartesian   -0.46
    123 y          4.507787      4.497953    -0.009834    Cartesian   -0.22
    123 z         13.523362     13.555655     0.032294    Cartesian    0.24
    124 x         11.269468     11.253295    -0.016173    Cartesian   -0.14
    124 y         -2.253894     -2.240855     0.013038    Cartesian   -0.58
    124 z         11.269468     11.269693     0.000225    Cartesian    0.00
    125 x         13.523362     13.570275     0.046913    Cartesian    0.35
    125 y          4.507787      4.530613     0.022826    Cartesian    0.51
    125 z          9.015574      9.010723    -0.004852    Cartesian   -0.05
    126 x          9.015574      9.028276     0.012702    Cartesian    0.14
    126 y          0.000000      0.000000     0.000000    Cartesian    0.00
    126 z         13.523362     13.562517     0.039156    Cartesian    0.29
    127 x         15.777255     15.757102    -0.020153    Cartesian   -0.13
    127 y         -2.253894     -2.272138    -0.018244    Cartesian    0.81
    127 z          6.761681      6.770075     0.008394    Cartesian    0.12
    128 x        -13.523362    -13.568048    -0.044686    Cartesian    0.33
    128 y          0.000000      0.000000     0.000000    Cartesian    0.00
    128 z          0.000000      0.000000     0.000000    Cartesian    0.00
    129 x          9.015574      9.028598     0.013024    Cartesian    0.14
    129 y          4.507787      4.497062    -0.010725    Cartesian   -0.24
    129 z         13.523362     13.552349     0.028987    Cartesian    0.21
    130 x          2.253894      2.253894     0.000000    Cartesian    0.00
    130 y         -2.253894     -2.264407    -0.010514    Cartesian    0.47
    130 z         15.777255     15.763926    -0.013329    Cartesian   -0.08
    131 x          2.253894      2.253894     0.000000    Cartesian    0.00
    131 y         11.269468     11.273999     0.004531    Cartesian    0.04
    131 z         11.269468     11.273999     0.004531    Cartesian    0.04
    132 x         11.269468     11.274654     0.005186    Cartesian    0.05
    132 y          6.761681      6.761088    -0.000593    Cartesian   -0.01
    132 z         11.269468     11.257605    -0.011863    Cartesian   -0.11
--------------------------------------------------------------------------------


  Time to end of optimisation  =      118.9879 seconds


  Peak dynamic memory used =     295.44 MB 


  Timing analysis for GULP :

--------------------------------------------------------------------------------
  Task / Subroutine                                          Time (Seconds)
--------------------------------------------------------------------------------
  Calculation of reciprocal space energy and derivatives          0.0004
  Calculation of reciprocal space energy using symmetry           0.0005
  Calculation of real space energy and derivatives                0.0021
  Calculation of real space energy using symmetry                 0.0049
  Calculation for region 1 energy and derivatives (2-b)          80.5727
  Calculation for region 2a energy                               35.5066
  Calculation for region 2b energy                                0.0002
  Calculation and manipulation of Hessian matrix                  2.3618
  Calculation of matrix inversion                                 0.1654
  Symmetry generation of equivalent positions                     0.0026
--------------------------------------------------------------------------------
  Total CPU time                                                118.9880
--------------------------------------------------------------------------------


  Dump file written as Na3OCl.grs


  Job Finished at 18:08.44 30th November   2020                               

