********************************************************************************
*                       GENERAL UTILITY LATTICE PROGRAM                        *
*                                 Julian Gale                                  *
*                       Curtin Institute for Computation                       *
*                    School of Molecular and Life Sciences                     *
*                    Curtin University, Western Australia                      *
********************************************************************************
* Version = 5.2.0 * Last modified =  10th September 2020                       *
********************************************************************************
*  optimise     - perform optimisation run                                     *
*  conp         - constant pressure calculation                                *
*  property     - calculate properties for final geometry                      *
*  defect       - perform defect calculation after bulk run                    *
*  compare      - compare initial and final structures                         *
********************************************************************************

  Job Started  at 00:11.09 26th August     2021                               

  Number of CPUs =     1


  Total number of configurations input =      1

********************************************************************************
*  Input for Configuration =   1                                               *
********************************************************************************

  Formula = Ga2Cl6                                                      

  Number of irreducible atoms/shells =      14


  Total number atoms/shells =      14

  Dimensionality = 3               :  Bulk   



  Cartesian lattice vectors (Angstroms) :

        7.286000    0.000000    0.000000
        3.439979    6.422799    0.000000
        3.788756    2.268736    5.995088

  Cell parameters (Angstroms/Degrees):

  a =       7.2860    alpha =  59.4140
  b =       7.2860    beta  =  59.4140
  c =       7.4460    gamma =  61.8270

  Initial cell volume =         280.549192 Angs**3

  Temperature of configuration =   0.00     K 

  Pressure of configuration =         0.000 GPa 

  Fractional coordinates of asymmetric unit :

--------------------------------------------------------------------------------
   No.  Atomic       x           y          z         Charge      Occupancy
        Label      (Frac)      (Frac)     (Frac)        (e)         (Frac)  
--------------------------------------------------------------------------------
      1 Ga    c    0.344749    0.344749    0.084305     3.00000    1.000000    
      2 Ga    c    0.655251 *  0.655251 *  0.915695 *   3.00000    1.000000    
      3 Cl    c    0.278747 *  0.721253 *  0.000000 *   1.48500    1.000000    
      4 Cl    c    0.721253 *  0.278747 *  0.000000 *   1.48500    1.000000    
      5 Cl    c    0.689436 *  0.689436 *  0.164912 *   1.48500    1.000000    
      6 Cl    c    0.310564 *  0.310564 *  0.835088 *   1.48500    1.000000    
      7 Cl    c    0.813092 *  0.813092 *  0.569365 *   1.48500    1.000000    
      8 Cl    c    0.186908 *  0.186908 *  0.430635 *   1.48500    1.000000    
      9 Cl    s    0.278747 *  0.721253 *  0.000000 *  -2.48500    1.000000    
     10 Cl    s    0.721253 *  0.278747 *  0.000000 *  -2.48500    1.000000    
     11 Cl    s    0.689436 *  0.689436 *  0.164912 *  -2.48500    1.000000    
     12 Cl    s    0.310564 *  0.310564 *  0.835088 *  -2.48500    1.000000    
     13 Cl    s    0.813092 *  0.813092 *  0.569365 *  -2.48500    1.000000    
     14 Cl    s    0.186908 *  0.186908 *  0.430635 *  -2.48500    1.000000    
--------------------------------------------------------------------------------



********************************************************************************
*  General input information                                                   *
********************************************************************************

  Species output for all configurations : 

--------------------------------------------------------------------------------
  Species    Type    Atomic    Atomic    Charge       Radii (Angs)     Library
                     Number     Mass       (e)     Cova   Ionic  VDW   Symbol
--------------------------------------------------------------------------------
    Ga       Core       31      69.72   3.000000   1.220  0.000  1.820          
    Cl       Core       17      35.45   1.485000   0.990  0.000  1.650          
    Cl       Shell      17       0.00  -2.485000   0.990  0.000  1.650          
--------------------------------------------------------------------------------


  Lattice summation method               =    Ewald          (3-D)
                                         =    Parry          (2-D)
                                         =    Saunders et al (1-D)
  Accuracy factor for lattice sums       =   12.000


  Analytic derivatives to be used

  Time limit = Infinity

  Maximum range for interatomic potentials =    100000.000000 Angstroms

  General interatomic potentials :

--------------------------------------------------------------------------------
Atom  Types   Potential      Parameter       Value         Units   Cutoffs(Ang)
  1     2                                                            Min /  Max 
--------------------------------------------------------------------------------
Cl   c Cl   s Spring (c-s)  Spring k 2       29.380000    eV*Ang^-2 0.000  0.800
                            Spring k 4       0.0000000    eV*Ang^-4 
--------------------------------------------------------------------------------
Ga   c Cl   s Buckingham    Buckingham A     924.20000    eV        0.000 12.000
                            Buckingham rho  0.34280000    Ang       
                            Buckingham C     0.0000000    eV*Ang^6  
--------------------------------------------------------------------------------
Cl   s Cl   s Buckingham    Buckingham A     1227.2000    eV        0.000 12.000
                            Buckingham rho  0.32100000    Ang       
                            Buckingham C     14.530000    eV*Ang^6  
--------------------------------------------------------------------------------

********************************************************************************
*  Output for configuration   1                                                *
********************************************************************************


  Components of energy : 

--------------------------------------------------------------------------------
  Interatomic potentials     =          11.57294692 eV    
  Monopole - monopole (real) =         -36.64258428 eV    
  Monopole - monopole (recip)=         -62.97523081 eV    
  Monopole - monopole (total)=         -99.61781509 eV    
--------------------------------------------------------------------------------
  Total lattice energy       =         -88.04486817 eV    
--------------------------------------------------------------------------------
  Total lattice energy       =           -8494.9839 kJ/(mole unit cells)
--------------------------------------------------------------------------------


  Number of variables =       45

  Maximum number of calculations  =          1000
  Maximum Hessian update interval =            10
  Maximum step size               =   1.000000000
  Maximum parameter tolerance     =   0.000010000
  Maximum function  tolerance     =   0.000010000
  Maximum gradient  tolerance     =   0.001000000
  Maximum gradient  component     =   0.010000000

  Symmetry not applied to optimisation

  Cell parameters to be optimised using strains

  Newton-Raphson optimiser to be used

  BFGS hessian update to be used

  Lower half triangular hessian to be used

  Start of bulk optimisation :

  Cycle:      0 Energy:       -88.044868  Gnorm:      6.970336  CPU:    0.027
  ** Hessian calculated **
  Cycle:      1 Energy:       -99.018902  Gnorm:      2.932233  CPU:    0.064
  ** Hessian calculated **
  Cycle:      2 Energy:      -101.553195  Gnorm:      1.575208  CPU:    0.112
  ** Hessian calculated **
  Cycle:      3 Energy:      -102.593695  Gnorm:      0.847724  CPU:    0.152
  ** Hessian calculated **
  Cycle:      4 Energy:      -102.796947  Gnorm:      0.550468  CPU:    0.196
  Cycle:      5 Energy:      -102.991142  Gnorm:      0.348946  CPU:    0.237
  Cycle:      6 Energy:      -103.036089  Gnorm:      0.200745  CPU:    0.268
  Cycle:      7 Energy:      -103.070803  Gnorm:      0.253403  CPU:    0.310
  Cycle:      8 Energy:      -103.096690  Gnorm:      0.159915  CPU:    0.351
  Cycle:      9 Energy:      -103.112138  Gnorm:      0.163465  CPU:    0.382
  Cycle:     10 Energy:      -103.128172  Gnorm:      0.075904  CPU:    0.422
  Cycle:     11 Energy:      -103.143637  Gnorm:      0.131806  CPU:    0.455
  Cycle:     12 Energy:      -103.152770  Gnorm:      0.104560  CPU:    0.487
  Cycle:     13 Energy:      -103.164973  Gnorm:      0.089635  CPU:    0.527
  ** Hessian calculated **
  Cycle:     14 Energy:      -103.168549  Gnorm:      0.070814  CPU:    0.575
  Cycle:     15 Energy:      -103.172814  Gnorm:      0.070925  CPU:    0.615
  Cycle:     16 Energy:      -103.176066  Gnorm:      0.066888  CPU:    0.657
  Cycle:     17 Energy:      -103.178827  Gnorm:      0.065146  CPU:    0.697
  Cycle:     18 Energy:      -103.181053  Gnorm:      0.070950  CPU:    0.729
  Cycle:     19 Energy:      -103.185213  Gnorm:      0.053017  CPU:    0.771
  Cycle:     20 Energy:      -103.188010  Gnorm:      0.077382  CPU:    0.803
  Cycle:     21 Energy:      -103.191847  Gnorm:      0.062470  CPU:    0.846
  Cycle:     22 Energy:      -103.194804  Gnorm:      0.069091  CPU:    0.878
  Cycle:     23 Energy:      -103.197723  Gnorm:      0.058019  CPU:    0.920
  ** Hessian calculated **
  Cycle:     24 Energy:      -103.199316  Gnorm:      0.043208  CPU:    0.967
  Cycle:     25 Energy:      -103.200201  Gnorm:      0.036046  CPU:    1.009
  Cycle:     26 Energy:      -103.201382  Gnorm:      0.040165  CPU:    1.050
  Cycle:     27 Energy:      -103.202009  Gnorm:      0.028783  CPU:    1.085
  Cycle:     28 Energy:      -103.202835  Gnorm:      0.032024  CPU:    1.128
  Cycle:     29 Energy:      -103.203277  Gnorm:      0.030965  CPU:    1.160
  Cycle:     30 Energy:      -103.203940  Gnorm:      0.023680  CPU:    1.201
  Cycle:     31 Energy:      -103.204467  Gnorm:      0.029033  CPU:    1.241
  Cycle:     32 Energy:      -103.204952  Gnorm:      0.019989  CPU:    1.273
  Cycle:     33 Energy:      -103.205259  Gnorm:      0.026734  CPU:    1.305
  ** Hessian calculated **
  Cycle:     34 Energy:      -103.207326  Gnorm:      0.026553  CPU:    1.382
  Cycle:     35 Energy:      -103.210591  Gnorm:      0.026021  CPU:    1.439
  ** Hessian calculated **
  Cycle:     36 Energy:      -103.215243  Gnorm:      0.024434  CPU:    1.528
  Cycle:     37 Energy:      -103.220640  Gnorm:      0.022655  CPU:    1.582
  Cycle:     38 Energy:      -103.225208  Gnorm:      0.022784  CPU:    1.624
  Cycle:     39 Energy:      -103.226833  Gnorm:      0.027841  CPU:    1.659
  Cycle:     40 Energy:      -103.226891  Gnorm:      0.029072  CPU:    1.701
  Cycle:     41 Energy:      -103.226929  Gnorm:      0.027185  CPU:    1.743
  Cycle:     42 Energy:      -103.226957  Gnorm:      0.026712  CPU:    1.800
  ** Hessian calculated **
  Cycle:     43 Energy:      -103.229175  Gnorm:      0.004173  CPU:    1.858
  Cycle:     44 Energy:      -103.229323  Gnorm:      0.004368  CPU:    1.893
  ** Hessian calculated **
  Cycle:     45 Energy:      -103.229340  Gnorm:      0.003454  CPU:    1.942
  Cycle:     46 Energy:      -103.229343  Gnorm:      0.001271  CPU:    1.977
  Cycle:     47 Energy:      -103.229345  Gnorm:      0.001325  CPU:    2.010
  Cycle:     48 Energy:      -103.229345  Gnorm:      0.001062  CPU:    2.045
  Cycle:     49 Energy:      -103.229346  Gnorm:      0.001154  CPU:    2.079
  Cycle:     50 Energy:      -103.229347  Gnorm:      0.001660  CPU:    2.114
  Cycle:     51 Energy:      -103.229349  Gnorm:      0.001212  CPU:    2.147
  Cycle:     52 Energy:      -103.229351  Gnorm:      0.001670  CPU:    2.182
  Cycle:     53 Energy:      -103.229353  Gnorm:      0.001333  CPU:    2.217
  Cycle:     54 Energy:      -103.229355  Gnorm:      0.002279  CPU:    2.252
  ** Hessian calculated **
  Cycle:     55 Energy:      -103.229356  Gnorm:      0.000881  CPU:    2.302
  Cycle:     56 Energy:      -103.229357  Gnorm:      0.001023  CPU:    2.338
  Cycle:     57 Energy:      -103.229358  Gnorm:      0.000985  CPU:    2.374
  Cycle:     58 Energy:      -103.229359  Gnorm:      0.001145  CPU:    2.409
  Cycle:     59 Energy:      -103.229360  Gnorm:      0.000920  CPU:    2.444
  Cycle:     60 Energy:      -103.229360  Gnorm:      0.001034  CPU:    2.479
  Cycle:     61 Energy:      -103.229361  Gnorm:      0.000783  CPU:    2.514
  Cycle:     62 Energy:      -103.229362  Gnorm:      0.000936  CPU:    2.550
  Cycle:     63 Energy:      -103.229363  Gnorm:      0.001577  CPU:    2.584
  Cycle:     64 Energy:      -103.229364  Gnorm:      0.001081  CPU:    2.620
  ** Hessian calculated **
  Cycle:     65 Energy:      -103.229365  Gnorm:      0.001011  CPU:    2.669
  Cycle:     66 Energy:      -103.229366  Gnorm:      0.000773  CPU:    2.705
  Cycle:     67 Energy:      -103.229366  Gnorm:      0.000837  CPU:    2.740
  Cycle:     68 Energy:      -103.229367  Gnorm:      0.000911  CPU:    2.776
  Cycle:     69 Energy:      -103.229367  Gnorm:      0.000791  CPU:    2.814
  Cycle:     70 Energy:      -103.229368  Gnorm:      0.000907  CPU:    2.847
  Cycle:     71 Energy:      -103.229368  Gnorm:      0.000756  CPU:    2.883
  Cycle:     72 Energy:      -103.229369  Gnorm:      0.001024  CPU:    2.917
  Cycle:     73 Energy:      -103.229369  Gnorm:      0.000791  CPU:    2.950
  Cycle:     74 Energy:      -103.229370  Gnorm:      0.001324  CPU:    2.983
  ** Hessian calculated **
  Cycle:     75 Energy:      -103.229371  Gnorm:      0.000588  CPU:    3.031


  **** Optimisation achieved ****


  Final energy =    -103.22937106 eV
  Final Gnorm  =       0.00061091

  Components of energy : 

--------------------------------------------------------------------------------
  Interatomic potentials     =          38.27257558 eV    
  Monopole - monopole (real) =          53.11246600 eV    
  Monopole - monopole (recip)=        -194.61441264 eV    
  Monopole - monopole (total)=        -141.50194664 eV    
--------------------------------------------------------------------------------
  Total lattice energy       =        -103.22937106 eV    
--------------------------------------------------------------------------------
  Total lattice energy       =           -9960.0563 kJ/(mole unit cells)
--------------------------------------------------------------------------------

  Final fractional coordinates of atoms :

--------------------------------------------------------------------------------
   No.  Atomic        x           y          z          Radius
        Label       (Frac)      (Frac)     (Frac)       (Angs) 
--------------------------------------------------------------------------------
     1  Ga    c     0.344749    0.344749    0.084305    0.000000
     2  Ga    c     0.727725    0.613639    0.888480    0.000000
     3  Cl    c     0.311264    0.717832    0.982123    0.000000
     4  Cl    c     0.761280    0.240602    0.990424    0.000000
     5  Cl    c     0.771256    0.655241    0.141524    0.000000
     6  Cl    c     0.300987    0.302868    0.831593    0.000000
     7  Cl    c     0.867350    0.788276    0.527393    0.000000
     8  Cl    c     0.205245    0.170230    0.445455    0.000000
     9  Cl    s     0.348986    0.670350    0.985168    0.000000
    10  Cl    s     0.723551    0.288072    0.987424    0.000000
    11  Cl    s     0.769191    0.648072    0.100179    0.000000
    12  Cl    s     0.303095    0.310096    0.872881    0.000000
    13  Cl    s     0.844212    0.759336    0.586132    0.000000
    14  Cl    s     0.228360    0.199148    0.386715    0.000000
--------------------------------------------------------------------------------

  Final Cartesian lattice vectors (Angstroms) :

        6.738095   -0.007614   -0.063558
        3.180663    6.365006    0.076805
        3.473594    2.283909    5.769543


  Final cell parameters and derivatives :

--------------------------------------------------------------------------------
       a            6.738399 Angstrom     dE/de1(xx)    -0.000402 eV/strain
       b            7.115885 Angstrom     dE/de2(yy)    -0.000218 eV/strain
       c            7.111239 Angstrom     dE/de3(zz)     0.000006 eV/strain
       alpha       59.044625 Degrees      dE/de4(yz)     0.000257 eV/strain
       beta        61.286659 Degrees      dE/de5(xz)     0.001573 eV/strain
       gamma       63.522402 Degrees      dE/de6(xy)     0.000011 eV/strain
--------------------------------------------------------------------------------

  Primitive cell volume =           247.343535 Angs**3

  Density of cell =      2.364127 g/cm**3

  Non-primitive cell volume =           247.343535 Angs**3


  Final internal derivatives :

--------------------------------------------------------------------------------
   No.  Atomic          a             b             c           Radius
        Label          (eV)          (eV)          (eV)        (eV/Angs)
--------------------------------------------------------------------------------
      1 Ga    c       0.000000      0.000000      0.000000      0.000000
      2 Ga    c      -0.005897     -0.000492     -0.000943      0.000000
      3 Cl    c       0.007077     -0.001504     -0.001837      0.000000
      4 Cl    c      -0.002885      0.002154     -0.002275      0.000000
      5 Cl    c      -0.003155     -0.004695      0.005431      0.000000
      6 Cl    c      -0.001244     -0.000409     -0.002448      0.000000
      7 Cl    c       0.001812     -0.000149     -0.001503      0.000000
      8 Cl    c      -0.001673     -0.000811      0.006508      0.000000
      9 Cl    s       0.004771      0.005793      0.002774      0.000000
     10 Cl    s       0.004720      0.000344      0.005095      0.000000
     11 Cl    s       0.006685      0.002852      0.009194      0.000000
     12 Cl    s      -0.000532      0.005200      0.003605      0.000000
     13 Cl    s      -0.007895     -0.007104     -0.007220      0.000000
     14 Cl    s       0.002596      0.002286      0.007466      0.000000
--------------------------------------------------------------------------------
  Maximum abs         0.007895      0.007104      0.009194      0.000000
--------------------------------------------------------------------------------

  Comparison of initial and final structures : 

--------------------------------------------------------------------------------
  Parameter   Initial value   Final value   Difference    Units      Percent
--------------------------------------------------------------------------------
    Volume       280.549192    247.343535   -33.205658    Angs**3    -11.84
    a              7.286000      6.738399    -0.547601    Angstroms   -7.52
    b              7.286000      7.115885    -0.170115    Angstroms   -2.33
    c              7.446000      7.111239    -0.334761    Angstroms   -4.50
    alpha         59.414000     59.044625    -0.369375    Degrees     -0.62
    beta          59.414000     61.286659     1.872659    Degrees      3.15
    gamma         61.827000     63.522402     1.695402    Degrees      2.74
      1 x          0.344749      0.344749     0.000000    Fractional   0.00
      1 y          0.344749      0.344749     0.000000    Fractional   0.00
      1 z          0.084305      0.084305     0.000000    Fractional   0.00
      2 x          0.655251      0.727725     0.072474    Fractional  11.06
      2 y          0.655251      0.613639     0.041612    Fractional   6.35
      2 z          0.915695      0.888480     0.027215    Fractional   2.97
      3 x          0.278747      0.311264     0.032517    Fractional  11.67
      3 y          0.721253      0.717832     0.003421    Fractional   0.47
      3 z          0.000000      0.982123     0.982123    Fractional   0.00
      4 x          0.721253      0.761280     0.040027    Fractional   5.55
      4 y          0.278747      0.240602     0.038145    Fractional  13.68
      4 z          0.000000      0.990424     0.990424    Fractional   0.00
      5 x          0.689436      0.771256     0.081820    Fractional  11.87
      5 y          0.689436      0.655241     0.034195    Fractional   4.96
      5 z          0.164912      0.141524     0.023388    Fractional  14.18
      6 x          0.310564      0.300987     0.009577    Fractional   3.08
      6 y          0.310564      0.302868     0.007696    Fractional   2.48
      6 z          0.835088      0.831593     0.003495    Fractional   0.42
      7 x          0.813092      0.867350     0.054258    Fractional   6.67
      7 y          0.813092      0.788276     0.024816    Fractional   3.05
      7 z          0.569365      0.527393     0.041972    Fractional   7.37
      8 x          0.186908      0.205245     0.018337    Fractional   9.81
      8 y          0.186908      0.170230     0.016678    Fractional   8.92
      8 z          0.430635      0.445455     0.014820    Fractional   3.44
      9 x          0.278747      0.348986     0.070239    Fractional  25.20
      9 y          0.721253      0.670350     0.050903    Fractional   7.06
      9 z          0.000000      0.985168     0.985168    Fractional   0.00
     10 x          0.721253      0.723551     0.002298    Fractional   0.32
     10 y          0.278747      0.288072     0.009325    Fractional   3.35
     10 z          0.000000      0.987424     0.987424    Fractional   0.00
     11 x          0.689436      0.769191     0.079755    Fractional  11.57
     11 y          0.689436      0.648072     0.041364    Fractional   6.00
     11 z          0.164912      0.100179     0.064733    Fractional  39.25
     12 x          0.310564      0.303095     0.007469    Fractional   2.41
     12 y          0.310564      0.310096     0.000468    Fractional   0.15
     12 z          0.835088      0.872881     0.037793    Fractional   4.53
     13 x          0.813092      0.844212     0.031120    Fractional   3.83
     13 y          0.813092      0.759336     0.053756    Fractional   6.61
     13 z          0.569365      0.586132     0.016767    Fractional   2.94
     14 x          0.186908      0.228360     0.041452    Fractional  22.18
     14 y          0.186908      0.199148     0.012240    Fractional   6.55
     14 z          0.430635      0.386715     0.043920    Fractional  10.20
--------------------------------------------------------------------------------


  Born effective charge tensors : 

-------------------------------------------------------------------------------
  Atom             x           y             z
-------------------------------------------------------------------------------
    1 Ga    x       2.5431      0.0920     -0.2447
            y       0.0921      1.8846     -0.0888
            z      -0.2726     -0.1102      1.4258
-------------------------------------------------------------------------------
    2 Ga    x       2.5429      0.0918     -0.2432
            y       0.0919      1.8848     -0.0883
            z      -0.2715     -0.1097      1.4249
-------------------------------------------------------------------------------
    3 Cl    x      -1.1491     -0.0710      0.2807
            y      -0.0651     -0.8301      0.1114
            z       0.2779      0.1152     -0.3709
-------------------------------------------------------------------------------
    4 Cl    x      -1.1492     -0.0710      0.2810
            y      -0.0649     -0.8302      0.1110
            z       0.2780      0.1149     -0.3710
-------------------------------------------------------------------------------
    5 Cl    x      -0.8222     -0.0046     -0.0930
            y      -0.0082     -0.5730     -0.0521
            z      -0.0325     -0.0279     -0.4657
-------------------------------------------------------------------------------
    6 Cl    x      -0.8221     -0.0045     -0.0927
            y      -0.0081     -0.5730     -0.0519
            z      -0.0323     -0.0277     -0.4653
-------------------------------------------------------------------------------
    7 Cl    x      -0.5718     -0.0164      0.0558
            y      -0.0188     -0.4815      0.0292
            z       0.0264      0.0227     -0.5886
-------------------------------------------------------------------------------
    8 Cl    x      -0.5718     -0.0164      0.0560
            y      -0.0189     -0.4815      0.0294
            z       0.0266      0.0228     -0.5893
-------------------------------------------------------------------------------




  Elastic Constant Matrix: (Units=GPa)

-------------------------------------------------------------------------------
  Indices      1         2         3         4         5         6    
-------------------------------------------------------------------------------
       1      5.8091    1.5684    0.4664   -0.1413   -0.3132    0.4250
       2      1.5684    0.7616    0.6996   -0.1759    0.1225    0.3615
       3      0.4664    0.6996    1.2096    0.0019   -0.0792   -0.1647
       4     -0.1413   -0.1759    0.0019    0.7607   -0.0015    0.2158
       5     -0.3132    0.1225   -0.0792   -0.0015    0.8376   -0.2918
       6      0.4250    0.3615   -0.1647    0.2158   -0.2918    0.9789
-------------------------------------------------------------------------------


  Elastic Compliance Matrix: (Units=1/GPa)

-------------------------------------------------------------------------------
  Indices      1         2         3         4         5         6    
-------------------------------------------------------------------------------
       1    0.075451  0.593430 -0.454139  0.285221 -0.264797 -0.470146
       2    0.593430 -3.086188  1.917500 -1.147108  1.517935  1.910130
       3   -0.454139  1.917500 -0.288240  0.623771 -0.802515 -0.936234
       4    0.285221 -1.147108  0.623771  1.012418  0.444634  0.314129
       5   -0.264797  1.517935 -0.802515  0.444634  0.626379 -0.492023
       6   -0.470146  1.910130 -0.936234  0.314129 -0.492023  0.146766
-------------------------------------------------------------------------------

  Mechanical properties :

-------------------------------------------------------------------------------
  Convention :                    Reuss         Voigt         Hill
-------------------------------------------------------------------------------
  Bulk  Modulus (GPa)     =       1.22759       1.47213       1.34986
  Shear Modulus (GPa)     =      -0.93363       0.85185      -0.04089
-------------------------------------------------------------------------------
  Velocity S-wave (km/s)  =      -0.62842       0.60027      -0.13151
  Velocity P-wave (km/s)  =       0.08541       1.05030       0.74021
-------------------------------------------------------------------------------
  Compressibility (1/GPa) =    0.81460379
-------------------------------------------------------------------------------
  Stress axis :                     x             y             z
-------------------------------------------------------------------------------
  Youngs Moduli (GPa)     =      13.25364      -0.32402      -3.46933
-------------------------------------------------------------------------------
  Poissons Ratio (x)      =                     0.19229      -1.57556
  Poissons Ratio (y)      =      -7.86511                     6.65244
  Poissons Ratio (z)      =       6.01900       0.62132
-------------------------------------------------------------------------------


  Piezoelectric Strain Matrix: (Units=C/m**2)

-------------------------------------------------------------------------------
  Indices      1         2         3         4         5         6    
-------------------------------------------------------------------------------
       x     0.00566  -0.00146  -0.00074  -0.00019   0.00103  -0.00035
       y    -0.00027  -0.00004  -0.00016   0.00110  -0.00002  -0.00006
       z    -0.00357  -0.00018   0.00232  -0.00011  -0.00051  -0.00011
-------------------------------------------------------------------------------


  Piezoelectric Stress Matrix: (Units=10**-11 C/N)

-------------------------------------------------------------------------------
  Indices      1         2         3         4         5         6    
-------------------------------------------------------------------------------
       x    -0.02664   0.75616  -0.57774   0.29795  -0.23928  -0.53791
       y     0.03725  -0.17339   0.08413   0.09545   0.06366   0.05405
       z    -0.12781   0.20454   0.10431   0.02690  -0.15113  -0.06474
-------------------------------------------------------------------------------


  Static dielectric constant tensor : 

-------------------------------------------------------------------------------
              x         y         z
-------------------------------------------------------------------------------
       x     4.38119  -0.06690  -0.40269
       y    -0.06690   2.72773  -0.07380
       z    -0.40269  -0.07380   2.26924
--------------------------------------------------------------------------------

  High frequency dielectric constant tensor : 

-------------------------------------------------------------------------------
              x         y         z
-------------------------------------------------------------------------------
       x     2.10056   0.00639  -0.04091
       y     0.00639   1.96813  -0.01435
       z    -0.04091  -0.01435   1.88289
-------------------------------------------------------------------------------

  Static refractive indices : 

-------------------------------------------------------------------------------
    1 =    1.47712      2 =    1.65508      3 =    2.11115
-------------------------------------------------------------------------------

  High frequency refractive indices : 

-------------------------------------------------------------------------------
    1 =    1.36882      2 =    1.40334      3 =    1.45209
-------------------------------------------------------------------------------


  Time to end of optimisation =       3.0956 seconds

********************************************************************************
*  Defect calculation for configuration   1 :                                  *
********************************************************************************



!!!!!!!!!!!!!!!!!!!!!!!!!!!!!!!!!!!!!!!!!!!!!!!!!!!!!!!!!!!!!!!!!!!!!!!!!!!!!!!!
!! WARNING : Ambiguous vacancy specifier used
!!!!!!!!!!!!!!!!!!!!!!!!!!!!!!!!!!!!!!!!!!!!!!!!!!!!!!!!!!!!!!!!!!!!!!!!!!!!!!!!



!!!!!!!!!!!!!!!!!!!!!!!!!!!!!!!!!!!!!!!!!!!!!!!!!!!!!!!!!!!!!!!!!!!!!!!!!!!!!!!!
!! WARNING : Ambiguous vacancy specifier used
!!!!!!!!!!!!!!!!!!!!!!!!!!!!!!!!!!!!!!!!!!!!!!!!!!!!!!!!!!!!!!!!!!!!!!!!!!!!!!!!

  Total number of defects =      2

  Total charge on defect  =   1.00

  Defect centre is at   0.7213   0.2787   0.0000  Frac

  Region 1 radius =  18.0000      Number of ions =   1365

  Region 2 radius =  24.0000      Number of ions =   1907

  Region 2a mode = 4 : screened electrostatics due to region 1 
                       neglect correction to region 1 forces from 2a
                       region 2a displacements based on defects only

  Region 2a ions will only interact with defects in region 1

  Vacancies:

--------------------------------------------------------------------------------
    Specification type     Symbol/Number         x          y          z
--------------------------------------------------------------------------------
    Atom                    Cl    core
    Atom                    Cl    shel
--------------------------------------------------------------------------------


  Components of defect energy : 

--------------------------------------------------------------------------------
  Region 1 - region 1                   =     22.53669543 eV
  Region 1 - region 2a (unrelaxed)      =    -11.33590479 eV
  Region 1 - 2a (relaxed - correction)  =     -0.13309103 eV
  Region 1 (Total)                      =     11.06769961 eV
  Region 2a                             =      0.06654947 eV
  Region 2b                             =     -0.19695703 eV
--------------------------------------------------------------------------------
  Total defect energy                   =     10.93729205 eV
--------------------------------------------------------------------------------

  Largest displacement in region 2 =   0.0116 Angstroms


  Number of variables =     4095

  Maximum number of calculations  =        1000
  Maximum Hessian update interval =          10
  Maximum step size               =   1.0000000
  Maximum parameter tolerance     =   0.0000100
  Maximum function  tolerance     =   0.0000100
  Maximum gradient  tolerance     =   0.0010000

  Symmetry adapted optimisation

  Newton-Raphson optimiser to be used

  BFGS hessian update to be used

  Lower half triangular hessian to be used

  Start of defect optimisation :

  Cycle:      0 Defect Energy:  10.937292  Gnorm:     0.004625  CPU:   37.803
  ** Hessian calculated **
  Cycle:      1 Defect Energy:   8.454564  Gnorm:     0.001348  CPU:  150.776
  Cycle:      2 Defect Energy:   7.775836  Gnorm:     0.001373  CPU:  194.764
  Cycle:      3 Defect Energy:   7.312962  Gnorm:     0.000772  CPU:  241.166
  Cycle:      4 Defect Energy:   7.235888  Gnorm:     0.000495  CPU:  250.612
  Cycle:      5 Defect Energy:   7.178180  Gnorm:     0.000355  CPU:  264.411
  Cycle:      6 Defect Energy:   7.129468  Gnorm:     0.000261  CPU:  275.176
  Cycle:      7 Defect Energy:   7.093259  Gnorm:     0.000197  CPU:  283.499
  Cycle:      8 Defect Energy:   7.065843  Gnorm:     0.000174  CPU:  297.399
  Cycle:      9 Defect Energy:   7.042874  Gnorm:     0.000172  CPU:  306.882
  Cycle:     10 Defect Energy:   7.022195  Gnorm:     0.000179  CPU:  315.737
  ** Hessian calculated **
  Cycle:     11 Defect Energy:   7.017421  Gnorm:     0.000150  CPU:  421.647
  Cycle:     12 Defect Energy:   7.011055  Gnorm:     0.000143  CPU:  427.975
  Cycle:     13 Defect Energy:   7.001864  Gnorm:     0.000137  CPU:  435.092
  Cycle:     14 Defect Energy:   6.988885  Gnorm:     0.000134  CPU:  442.127
  Cycle:     15 Defect Energy:   6.970639  Gnorm:     0.000134  CPU:  449.935
  Cycle:     16 Defect Energy:   6.945754  Gnorm:     0.000137  CPU:  457.695
  Cycle:     17 Defect Energy:   6.913502  Gnorm:     0.000163  CPU:  465.471
  Cycle:     18 Defect Energy:   6.876781  Gnorm:     0.000189  CPU:  470.891
  Cycle:     19 Defect Energy:   6.860347  Gnorm:     0.000193  CPU:  476.314
  Cycle:     20 Defect Energy:   6.850981  Gnorm:     0.000190  CPU:  482.464
  ** Hessian calculated **
  Cycle:     21 Defect Energy:   6.845251  Gnorm:     0.000190  CPU:  566.088
  Cycle:     22 Defect Energy:   6.836653  Gnorm:     0.000188  CPU:  572.626
  Cycle:     23 Defect Energy:   6.822854  Gnorm:     0.000186  CPU:  580.368
  Cycle:     24 Defect Energy:   6.801016  Gnorm:     0.000182  CPU:  588.238
  Cycle:     25 Defect Energy:   6.774303  Gnorm:     0.000175  CPU:  596.180
  Cycle:     26 Defect Energy:   6.749567  Gnorm:     0.000171  CPU:  604.085
  Cycle:     27 Defect Energy:   6.742164  Gnorm:     0.000182  CPU:  611.740
  ** Hessian calculated **
  Cycle:     28 Defect Energy:   6.692408  Gnorm:     0.000161  CPU:  680.936
  Cycle:     29 Defect Energy:   6.655830  Gnorm:     0.000279  CPU:  688.197
  ** Hessian calculated **
  Cycle:     30 Defect Energy:   6.645750  Gnorm:     0.000165  CPU:  801.006
  Cycle:     31 Defect Energy:   6.639451  Gnorm:     0.000123  CPU:  808.334
  Cycle:     32 Defect Energy:   6.632660  Gnorm:     0.000087  CPU:  816.250
  Cycle:     33 Defect Energy:   6.627064  Gnorm:     0.000076  CPU:  824.153
  Cycle:     34 Defect Energy:   6.622510  Gnorm:     0.000070  CPU:  832.094
  Cycle:     35 Defect Energy:   6.618787  Gnorm:     0.000072  CPU:  839.867
  Cycle:     36 Defect Energy:   6.615705  Gnorm:     0.000071  CPU:  847.574
  Cycle:     37 Defect Energy:   6.612925  Gnorm:     0.000071  CPU:  855.250
  Cycle:     38 Defect Energy:   6.610141  Gnorm:     0.000071  CPU:  863.118
  Cycle:     39 Defect Energy:   6.607156  Gnorm:     0.000071  CPU:  870.966
  ** Hessian calculated **
  Cycle:     40 Defect Energy:   6.606379  Gnorm:     0.000065  CPU:  934.979
  Cycle:     41 Defect Energy:   6.605287  Gnorm:     0.000060  CPU:  941.983
  Cycle:     42 Defect Energy:   6.603780  Gnorm:     0.000055  CPU:  949.336
  Cycle:     43 Defect Energy:   6.601764  Gnorm:     0.000048  CPU:  956.681
  Cycle:     44 Defect Energy:   6.599207  Gnorm:     0.000042  CPU:  964.681
  Cycle:     45 Defect Energy:   6.596198  Gnorm:     0.000046  CPU:  972.629
  Cycle:     46 Defect Energy:   6.593804  Gnorm:     0.000049  CPU:  980.257
  Cycle:     47 Defect Energy:   6.591713  Gnorm:     0.000058  CPU:  987.451
  Cycle:     48 Defect Energy:   6.589563  Gnorm:     0.000066  CPU:  994.996
  Cycle:     49 Defect Energy:   6.586596  Gnorm:     0.000078  CPU: 1002.846
  ** Hessian calculated **
  Cycle:     50 Defect Energy:   6.585565  Gnorm:     0.000070  CPU: 1093.519
  Cycle:     51 Defect Energy:   6.584182  Gnorm:     0.000063  CPU: 1100.066
  Cycle:     52 Defect Energy:   6.582354  Gnorm:     0.000054  CPU: 1106.808
  Cycle:     53 Defect Energy:   6.580100  Gnorm:     0.000045  CPU: 1114.511
  Cycle:     54 Defect Energy:   6.577764  Gnorm:     0.000038  CPU: 1122.069
  Cycle:     55 Defect Energy:   6.576163  Gnorm:     0.000037  CPU: 1128.962
  Cycle:     56 Defect Energy:   6.574817  Gnorm:     0.000041  CPU: 1133.656
  Cycle:     57 Defect Energy:   6.573481  Gnorm:     0.000047  CPU: 1138.194
  Cycle:     58 Defect Energy:   6.571861  Gnorm:     0.000056  CPU: 1142.784
  Cycle:     59 Defect Energy:   6.569481  Gnorm:     0.000068  CPU: 1147.390
  ** Hessian calculated **
  Cycle:     60 Defect Energy:   6.568760  Gnorm:     0.000062  CPU: 1223.418
  Cycle:     61 Defect Energy:   6.567758  Gnorm:     0.000057  CPU: 1231.279
  Cycle:     62 Defect Energy:   6.566394  Gnorm:     0.000051  CPU: 1239.204
  Cycle:     63 Defect Energy:   6.564619  Gnorm:     0.000043  CPU: 1247.262
  Cycle:     64 Defect Energy:   6.562466  Gnorm:     0.000037  CPU: 1255.275
  Cycle:     65 Defect Energy:   6.560629  Gnorm:     0.000038  CPU: 1263.060
  Cycle:     66 Defect Energy:   6.559104  Gnorm:     0.000042  CPU: 1270.600
  Cycle:     67 Defect Energy:   6.557672  Gnorm:     0.000049  CPU: 1277.783
  Cycle:     68 Defect Energy:   6.556024  Gnorm:     0.000058  CPU: 1285.518
  Cycle:     69 Defect Energy:   6.553586  Gnorm:     0.000070  CPU: 1293.324
  ** Hessian calculated **
  Cycle:     70 Defect Energy:   6.552752  Gnorm:     0.000064  CPU: 1401.712
  Cycle:     71 Defect Energy:   6.551607  Gnorm:     0.000059  CPU: 1408.470
  Cycle:     72 Defect Energy:   6.550067  Gnorm:     0.000051  CPU: 1416.192
  Cycle:     73 Defect Energy:   6.548138  Gnorm:     0.000043  CPU: 1424.208
  Cycle:     74 Defect Energy:   6.545847  Gnorm:     0.000038  CPU: 1432.091
  Cycle:     75 Defect Energy:   6.544108  Gnorm:     0.000038  CPU: 1439.276
  Cycle:     76 Defect Energy:   6.542712  Gnorm:     0.000042  CPU: 1446.943
  Cycle:     77 Defect Energy:   6.541315  Gnorm:     0.000050  CPU: 1454.753
  Cycle:     78 Defect Energy:   6.539508  Gnorm:     0.000061  CPU: 1462.712
  Cycle:     79 Defect Energy:   6.536869  Gnorm:     0.000075  CPU: 1469.731
  ** Hessian calculated **
  Cycle:     80 Defect Energy:   6.536004  Gnorm:     0.000068  CPU: 1554.517
  Cycle:     81 Defect Energy:   6.534803  Gnorm:     0.000063  CPU: 1562.188
  Cycle:     82 Defect Energy:   6.533176  Gnorm:     0.000055  CPU: 1569.877
  Cycle:     83 Defect Energy:   6.531084  Gnorm:     0.000046  CPU: 1576.290
  Cycle:     84 Defect Energy:   6.528616  Gnorm:     0.000039  CPU: 1583.404
  Cycle:     85 Defect Energy:   6.526790  Gnorm:     0.000040  CPU: 1590.807
  Cycle:     86 Defect Energy:   6.525202  Gnorm:     0.000044  CPU: 1598.602
  Cycle:     87 Defect Energy:   6.523716  Gnorm:     0.000050  CPU: 1606.267
  Cycle:     88 Defect Energy:   6.522023  Gnorm:     0.000059  CPU: 1614.054
  Cycle:     89 Defect Energy:   6.519482  Gnorm:     0.000073  CPU: 1621.958
  ** Hessian calculated **
  Cycle:     90 Defect Energy:   6.518607  Gnorm:     0.000066  CPU: 1720.532
  Cycle:     91 Defect Energy:   6.517434  Gnorm:     0.000061  CPU: 1726.572
  Cycle:     92 Defect Energy:   6.515830  Gnorm:     0.000053  CPU: 1733.480
  Cycle:     93 Defect Energy:   6.513810  Gnorm:     0.000047  CPU: 1740.320
  Cycle:     94 Defect Energy:   6.511325  Gnorm:     0.000039  CPU: 1747.273
  Cycle:     95 Defect Energy:   6.509121  Gnorm:     0.000042  CPU: 1754.231
  Cycle:     96 Defect Energy:   6.507382  Gnorm:     0.000047  CPU: 1761.301
  Cycle:     97 Defect Energy:   6.505679  Gnorm:     0.000056  CPU: 1768.256
  Cycle:     98 Defect Energy:   6.503533  Gnorm:     0.000068  CPU: 1775.407
  Cycle:     99 Defect Energy:   6.500339  Gnorm:     0.000084  CPU: 1782.115
  ** Hessian calculated **
  Cycle:    100 Defect Energy:   6.499245  Gnorm:     0.000077  CPU: 1834.057
  Cycle:    101 Defect Energy:   6.497737  Gnorm:     0.000071  CPU: 1838.752
  Cycle:    102 Defect Energy:   6.495715  Gnorm:     0.000062  CPU: 1842.896
  Cycle:    103 Defect Energy:   6.493113  Gnorm:     0.000052  CPU: 1847.025
  Cycle:    104 Defect Energy:   6.490057  Gnorm:     0.000043  CPU: 1851.265
  Cycle:    105 Defect Energy:   6.487918  Gnorm:     0.000041  CPU: 1855.620
  Cycle:    106 Defect Energy:   6.486057  Gnorm:     0.000049  CPU: 1860.496
  Cycle:    107 Defect Energy:   6.484072  Gnorm:     0.000056  CPU: 1865.251
  Cycle:    108 Defect Energy:   6.481953  Gnorm:     0.000067  CPU: 1871.009
  Cycle:    109 Defect Energy:   6.478890  Gnorm:     0.000080  CPU: 1877.056
  ** Hessian calculated **
  Cycle:    110 Defect Energy:   6.477810  Gnorm:     0.000074  CPU: 1996.919
  Cycle:    111 Defect Energy:   6.476306  Gnorm:     0.000068  CPU: 2008.198
  Cycle:    112 Defect Energy:   6.474302  Gnorm:     0.000060  CPU: 2018.516
  Cycle:    113 Defect Energy:   6.471730  Gnorm:     0.000050  CPU: 2027.644
  Cycle:    114 Defect Energy:   6.468704  Gnorm:     0.000046  CPU: 2035.767
  Cycle:    115 Defect Energy:   6.466084  Gnorm:     0.000046  CPU: 2047.339
  Cycle:    116 Defect Energy:   6.463946  Gnorm:     0.000053  CPU: 2057.995
  Cycle:    117 Defect Energy:   6.461903  Gnorm:     0.000062  CPU: 2067.353
  Cycle:    118 Defect Energy:   6.459295  Gnorm:     0.000076  CPU: 2076.123
  Cycle:    119 Defect Energy:   6.455443  Gnorm:     0.000094  CPU: 2090.727
  ** Hessian calculated **
  Cycle:    120 Defect Energy:   6.454089  Gnorm:     0.000085  CPU: 2165.013
  Cycle:    121 Defect Energy:   6.452243  Gnorm:     0.000078  CPU: 2172.722
  Cycle:    122 Defect Energy:   6.449769  Gnorm:     0.000068  CPU: 2180.220
  Cycle:    123 Defect Energy:   6.446648  Gnorm:     0.000055  CPU: 2186.750
  Cycle:    124 Defect Energy:   6.443170  Gnorm:     0.000047  CPU: 2192.767
  Cycle:    125 Defect Energy:   6.440752  Gnorm:     0.000045  CPU: 2198.558
  Cycle:    126 Defect Energy:   6.438617  Gnorm:     0.000054  CPU: 2204.139
  Cycle:    127 Defect Energy:   6.436567  Gnorm:     0.000059  CPU: 2210.371
  Cycle:    128 Defect Energy:   6.434249  Gnorm:     0.000071  CPU: 2216.876
  Cycle:    129 Defect Energy:   6.430856  Gnorm:     0.000084  CPU: 2223.686
  ** Hessian calculated **
  Cycle:    130 Defect Energy:   6.429706  Gnorm:     0.000077  CPU: 2297.618
  Cycle:    131 Defect Energy:   6.428104  Gnorm:     0.000070  CPU: 2301.696
  Cycle:    132 Defect Energy:   6.425980  Gnorm:     0.000062  CPU: 2305.804
  Cycle:    133 Defect Energy:   6.423273  Gnorm:     0.000050  CPU: 2309.921
  Cycle:    134 Defect Energy:   6.420150  Gnorm:     0.000047  CPU: 2314.093
  Cycle:    135 Defect Energy:   6.417752  Gnorm:     0.000045  CPU: 2318.323
  Cycle:    136 Defect Energy:   6.415851  Gnorm:     0.000052  CPU: 2322.466
  Cycle:    137 Defect Energy:   6.414012  Gnorm:     0.000060  CPU: 2326.613
  Cycle:    138 Defect Energy:   6.411653  Gnorm:     0.000072  CPU: 2330.748
  Cycle:    139 Defect Energy:   6.408448  Gnorm:     0.000085  CPU: 2334.972
  ** Hessian calculated **
  Cycle:    140 Defect Energy:   6.404360  Gnorm:     0.000085  CPU: 2398.811
  Cycle:    141 Defect Energy:   6.398267  Gnorm:     0.000084  CPU: 2402.831
  Cycle:    142 Defect Energy:   6.389185  Gnorm:     0.000082  CPU: 2406.857
  Cycle:    143 Defect Energy:   6.375659  Gnorm:     0.000080  CPU: 2410.870
  Cycle:    144 Defect Energy:   6.355811  Gnorm:     0.000076  CPU: 2414.910
  Cycle:    145 Defect Energy:   6.329046  Gnorm:     0.000072  CPU: 2418.914
  Cycle:    146 Defect Energy:   6.299664  Gnorm:     0.000082  CPU: 2423.045
  Cycle:    147 Defect Energy:   6.310114  Gnorm:     0.000249  CPU: 2427.065
  ** Hessian calculated **
  Cycle:    148 Defect Energy:   6.301838  Gnorm:     0.000159  CPU: 2499.106
  Cycle:    149 Defect Energy:   6.296883  Gnorm:     0.000116  CPU: 2506.376
  Cycle:    150 Defect Energy:   6.293175  Gnorm:     0.000080  CPU: 2514.128
  Cycle:    151 Defect Energy:   6.290847  Gnorm:     0.000056  CPU: 2522.008
  Cycle:    152 Defect Energy:   6.289468  Gnorm:     0.000041  CPU: 2529.301
  Cycle:    153 Defect Energy:   6.288511  Gnorm:     0.000035  CPU: 2533.687
  Cycle:    154 Defect Energy:   6.287770  Gnorm:     0.000032  CPU: 2540.376
  Cycle:    155 Defect Energy:   6.287144  Gnorm:     0.000031  CPU: 2548.831
  Cycle:    156 Defect Energy:   6.286540  Gnorm:     0.000033  CPU: 2556.704
  Cycle:    157 Defect Energy:   6.285891  Gnorm:     0.000035  CPU: 2565.055
  ** Hessian calculated **
  Cycle:    158 Defect Energy:   6.285717  Gnorm:     0.000031  CPU: 2683.975
  Cycle:    159 Defect Energy:   6.285477  Gnorm:     0.000028  CPU: 2691.500
  Cycle:    160 Defect Energy:   6.285153  Gnorm:     0.000025  CPU: 2698.809
  Cycle:    161 Defect Energy:   6.284726  Gnorm:     0.000023  CPU: 2706.225
  Cycle:    162 Defect Energy:   6.284155  Gnorm:     0.000022  CPU: 2713.822
  Cycle:    163 Defect Energy:   6.283447  Gnorm:     0.000025  CPU: 2721.217
  Cycle:    164 Defect Energy:   6.282575  Gnorm:     0.000033  CPU: 2728.536
  Cycle:    165 Defect Energy:   6.281763  Gnorm:     0.000039  CPU: 2735.978
  Cycle:    166 Defect Energy:   6.281016  Gnorm:     0.000045  CPU: 2742.226
  Cycle:    167 Defect Energy:   6.280154  Gnorm:     0.000051  CPU: 2749.317
  ** Hessian calculated **
  Cycle:    168 Defect Energy:   6.279366  Gnorm:     0.000051  CPU: 2843.179
  Cycle:    169 Defect Energy:   6.278152  Gnorm:     0.000050  CPU: 2850.045
  Cycle:    170 Defect Energy:   6.276293  Gnorm:     0.000050  CPU: 2857.292
  Cycle:    171 Defect Energy:   6.273477  Gnorm:     0.000049  CPU: 2864.732
  Cycle:    172 Defect Energy:   6.269226  Gnorm:     0.000048  CPU: 2872.018
  Cycle:    173 Defect Energy:   6.262824  Gnorm:     0.000047  CPU: 2879.317
  Cycle:    174 Defect Energy:   6.252876  Gnorm:     0.000047  CPU: 2886.214
  Cycle:    175 Defect Energy:   6.239718  Gnorm:     0.000054  CPU: 2893.362
  Cycle:    176 Defect Energy:   6.222582  Gnorm:     0.000076  CPU: 2900.740
  Cycle:    177 Defect Energy:   6.205585  Gnorm:     0.000158  CPU: 2908.142
  ** Hessian calculated **
  Cycle:    178 Defect Energy:   6.202414  Gnorm:     0.000099  CPU: 2975.765
  Cycle:    179 Defect Energy:   6.200623  Gnorm:     0.000072  CPU: 2979.851
  Cycle:    180 Defect Energy:   6.199168  Gnorm:     0.000049  CPU: 2983.973
  Cycle:    181 Defect Energy:   6.198196  Gnorm:     0.000035  CPU: 2988.068
  Cycle:    182 Defect Energy:   6.197557  Gnorm:     0.000027  CPU: 2992.068
  Cycle:    183 Defect Energy:   6.197113  Gnorm:     0.000022  CPU: 2996.085
  Cycle:    184 Defect Energy:   6.196814  Gnorm:     0.000020  CPU: 3000.164
  Cycle:    185 Defect Energy:   6.196589  Gnorm:     0.000018  CPU: 3004.213
  Cycle:    186 Defect Energy:   6.196387  Gnorm:     0.000018  CPU: 3008.186
  Cycle:    187 Defect Energy:   6.196183  Gnorm:     0.000018  CPU: 3012.119
  ** Hessian calculated **
  Cycle:    188 Defect Energy:   6.196134  Gnorm:     0.000017  CPU: 3085.864
  Cycle:    189 Defect Energy:   6.196064  Gnorm:     0.000015  CPU: 3090.207
  Cycle:    190 Defect Energy:   6.195969  Gnorm:     0.000014  CPU: 3094.751
  Cycle:    191 Defect Energy:   6.195843  Gnorm:     0.000013  CPU: 3098.983
  Cycle:    192 Defect Energy:   6.195666  Gnorm:     0.000012  CPU: 3103.399
  Cycle:    193 Defect Energy:   6.195431  Gnorm:     0.000012  CPU: 3107.746
  Cycle:    194 Defect Energy:   6.195135  Gnorm:     0.000015  CPU: 3111.886
  Cycle:    195 Defect Energy:   6.194765  Gnorm:     0.000020  CPU: 3116.620
  Cycle:    196 Defect Energy:   6.194482  Gnorm:     0.000023  CPU: 3119.595
  Cycle:    197 Defect Energy:   6.194216  Gnorm:     0.000027  CPU: 3124.063
  ** Hessian calculated **
  Cycle:    198 Defect Energy:   6.194118  Gnorm:     0.000023  CPU: 3178.068
  Cycle:    199 Defect Energy:   6.193992  Gnorm:     0.000020  CPU: 3181.085
  Cycle:    200 Defect Energy:   6.193833  Gnorm:     0.000016  CPU: 3184.758
  Cycle:    201 Defect Energy:   6.193645  Gnorm:     0.000012  CPU: 3189.144
  Cycle:    202 Defect Energy:   6.193516  Gnorm:     0.000010  CPU: 3193.263
  Cycle:    203 Defect Energy:   6.193416  Gnorm:     0.000010  CPU: 3197.557
  Cycle:    204 Defect Energy:   6.193315  Gnorm:     0.000012  CPU: 3201.924
  Cycle:    205 Defect Energy:   6.193199  Gnorm:     0.000015  CPU: 3206.334
  Cycle:    206 Defect Energy:   6.193054  Gnorm:     0.000018  CPU: 3210.685
  Cycle:    207 Defect Energy:   6.192855  Gnorm:     0.000022  CPU: 3215.781
  ** Hessian calculated **
  Cycle:    208 Defect Energy:   6.192790  Gnorm:     0.000020  CPU: 3276.029
  Cycle:    209 Defect Energy:   6.192702  Gnorm:     0.000018  CPU: 3279.868
  Cycle:    210 Defect Energy:   6.192589  Gnorm:     0.000015  CPU: 3283.709
  Cycle:    211 Defect Energy:   6.192448  Gnorm:     0.000012  CPU: 3287.508
  Cycle:    212 Defect Energy:   6.192308  Gnorm:     0.000010  CPU: 3291.315
  Cycle:    213 Defect Energy:   6.192205  Gnorm:     0.000010  CPU: 3295.122
  Cycle:    214 Defect Energy:   6.192113  Gnorm:     0.000012  CPU: 3298.920
  Cycle:    215 Defect Energy:   6.192016  Gnorm:     0.000014  CPU: 3302.742
  Cycle:    216 Defect Energy:   6.191876  Gnorm:     0.000018  CPU: 3306.572
  Cycle:    217 Defect Energy:   6.191680  Gnorm:     0.000022  CPU: 3310.471
  ** Hessian calculated **
  Cycle:    218 Defect Energy:   6.191611  Gnorm:     0.000020  CPU: 3357.485
  Cycle:    219 Defect Energy:   6.191519  Gnorm:     0.000018  CPU: 3360.868
  Cycle:    220 Defect Energy:   6.191399  Gnorm:     0.000015  CPU: 3364.789
  Cycle:    221 Defect Energy:   6.191249  Gnorm:     0.000012  CPU: 3368.810
  Cycle:    222 Defect Energy:   6.191110  Gnorm:     0.000010  CPU: 3372.741
  Cycle:    223 Defect Energy:   6.191012  Gnorm:     0.000010  CPU: 3376.626
  Cycle:    224 Defect Energy:   6.190921  Gnorm:     0.000011  CPU: 3380.498
  Cycle:    225 Defect Energy:   6.190828  Gnorm:     0.000013  CPU: 3384.386
  Cycle:    226 Defect Energy:   6.190722  Gnorm:     0.000017  CPU: 3388.259
  Cycle:    227 Defect Energy:   6.190554  Gnorm:     0.000020  CPU: 3392.142
  ** Hessian calculated **
  Cycle:    228 Defect Energy:   6.190497  Gnorm:     0.000019  CPU: 3452.309
  Cycle:    229 Defect Energy:   6.190417  Gnorm:     0.000017  CPU: 3456.159
  Cycle:    230 Defect Energy:   6.190319  Gnorm:     0.000014  CPU: 3459.998
  Cycle:    231 Defect Energy:   6.190190  Gnorm:     0.000012  CPU: 3463.816
  Cycle:    232 Defect Energy:   6.190049  Gnorm:     0.000010  CPU: 3467.612
  Cycle:    233 Defect Energy:   6.189946  Gnorm:     0.000010  CPU: 3471.412
  Cycle:    234 Defect Energy:   6.189858  Gnorm:     0.000011  CPU: 3475.210
  Cycle:    235 Defect Energy:   6.189770  Gnorm:     0.000014  CPU: 3478.994
  Cycle:    236 Defect Energy:   6.189640  Gnorm:     0.000017  CPU: 3482.796
  Cycle:    237 Defect Energy:   6.189454  Gnorm:     0.000022  CPU: 3486.651
  ** Hessian calculated **
  Cycle:    238 Defect Energy:   6.189387  Gnorm:     0.000020  CPU: 3545.414
  Cycle:    239 Defect Energy:   6.189297  Gnorm:     0.000018  CPU: 3549.255
  Cycle:    240 Defect Energy:   6.189178  Gnorm:     0.000015  CPU: 3553.096
  Cycle:    241 Defect Energy:   6.189035  Gnorm:     0.000012  CPU: 3556.912
  Cycle:    242 Defect Energy:   6.188896  Gnorm:     0.000010  CPU: 3560.737
  Cycle:    243 Defect Energy:   6.188799  Gnorm:     0.000009  CPU: 3564.605
  Cycle:    244 Defect Energy:   6.188709  Gnorm:     0.000011  CPU: 3568.538
  Cycle:    245 Defect Energy:   6.188603  Gnorm:     0.000013  CPU: 3572.539
  Cycle:    246 Defect Energy:   6.188492  Gnorm:     0.000016  CPU: 3576.522
  Cycle:    247 Defect Energy:   6.188326  Gnorm:     0.000020  CPU: 3580.698
  ** Hessian calculated **
  Cycle:    248 Defect Energy:   6.188275  Gnorm:     0.000018  CPU: 3639.500
  Cycle:    249 Defect Energy:   6.188197  Gnorm:     0.000017  CPU: 3642.919
  Cycle:    250 Defect Energy:   6.188096  Gnorm:     0.000014  CPU: 3646.260
  Cycle:    251 Defect Energy:   6.187969  Gnorm:     0.000012  CPU: 3649.708
  Cycle:    252 Defect Energy:   6.187825  Gnorm:     0.000010  CPU: 3653.705
  Cycle:    253 Defect Energy:   6.187718  Gnorm:     0.000010  CPU: 3657.613
  Cycle:    254 Defect Energy:   6.187626  Gnorm:     0.000011  CPU: 3661.563
  Cycle:    255 Defect Energy:   6.187538  Gnorm:     0.000014  CPU: 3665.414
  Cycle:    256 Defect Energy:   6.187402  Gnorm:     0.000018  CPU: 3669.262
  Cycle:    257 Defect Energy:   6.187211  Gnorm:     0.000022  CPU: 3673.118
  ** Hessian calculated **
  Cycle:    258 Defect Energy:   6.187148  Gnorm:     0.000020  CPU: 3720.210
  Cycle:    259 Defect Energy:   6.187057  Gnorm:     0.000018  CPU: 3724.097
  Cycle:    260 Defect Energy:   6.186936  Gnorm:     0.000015  CPU: 3727.912
  Cycle:    261 Defect Energy:   6.186791  Gnorm:     0.000012  CPU: 3731.745
  Cycle:    262 Defect Energy:   6.186643  Gnorm:     0.000010  CPU: 3735.568
  Cycle:    263 Defect Energy:   6.186538  Gnorm:     0.000009  CPU: 3739.394
  Cycle:    264 Defect Energy:   6.186445  Gnorm:     0.000012  CPU: 3743.255
  Cycle:    265 Defect Energy:   6.186346  Gnorm:     0.000013  CPU: 3747.189
  Cycle:    266 Defect Energy:   6.186232  Gnorm:     0.000016  CPU: 3751.175
  Cycle:    267 Defect Energy:   6.186062  Gnorm:     0.000021  CPU: 3755.181
  ** Hessian calculated **
  Cycle:    268 Defect Energy:   6.186009  Gnorm:     0.000019  CPU: 3836.496
  Cycle:    269 Defect Energy:   6.185924  Gnorm:     0.000017  CPU: 3840.370
  Cycle:    270 Defect Energy:   6.185824  Gnorm:     0.000015  CPU: 3844.247
  Cycle:    271 Defect Energy:   6.185693  Gnorm:     0.000012  CPU: 3848.091
  Cycle:    272 Defect Energy:   6.185550  Gnorm:     0.000010  CPU: 3851.943
  Cycle:    273 Defect Energy:   6.185441  Gnorm:     0.000010  CPU: 3855.784
  Cycle:    274 Defect Energy:   6.185339  Gnorm:     0.000012  CPU: 3859.611
  Cycle:    275 Defect Energy:   6.185247  Gnorm:     0.000014  CPU: 3863.428
  Cycle:    276 Defect Energy:   6.185105  Gnorm:     0.000018  CPU: 3867.292
  Cycle:    277 Defect Energy:   6.184899  Gnorm:     0.000022  CPU: 3871.178
  ** Hessian calculated **
  Cycle:    278 Defect Energy:   6.184834  Gnorm:     0.000020  CPU: 3913.158
  Cycle:    279 Defect Energy:   6.184740  Gnorm:     0.000018  CPU: 3917.056
  Cycle:    280 Defect Energy:   6.184614  Gnorm:     0.000016  CPU: 3921.065
  Cycle:    281 Defect Energy:   6.184463  Gnorm:     0.000012  CPU: 3925.076
  Cycle:    282 Defect Energy:   6.184309  Gnorm:     0.000010  CPU: 3929.073
  Cycle:    283 Defect Energy:   6.184207  Gnorm:     0.000009  CPU: 3933.116
  Cycle:    284 Defect Energy:   6.184113  Gnorm:     0.000011  CPU: 3937.113
  Cycle:    285 Defect Energy:   6.184002  Gnorm:     0.000014  CPU: 3940.959
  Cycle:    286 Defect Energy:   6.183873  Gnorm:     0.000017  CPU: 3944.806
  Cycle:    287 Defect Energy:   6.183711  Gnorm:     0.000021  CPU: 3948.875
  ** Hessian calculated **
  Cycle:    288 Defect Energy:   6.183650  Gnorm:     0.000019  CPU: 4017.404
  Cycle:    289 Defect Energy:   6.183567  Gnorm:     0.000018  CPU: 4021.231
  Cycle:    290 Defect Energy:   6.183458  Gnorm:     0.000015  CPU: 4025.057
  Cycle:    291 Defect Energy:   6.183315  Gnorm:     0.000012  CPU: 4028.888
  Cycle:    292 Defect Energy:   6.183161  Gnorm:     0.000010  CPU: 4032.724
  Cycle:    293 Defect Energy:   6.183047  Gnorm:     0.000010  CPU: 4036.544
  Cycle:    294 Defect Energy:   6.182945  Gnorm:     0.000012  CPU: 4040.787
  Cycle:    295 Defect Energy:   6.182845  Gnorm:     0.000014  CPU: 4045.329
  Cycle:    296 Defect Energy:   6.182714  Gnorm:     0.000018  CPU: 4049.144
  Cycle:    297 Defect Energy:   6.182513  Gnorm:     0.000022  CPU: 4052.512
  ** Hessian calculated **
  Cycle:    298 Defect Energy:   6.182450  Gnorm:     0.000020  CPU: 4106.494
  Cycle:    299 Defect Energy:   6.182353  Gnorm:     0.000018  CPU: 4110.299
  Cycle:    300 Defect Energy:   6.182230  Gnorm:     0.000015  CPU: 4114.111
  Cycle:    301 Defect Energy:   6.182081  Gnorm:     0.000012  CPU: 4117.946
  Cycle:    302 Defect Energy:   6.181925  Gnorm:     0.000010  CPU: 4121.781
  Cycle:    303 Defect Energy:   6.181815  Gnorm:     0.000010  CPU: 4125.613
  Cycle:    304 Defect Energy:   6.181712  Gnorm:     0.000012  CPU: 4129.558
  Cycle:    305 Defect Energy:   6.181612  Gnorm:     0.000014  CPU: 4133.457
  Cycle:    306 Defect Energy:   6.181480  Gnorm:     0.000017  CPU: 4137.269
  Cycle:    307 Defect Energy:   6.181293  Gnorm:     0.000022  CPU: 4141.088
  ** Hessian calculated **
  Cycle:    308 Defect Energy:   6.181227  Gnorm:     0.000020  CPU: 4221.077
  Cycle:    309 Defect Energy:   6.181136  Gnorm:     0.000018  CPU: 4224.629
  Cycle:    310 Defect Energy:   6.181019  Gnorm:     0.000015  CPU: 4229.265
  Cycle:    311 Defect Energy:   6.180873  Gnorm:     0.000012  CPU: 4232.817
  Cycle:    312 Defect Energy:   6.180720  Gnorm:     0.000011  CPU: 4236.520
  Cycle:    313 Defect Energy:   6.180607  Gnorm:     0.000010  CPU: 4240.367
  Cycle:    314 Defect Energy:   6.180511  Gnorm:     0.000012  CPU: 4244.231
  Cycle:    315 Defect Energy:   6.180415  Gnorm:     0.000014  CPU: 4248.063
  Cycle:    316 Defect Energy:   6.180278  Gnorm:     0.000018  CPU: 4251.884
  Cycle:    317 Defect Energy:   6.180065  Gnorm:     0.000022  CPU: 4255.745
  ** Hessian calculated **
  Cycle:    318 Defect Energy:   6.180001  Gnorm:     0.000020  CPU: 4302.581
  Cycle:    319 Defect Energy:   6.179908  Gnorm:     0.000018  CPU: 4306.143
  Cycle:    320 Defect Energy:   6.179784  Gnorm:     0.000016  CPU: 4309.707
  Cycle:    321 Defect Energy:   6.179636  Gnorm:     0.000012  CPU: 4313.271
  Cycle:    322 Defect Energy:   6.179476  Gnorm:     0.000010  CPU: 4316.840
  Cycle:    323 Defect Energy:   6.179364  Gnorm:     0.000010  CPU: 4320.421
  Cycle:    324 Defect Energy:   6.179261  Gnorm:     0.000012  CPU: 4323.947
  Cycle:    325 Defect Energy:   6.179161  Gnorm:     0.000014  CPU: 4327.368
  Cycle:    326 Defect Energy:   6.179034  Gnorm:     0.000017  CPU: 4330.788
  Cycle:    327 Defect Energy:   6.178842  Gnorm:     0.000022  CPU: 4334.240
  ** Hessian calculated **
  Cycle:    328 Defect Energy:   6.178775  Gnorm:     0.000020  CPU: 4381.878
  Cycle:    329 Defect Energy:   6.178679  Gnorm:     0.000018  CPU: 4385.446
  Cycle:    330 Defect Energy:   6.178560  Gnorm:     0.000015  CPU: 4389.015
  Cycle:    331 Defect Energy:   6.178408  Gnorm:     0.000012  CPU: 4392.622
  Cycle:    332 Defect Energy:   6.178256  Gnorm:     0.000010  CPU: 4396.106
  Cycle:    333 Defect Energy:   6.178143  Gnorm:     0.000011  CPU: 4399.526
  Cycle:    334 Defect Energy:   6.178036  Gnorm:     0.000012  CPU: 4402.988
  Cycle:    335 Defect Energy:   6.177942  Gnorm:     0.000014  CPU: 4406.444
  Cycle:    336 Defect Energy:   6.177808  Gnorm:     0.000017  CPU: 4409.892
  Cycle:    337 Defect Energy:   6.177609  Gnorm:     0.000022  CPU: 4413.302
  ** Hessian calculated **
  Cycle:    338 Defect Energy:   6.177544  Gnorm:     0.000020  CPU: 4467.428
  Cycle:    339 Defect Energy:   6.177454  Gnorm:     0.000018  CPU: 4470.877
  Cycle:    340 Defect Energy:   6.177335  Gnorm:     0.000015  CPU: 4474.326
  Cycle:    341 Defect Energy:   6.177197  Gnorm:     0.000012  CPU: 4477.766
  Cycle:    342 Defect Energy:   6.177037  Gnorm:     0.000011  CPU: 4481.221
  Cycle:    343 Defect Energy:   6.176925  Gnorm:     0.000010  CPU: 4484.665
  Cycle:    344 Defect Energy:   6.176836  Gnorm:     0.000012  CPU: 4488.108
  Cycle:    345 Defect Energy:   6.176731  Gnorm:     0.000014  CPU: 4491.567
  Cycle:    346 Defect Energy:   6.176588  Gnorm:     0.000018  CPU: 4495.014
  Cycle:    347 Defect Energy:   6.176377  Gnorm:     0.000022  CPU: 4498.437
  ** Hessian calculated **
  Cycle:    348 Defect Energy:   6.176307  Gnorm:     0.000020  CPU: 4542.605
  Cycle:    349 Defect Energy:   6.176214  Gnorm:     0.000018  CPU: 4547.487
  Cycle:    350 Defect Energy:   6.176093  Gnorm:     0.000016  CPU: 4552.407
  Cycle:    351 Defect Energy:   6.175946  Gnorm:     0.000012  CPU: 4557.275
  Cycle:    352 Defect Energy:   6.175804  Gnorm:     0.000010  CPU: 4562.184
  Cycle:    353 Defect Energy:   6.175697  Gnorm:     0.000010  CPU: 4567.064
  Cycle:    354 Defect Energy:   6.175594  Gnorm:     0.000012  CPU: 4571.959
  Cycle:    355 Defect Energy:   6.175494  Gnorm:     0.000014  CPU: 4576.212
  Cycle:    356 Defect Energy:   6.175383  Gnorm:     0.000016  CPU: 4579.301
  Cycle:    357 Defect Energy:   6.175217  Gnorm:     0.000020  CPU: 4582.234
  ** Hessian calculated **
  Cycle:    358 Defect Energy:   6.175104  Gnorm:     0.000020  CPU: 4624.669
  Cycle:    359 Defect Energy:   6.174929  Gnorm:     0.000020  CPU: 4628.093
  Cycle:    360 Defect Energy:   6.174680  Gnorm:     0.000020  CPU: 4631.531
  Cycle:    361 Defect Energy:   6.174373  Gnorm:     0.000020  CPU: 4634.944
  Cycle:    362 Defect Energy:   6.174021  Gnorm:     0.000020  CPU: 4638.376
  Cycle:    363 Defect Energy:   6.173636  Gnorm:     0.000020  CPU: 4641.825
  Cycle:    364 Defect Energy:   6.173371  Gnorm:     0.000021  CPU: 4645.245
  ** Hessian calculated **
  Cycle:    365 Defect Energy:   6.173309  Gnorm:     0.000019  CPU: 4687.610
  Cycle:    366 Defect Energy:   6.173224  Gnorm:     0.000017  CPU: 4691.167
  Cycle:    367 Defect Energy:   6.173112  Gnorm:     0.000015  CPU: 4694.562
  Cycle:    368 Defect Energy:   6.172977  Gnorm:     0.000012  CPU: 4697.981
  Cycle:    369 Defect Energy:   6.172833  Gnorm:     0.000010  CPU: 4701.381
  Cycle:    370 Defect Energy:   6.172734  Gnorm:     0.000009  CPU: 4704.788
  Cycle:    371 Defect Energy:   6.172653  Gnorm:     0.000011  CPU: 4708.172
  Cycle:    372 Defect Energy:   6.172567  Gnorm:     0.000013  CPU: 4711.569
  Cycle:    373 Defect Energy:   6.172456  Gnorm:     0.000016  CPU: 4714.957
  Cycle:    374 Defect Energy:   6.172289  Gnorm:     0.000020  CPU: 4718.341
  ** Hessian calculated **
  Cycle:    375 Defect Energy:   6.171997  Gnorm:     0.000020  CPU: 4769.115
  Cycle:    376 Defect Energy:   6.171551  Gnorm:     0.000020  CPU: 4772.547
  Cycle:    377 Defect Energy:   6.170923  Gnorm:     0.000020  CPU: 4775.972
  Cycle:    378 Defect Energy:   6.169992  Gnorm:     0.000019  CPU: 4779.394
  Cycle:    379 Defect Energy:   6.168697  Gnorm:     0.000019  CPU: 4782.822
  Cycle:    380 Defect Energy:   6.166864  Gnorm:     0.000018  CPU: 4786.246
  Cycle:    381 Defect Energy:   6.164518  Gnorm:     0.000016  CPU: 4789.675
  Cycle:    382 Defect Energy:   6.161803  Gnorm:     0.000014  CPU: 4793.068
  Cycle:    383 Defect Energy:   6.159269  Gnorm:     0.000015  CPU: 4796.443
  Cycle:    384 Defect Energy:   6.158273  Gnorm:     0.000034  CPU: 4799.826
  ** Hessian calculated **
  Cycle:    385 Defect Energy:   6.156709  Gnorm:     0.000024  CPU: 4846.506
  Cycle:    386 Defect Energy:   6.155892  Gnorm:     0.000018  CPU: 4849.959
  Cycle:    387 Defect Energy:   6.155492  Gnorm:     0.000013  CPU: 4853.442
  ** Hessian calculated **
  Cycle:    388 Defect Energy:   6.155471  Gnorm:     0.000009  CPU: 4897.955
  Cycle:    389 Defect Energy:   6.155453  Gnorm:     0.000007  CPU: 4901.515
  Cycle:    390 Defect Energy:   6.155440  Gnorm:     0.000005  CPU: 4905.082


  **** Optimisation achieved ****


  Final defect energy  =        6.15543108
  Final defect Gnorm   =        0.00000325

  Components of defect energy : 

--------------------------------------------------------------------------------
  Region 1 - region 1                   =     15.89617674 eV
  Region 1 - region 2a (unrelaxed)      =     -9.48784598 eV
  Region 1 - 2a (relaxed - correction)  =     -0.11293241 eV
  Region 1 (Total)                      =      6.29539835 eV
  Region 2a                             =      0.05643515 eV
  Region 2b                             =     -0.19640243 eV
--------------------------------------------------------------------------------
  Total defect energy                   =      6.15543108 eV
--------------------------------------------------------------------------------

  Largest displacement in region 2 =   0.0116 Angstroms

  Final coordinates of region 1 :

--------------------------------------------------------------------------------
   No.  Atomic        x           y           z          Radius      Charge
        Label       (Angs)      (Angs)      (Angs)       (Angs)       (e) 
--------------------------------------------------------------------------------
     1  Cl    c     6.446232    0.737917   -0.153221    0.000000    1.485000
     2  Ga    c     7.219432    2.919100   -0.417044    0.000000    3.000000
     3  Ga    c     4.203593    1.134135    0.235944    0.000000    3.000000
     4  Cl    c     4.068725    2.646562    1.705674    0.000000    1.485000
     5  Cl    c     2.938677    0.910213   -1.470558    0.000000    1.485000
     6  Cl    c     7.947862    3.806119    1.401233    0.000000    1.485000
     7  Cl    c     9.192517    2.120796   -1.366598    0.000000    1.485000
     8  Cl    c     5.901580    3.858521   -1.777190    0.000000    1.485000
     9  Cl    c     6.996252   -0.166407    3.109592    0.000000    1.485000
    10  Cl    c     4.040624   -1.016761    1.241037    0.000000    1.485000
    11  Cl    c     6.825584   -0.106003   -3.336722    0.000000    1.485000
    12  Cl    c     8.063972   -2.324765   -0.069653    0.000000    1.485000
    13  Ga    c    10.493111    2.765947    0.468505    0.000000    3.000000
    14  Cl    c    10.371893    1.407946    2.073514    0.000000    1.485000
    15  Cl    c     4.285196    2.200768   -5.014078    0.000000    1.485000
    16  Ga    c     2.960914   -2.042685   -0.492576    0.000000    3.000000
    17  Cl    c     5.973157    3.633697    4.933885    0.000000    1.485000
    18  Cl    c     4.055527   -2.252051   -2.278347    0.000000    1.485000
    19  Cl    c     0.900990    4.788547    0.848845    0.000000    1.485000
    20  Ga    c     6.787753   -0.423440    5.202310    0.000000    3.000000
    21  Ga    c     7.037510    0.097165   -5.435040    0.000000    3.000000
    22  Cl    c     0.780568   -1.520841   -0.366392    0.000000    1.485000
    23  Cl    c     4.658159    0.464077    5.780599    0.000000    1.485000
    24  Cl    c     3.527213    5.842842    3.083732    0.000000    1.485000
    25  Ga    c     7.598876   -4.564392    0.425534    0.000000    3.000000
    26  Cl    c     3.313614    5.940878   -3.154157    0.000000    1.485000
    27  Cl    c    11.159695    4.778213    0.201556    0.000000    1.485000
    28  Cl    c     7.587356    2.251147   -6.012915    0.000000    1.485000
    29  Cl    c     5.628150    7.900288   -0.878025    0.000000    1.485000
    30  Ga    c    10.223373   -3.044224   -0.701970    0.000000    3.000000
    31  Ga    c    -0.460514    4.037467   -0.596375    0.000000    3.000000
    32  Cl    c     0.285161    0.133636    3.153118    0.000000    1.485000
    33  Cl    c    -0.868401    1.790688   -0.057460    0.000000    1.485000
    34  Cl    c     7.299238   -4.705508    2.513460    0.000000    1.485000
    35  Cl    c     6.155557   -5.216777   -0.990438    0.000000    1.485000
    36  Cl    c    -0.130007    4.166817   -2.680129    0.000000    1.485000
    37  Cl    c    11.492538   -2.181510    0.778651    0.000000    1.485000
    38  Cl    c    10.399813   -2.638392   -2.767992    0.000000    1.485000
    39  Cl    c     9.925797    6.019793   -3.254954    0.000000    1.485000
    40  Cl    c     0.077267   -0.157291   -3.286642    0.000000    1.485000
    41  Cl    c    12.446002    1.644785   -0.603052    0.000000    1.485000
    42  Cl    c     2.653679    3.686072    5.893278    0.000000    1.485000
    43  Cl    c     5.607518    5.468642   -5.890600    0.000000    1.485000
    44  Cl    c     9.042395    7.884498    0.060197    0.000000    1.485000
    45  Ga    c     2.986925    1.400234   -6.505723    0.000000    3.000000
    46  Cl    c    10.171273    5.873685    3.124360    0.000000    1.485000
    47  Cl    c     2.415771    7.737253    0.028101    0.000000    1.485000
    48  Cl    c     9.389086    3.676752    5.934059    0.000000    1.485000
    49  Cl    c     8.128203    0.414477    6.627097    0.000000    1.485000
    50  Ga    c     7.217549    4.553542    6.401742    0.000000    3.000000
    51  Ga    c     6.864509    8.815436    0.596732    0.000000    3.000000
    52  Cl    c     2.739935   -2.431347    4.748818    0.000000    1.485000
    53  Cl    c     6.179605   -2.572253    5.732882    0.000000    1.485000
    54  Ga    c     3.240135    5.797484    5.178763    0.000000    3.000000
    55  Cl    c     2.408584   -0.761965   -5.968283    0.000000    1.485000
    56  Cl    c     5.703480   -0.791635   -6.833124    0.000000    1.485000
    57  Cl    c     9.187397   -0.744151   -5.985379    0.000000    1.485000
    58  Cl    c     6.648200    8.470118    2.670633    0.000000    1.485000
    59  Cl    c    11.009124    2.263478   -5.019602    0.000000    1.485000
    60  Cl    c     2.809745   -4.089651    0.557260    0.000000    1.485000
    61  Ga    c     4.025315   -1.696713    6.282059    0.000000    3.000000
    62  Cl    c     9.455746   -2.521251    4.730915    0.000000    1.485000
    63  Ga    c     3.465177    6.315487   -5.230139    0.000000    3.000000
    64  Cl    c     9.734714   -5.267016   -0.217142    0.000000    1.485000
    65  Ga    c     9.769226    1.418728   -6.535639    0.000000    3.000000
    66  Cl    c     0.831551    2.244090   -5.946286    0.000000    1.485000
    67  Ga    c    13.643673    3.482151   -0.993060    0.000000    3.000000
    68  Ga    c     0.471311   -3.724365    0.686131    0.000000    3.000000
    69  Ga    c     0.258980    0.089896   -5.379909    0.000000    3.000000
    70  Ga    c     9.958776    5.791038    5.228907    0.000000    3.000000
    71  Cl    c     7.811113    6.677075    5.743262    0.000000    1.485000
    72  Ga    c    -0.012387   -0.184795    5.224177    0.000000    3.000000
    73  Cl    c    11.391354    0.411893    5.699054    0.000000    1.485000
    74  Cl    c     1.330525    0.573057    6.694668    0.000000    1.485000
    75  Cl    c     7.848354   -4.072017   -5.107253    0.000000    1.485000
    76  Ga    c    10.146011    6.398919   -5.324850    0.000000    3.000000
    77  Cl    c     8.864383    5.546859   -6.800875    0.000000    1.485000
    78  Cl    c     4.565608    6.722845    6.566932    0.000000    1.485000
    79  Cl    c    13.391027    4.342517   -2.899503    0.000000    1.485000
    80  Cl    c    -0.793689    3.684617    4.934026    0.000000    1.485000
    81  Cl    c     4.392871   -4.048307   -6.025594    0.000000    1.485000
    82  Cl    c     2.125453    5.498256   -6.670528    0.000000    1.485000
    83  Cl    c     0.039585   -3.562803    2.738169    0.000000    1.485000
    84  Cl    c     7.498873    8.418416   -4.863404    0.000000    1.485000
    85  Cl    c    12.655532    3.706140    4.861245    0.000000    1.485000
    86  Cl    c    -2.634260    4.682675   -0.039347    0.000000    1.485000
    87  Cl    c    13.536376   -0.057228   -3.311907    0.000000    1.485000
    88  Ga    c    10.770829   -1.733802    6.215245    0.000000    3.000000
    89  Ga    c     6.194328    7.637968   -6.359820    0.000000    3.000000
    90  Cl    c    -2.187543   -1.825976    0.712094    0.000000    1.485000
    91  Cl    c    13.725707   -0.153016    3.013033    0.000000    1.485000
    92  Ga    c     2.966528    9.907764   -0.522449    0.000000    3.000000
    93  Ga    c     0.497926    4.581910    6.371242    0.000000    3.000000
    94  Ga    c    -3.051084    2.454438    0.515738    0.000000    3.000000
    95  Cl    c     3.287109    1.691667   -8.574093    0.000000    1.485000
    96  Cl    c     6.897571    4.370939    8.479301    0.000000    1.485000
    97  Ga    c     0.259094    8.554383    0.592580    0.000000    3.000000
    98  Cl    c     3.732312   -6.416150    2.872590    0.000000    1.485000
    99  Cl    c     1.105574    6.698868    5.671945    0.000000    1.485000
   100  Cl    c     1.080238   -4.059265   -5.047227    0.000000    1.485000
   101  Cl    c    12.305393    7.971432   -0.943211    0.000000    1.485000
   102  Cl    c     3.742184    2.111224    8.854274    0.000000    1.485000
   103  Cl    c     4.041151    8.475296   -5.729545    0.000000    1.485000
   104  Ga    c     9.678318    9.988370   -0.537454    0.000000    3.000000
   105  Cl    c     6.461963    3.865272   -9.001129    0.000000    1.485000
   106  Cl    c    14.532505    4.421491    0.721908    0.000000    1.485000
   107  Cl    c     3.542861   -6.314651   -3.287827    0.000000    1.485000
   108  Cl    c     4.241554   10.778874    0.952126    0.000000    1.485000
   109  Cl    c    -1.070295    7.759853   -0.873293    0.000000    1.485000
   110  Cl    c     3.224570   10.186094   -2.600439    0.000000    1.485000
   111  Cl    c     7.522717   10.920155    0.037446    0.000000    1.485000
   112  Cl    c    -0.014814    8.305491    2.672177    0.000000    1.485000
   113  Cl    c     3.709639   -2.021061    8.341960    0.000000    1.485000
   114  Cl    c    -0.471252   -4.862000   -0.828112    0.000000    1.485000
   115  Cl    c    -3.291989    2.181057    2.595456    0.000000    1.485000
   116  Ga    c     6.543612   -4.939407   -6.552668    0.000000    3.000000
   117  Ga    c    13.536207   -0.480060    5.093280    0.000000    3.000000
   118  Cl    c    10.077354    1.697464   -8.603280    0.000000    1.485000
   119  Cl    c    -2.424078    2.181206   -4.935027    0.000000    1.485000
   120  Cl    c    -0.544734   -2.370086    5.715980    0.000000    1.485000
   121  Cl    c    12.307224    5.544236   -5.918785    0.000000    1.485000
   122  Cl    c    14.708791   -1.995632   -0.222689    0.000000    1.485000
   123  Cl    c    12.819914   -4.975271   -1.181902    0.000000    1.485000
   124  Cl    c     0.772256    8.465852   -4.780125    0.000000    1.485000
   125  Cl    c    -1.202692    5.557954   -5.744052    0.000000    1.485000
   126  Ga    c    13.767928    0.138390   -5.408117    0.000000    3.000000
   127  Cl    c     8.241680   -5.941606    5.539755    0.000000    1.485000
   128  Cl    c    -2.166059    0.607130    5.777254    0.000000    1.485000
   129  Cl    c     9.887343   10.265162   -2.620728    0.000000    1.485000
   130  Cl    c    12.416037   -0.733797   -6.804047    0.000000    1.485000
   131  Ga    c     3.796849   -6.178353   -5.381742    0.000000    3.000000
   132  Cl    c    -1.068412   -0.783232   -6.794902    0.000000    1.485000
   133  Cl    c    11.286328    6.742445    6.593457    0.000000    1.485000
   134  Cl    c    10.471258    2.085383    8.795391    0.000000    1.485000
   135  Cl    c    10.667876   -6.587815    2.919175    0.000000    1.485000
   136  Cl    c    11.159706   -4.162719   -6.022994    0.000000    1.485000
   137  Cl    c     4.626869   -8.178942   -0.217978    0.000000    1.485000
   138  Cl    c    12.912421   -2.621711    5.619797    0.000000    1.485000
   139  Cl    c    10.323280   -6.612258   -3.410711    0.000000    1.485000
   140  Ga    c    14.085988   -4.114148    0.309688    0.000000    3.000000
   141  Cl    c     4.864034   -5.824991    6.371109    0.000000    1.485000
   142  Cl    c    -4.321004    1.574695   -0.950308    0.000000    1.485000
   143  Ga    c     3.530044   -6.700578    4.960550    0.000000    3.000000
   144  Cl    c    15.708755    2.004460   -1.483482    0.000000    1.485000
   145  Cl    c    10.510320   -2.064627    8.283787    0.000000    1.485000
   146  Cl    c     5.775031   10.151207    5.815630    0.000000    1.485000
   147  Ga    c    -3.513163   -2.644338   -0.754313    0.000000    3.000000
   148  Cl    c    -3.151681   -2.392129   -2.820356    0.000000    1.485000
   149  Cl    c     3.276649   -2.443503   -9.051882    0.000000    1.485000
   150  Cl    c    10.736201    8.549507   -5.810032    0.000000    1.485000
   151  Cl    c     9.063755   10.177446    4.872677    0.000000    1.485000
   152  Cl    c     8.109935   -8.179971    0.674511    0.000000    1.485000
   153  Cl    c    13.873196   -4.478350    2.378408    0.000000    1.485000
   154  Cl    c     2.333309   10.173110    4.910455    0.000000    1.485000
   155  Cl    c     0.807446   10.726296    0.040011    0.000000    1.485000
   156  Cl    c     0.213514    4.453988    8.458451    0.000000    1.485000
   157  Cl    c     1.382031   -5.848135    5.544738    0.000000    1.485000
   158  Cl    c    14.355705    2.271528   -6.008506    0.000000    1.485000
   159  Cl    c     6.425192    8.015651   -8.423835    0.000000    1.485000
   160  Cl    c    13.367964    8.474497    2.592980    0.000000    1.485000
   161  Cl    c    10.967949   10.872860    0.913994    0.000000    1.485000
   162  Ga    c    13.588388    8.841188    0.523262    0.000000    3.000000
   163  Cl    c    -3.294300    6.221832    3.162800    0.000000    1.485000
   164  Cl    c     7.292369   -4.216996    8.702193    0.000000    1.485000
   165  Ga    c    13.967469    4.596295    6.289491    0.000000    3.000000
   166  Ga    c    -0.552063    7.695627   -6.262542    0.000000    3.000000
   167  Cl    c     6.188361   -0.275483   10.551823    0.000000    1.485000
   168  Cl    c     5.939497   -7.067508   -5.918893    0.000000    1.485000
   169  Cl    c    -3.606218    6.170489   -3.097186    0.000000    1.485000
   170  Cl    c     6.807183   -4.724604   -8.636109    0.000000    1.485000
   171  Ga    c    10.562445   -6.316584   -5.489218    0.000000    3.000000
   172  Cl    c    10.012214   -2.451263   -9.098598    0.000000    1.485000
   173  Ga    c    10.382188   -6.872579    4.993090    0.000000    3.000000
   174  Cl    c     1.418885   -8.310987    0.812330    0.000000    1.485000
   175  Cl    c    -0.282706    3.882305   -8.921251    0.000000    1.485000
[...]
   1285 x         12.421953     12.424187     0.002234    Cartesian    0.02
   1285 y         16.695051     16.687111    -0.007940    Cartesian   -0.05
   1285 z          5.194288      5.194970     0.000682    Cartesian    0.01
   1286 x         19.963187     19.957253    -0.005934    Cartesian   -0.03
   1286 y          3.923404      3.923348    -0.000056    Cartesian   -0.00
   1286 z         -9.421005     -9.418785     0.002220    Cartesian   -0.02
   1287 x         10.014302     10.015839     0.001537    Cartesian    0.02
   1287 y         -7.066541     -7.063176     0.003365    Cartesian   -0.05
   1287 z        -14.126171    -14.130692    -0.004522    Cartesian    0.03
   1288 x         -7.812097     -7.812826    -0.000729    Cartesian    0.01
   1288 y         10.471109     10.470110    -0.000999    Cartesian   -0.01
   1288 z          5.940605      5.937064    -0.003541    Cartesian   -0.06
   1289 x         14.073757     14.076282     0.002524    Cartesian    0.02
   1289 y        -12.944827    -12.942421     0.002406    Cartesian   -0.02
   1289 z          3.028848      3.029532     0.000684    Cartesian    0.02
   1290 x         -3.013577     -3.013104     0.000473    Cartesian   -0.02
   1290 y          6.732107      6.737085     0.004979    Cartesian    0.07
   1290 z         13.898153     13.909493     0.011340    Cartesian    0.08
   1291 x         16.614847     16.612257    -0.002590    Cartesian   -0.02
   1291 y         14.871457     14.866389    -0.005068    Cartesian   -0.03
   1291 z          2.322003      2.321093    -0.000909    Cartesian   -0.04
   1292 x         19.307962     19.316973     0.009011    Cartesian    0.05
   1292 y         -6.872409     -6.888145    -0.015736    Cartesian    0.23
   1292 z         -6.133440     -6.139355    -0.005915    Cartesian    0.10
   1293 x         13.894793     13.890406    -0.004387    Cartesian   -0.03
   1293 y        -12.887706    -12.881318     0.006388    Cartesian   -0.05
   1293 z         -3.881878     -3.882155    -0.000277    Cartesian    0.01
   1294 x         -3.838658     -3.840547    -0.001888    Cartesian    0.05
   1294 y          5.686315      5.695272     0.008957    Cartesian    0.16
   1294 z        -13.781886    -13.791906    -0.010020    Cartesian    0.07
   1295 x         13.744395     13.740746    -0.003649    Cartesian   -0.03
   1295 y         12.502505     12.498407    -0.004097    Cartesian   -0.03
   1295 z        -10.870158    -10.866972     0.003186    Cartesian   -0.03
   1296 x          6.249956      6.249949    -0.000006    Cartesian   -0.00
   1296 y          2.293686      2.294246     0.000560    Cartesian    0.02
   1296 z         17.198965     17.198932    -0.000033    Cartesian   -0.00
   1297 x         18.096781     18.107171     0.010389    Cartesian    0.06
   1297 y          2.543122      2.543468     0.000346    Cartesian    0.01
   1297 z         11.977599     11.980858     0.003259    Cartesian    0.03
   1298 x         20.775421     20.769959    -0.005462    Cartesian   -0.03
   1298 y          8.413793      8.427000     0.013207    Cartesian    0.16
   1298 z         -5.240978     -5.257105    -0.016127    Cartesian    0.31
   1299 x         -1.054238     -1.053137     0.001100    Cartesian   -0.10
   1299 y         16.710280     16.707996    -0.002284    Cartesian   -0.01
   1299 z          5.321404      5.321743     0.000339    Cartesian    0.01
   1300 x         21.381926     21.375554    -0.006371    Cartesian   -0.03
   1300 y          6.498932      6.493802    -0.005130    Cartesian   -0.08
   1300 z          5.586158      5.586232     0.000074    Cartesian    0.00
   1301 x         16.649086     16.643893    -0.005194    Cartesian   -0.03
   1301 y         -6.496294     -6.489550     0.006745    Cartesian   -0.10
   1301 z         10.529494     10.527872    -0.001622    Cartesian   -0.02
   1302 x         -7.038793     -7.030005     0.008788    Cartesian   -0.12
   1302 y         -8.757360     -8.741830     0.015530    Cartesian   -0.18
   1302 z          4.950624      4.936294    -0.014331    Cartesian   -0.29
   1303 x          3.862068      3.863714     0.001646    Cartesian    0.04
   1303 y        -15.221121    -15.214204     0.006917    Cartesian   -0.05
   1303 z         -2.677137     -2.676030     0.001107    Cartesian   -0.04
   1304 x         -5.298168     -5.294083     0.004084    Cartesian   -0.08
   1304 y         -3.799041     -3.798769     0.000271    Cartesian   -0.01
   1304 z         12.091468     12.087847    -0.003621    Cartesian   -0.03
   1305 x         -0.544029     -0.540689     0.003340    Cartesian   -0.61
   1305 y          8.027345      8.023482    -0.003863    Cartesian   -0.05
   1305 z        -14.923069    -14.921615     0.001454    Cartesian   -0.01
   1306 x         -9.336980     -9.339888    -0.002908    Cartesian    0.03
   1306 y          8.326578      8.335246     0.008668    Cartesian    0.10
   1306 z         -5.621891     -5.627573    -0.005683    Cartesian    0.10
   1307 x          5.245910      5.245193    -0.000717    Cartesian   -0.01
   1307 y          1.305015      1.305745     0.000731    Cartesian    0.06
   1307 z        -17.391800    -17.391120     0.000680    Cartesian   -0.00
   1308 x         17.824493     17.818924    -0.005569    Cartesian   -0.03
   1308 y         12.871553     12.869853    -0.001700    Cartesian   -0.01
   1308 z          5.726522      5.727178     0.000656    Cartesian    0.01
   1309 x         13.953487     13.950341    -0.003146    Cartesian   -0.02
   1309 y         17.077937     17.085258     0.007321    Cartesian    0.04
   1309 z          0.732487      0.723412    -0.009074    Cartesian   -1.24
   1310 x         -2.682724     -2.683678    -0.000955    Cartesian    0.04
   1310 y         16.975493     16.968661    -0.006832    Cartesian   -0.04
   1310 z          0.224458      0.230445     0.005987    Cartesian    2.67
   1311 x          3.909476      3.909022    -0.000453    Cartesian   -0.01
   1311 y         -2.511417     -2.511766    -0.000349    Cartesian    0.01
   1311 z        -16.793312    -16.790344     0.002968    Cartesian   -0.02
   1312 x         19.849221     19.855569     0.006348    Cartesian    0.03
   1312 y          7.947380      7.977754     0.030373    Cartesian    0.38
   1312 z         -8.203017     -8.230825    -0.027808    Cartesian    0.34
   1313 x         21.152191     21.147036    -0.005155    Cartesian   -0.02
   1313 y         -4.323834     -4.327512    -0.003678    Cartesian    0.09
   1313 z         -5.458147     -5.454924     0.003223    Cartesian   -0.06
   1314 x          6.110227      6.112702     0.002475    Cartesian    0.04
   1314 y         16.676260     16.665824    -0.010436    Cartesian   -0.06
   1314 z         -9.076720     -9.076680     0.000040    Cartesian   -0.00
   1315 x         -6.110401     -6.096599     0.013802    Cartesian   -0.23
   1315 y         -8.289430     -8.263231     0.026198    Cartesian   -0.32
   1315 z          7.911440      7.899254    -0.012187    Cartesian   -0.15
   1316 x         -0.167259     -0.164544     0.002715    Cartesian   -1.62
   1316 y         -4.710282     -4.707394     0.002888    Cartesian   -0.06
   1316 z        -15.140238    -15.137786     0.002452    Cartesian   -0.02
   1317 x          6.612250      6.611399    -0.000850    Cartesian   -0.01
   1317 y         17.170596     17.168967    -0.001629    Cartesian   -0.01
   1317 z          8.218662      8.221798     0.003136    Cartesian    0.04
   1318 x         -2.666935     -2.664995     0.001940    Cartesian   -0.07
   1318 y        -10.638074    -10.628195     0.009879    Cartesian   -0.09
   1318 z          8.989066      8.988534    -0.000532    Cartesian   -0.01
   1319 x         11.526364     11.523955    -0.002409    Cartesian   -0.02
   1319 y        -14.762323    -14.754650     0.007673    Cartesian   -0.05
   1319 z          0.221344      0.215162    -0.006182    Cartesian   -2.79
   1320 x          6.646489      6.647550     0.001060    Cartesian    0.02
   1320 y         -4.197156     -4.194210     0.002947    Cartesian   -0.07
   1320 z         16.426153     16.422007    -0.004146    Cartesian   -0.03
   1321 x          3.930119      3.929926    -0.000193    Cartesian   -0.00
   1321 y          3.735916      3.736829     0.000913    Cartesian    0.02
   1321 z        -17.351651    -17.350100     0.001551    Cartesian   -0.01
   1322 x          4.934164      4.933935    -0.000230    Cartesian   -0.00
   1322 y          4.724587      4.724856     0.000269    Cartesian    0.01
   1322 z         17.239113     17.237969    -0.001145    Cartesian   -0.01
   1323 x         -5.967868     -5.957520     0.010348    Cartesian   -0.17
   1323 y         13.019684     13.011126    -0.008557    Cartesian   -0.07
   1323 z          6.615898      6.599164    -0.016734    Cartesian   -0.25
   1324 x         15.477363     15.477068    -0.000295    Cartesian   -0.00
   1324 y          9.828095      9.823034    -0.005061    Cartesian   -0.05
   1324 z        -12.241458    -12.238824     0.002634    Cartesian   -0.02
   1325 x         -2.750774     -2.748028     0.002746    Cartesian   -0.10
   1325 y         -1.981544     -1.981896    -0.000352    Cartesian    0.02
   1325 z         14.898972     14.897109    -0.001864    Cartesian   -0.01
   1326 x          0.352043      0.353307     0.001264    Cartesian    0.36
   1326 y          3.861204      3.858351    -0.002853    Cartesian   -0.07
   1326 z        -16.652948    -16.650323     0.002626    Cartesian   -0.02
   1327 x        -10.596226    -10.574825     0.021400    Cartesian   -0.20
   1327 y         -2.384739     -2.373369     0.011370    Cartesian   -0.48
   1327 z          5.090988      5.083865    -0.007123    Cartesian   -0.14
   1328 x          6.417634      6.419527     0.001894    Cartesian    0.03
   1328 y        -15.019374    -15.023667    -0.004293    Cartesian    0.03
   1328 z          5.379152      5.377808    -0.001344    Cartesian   -0.02
   1329 x         -9.441462     -9.429756     0.011706    Cartesian   -0.12
   1329 y         10.735775     10.723907    -0.011868    Cartesian   -0.11
   1329 z          0.846355      0.843024    -0.003331    Cartesian   -0.39
   1330 x         -0.509790     -0.507262     0.002528    Cartesian   -0.50
   1330 y        -13.340407    -13.334290     0.006117    Cartesian   -0.05
   1330 z         -6.715578     -6.694008     0.021570    Cartesian   -0.32
   1331 x          8.491597      8.492717     0.001121    Cartesian    0.01
   1331 y         -1.648034     -1.647751     0.000282    Cartesian   -0.02
   1331 z         17.098750     17.096726    -0.002024    Cartesian   -0.01
   1332 x          3.610551      3.612420     0.001868    Cartesian    0.05
   1332 y         10.748469     10.743064    -0.005404    Cartesian   -0.05
   1332 z         15.052583     15.050696    -0.001887    Cartesian   -0.01
   1333 x         -8.771761     -8.763471     0.008291    Cartesian   -0.09
   1333 y         -6.082950     -6.084444    -0.001494    Cartesian    0.02
   1333 z          6.321924      6.317380    -0.004544    Cartesian   -0.07
   1334 x         21.088995     21.079569    -0.009426    Cartesian   -0.04
   1334 y         10.580029     10.590154     0.010125    Cartesian    0.10
   1334 z         -0.106579     -0.100386     0.006194    Cartesian   -5.81
   1335 x         -8.667279     -8.661316     0.005963    Cartesian   -0.07
   1335 y         -8.492147     -8.489296     0.002851    Cartesian   -0.03
   1335 z         -0.146322     -0.148775    -0.002453    Cartesian    1.68
   1336 x         -3.922497     -3.911777     0.010721    Cartesian   -0.27
   1336 y         14.342845     14.336537    -0.006308    Cartesian   -0.04
   1336 z         -7.871979     -7.868618     0.003362    Cartesian   -0.04
   1337 x         -3.724692     -3.720823     0.003869    Cartesian   -0.10
   1337 y          1.662338      1.662472     0.000134    Cartesian    0.01
   1337 z        -14.999874    -14.997608     0.002267    Cartesian   -0.02
   1338 x         -3.168958     -3.155554     0.013404    Cartesian   -0.42
   1338 y        -11.132410    -11.120894     0.011515    Cartesian   -0.10
   1338 z         -8.306317     -8.296815     0.009502    Cartesian   -0.11
   1339 x          2.845725      2.848693     0.002968    Cartesian    0.10
   1339 y         18.967784     18.957051    -0.010733    Cartesian   -0.06
   1339 z         -3.243619     -3.244236    -0.000617    Cartesian    0.02
   1340 x          3.256735      3.255765    -0.000969    Cartesian   -0.03
   1340 y        -15.137595    -15.138098    -0.000502    Cartesian    0.00
   1340 z          4.746703      4.745457    -0.001246    Cartesian   -0.03
   1341 x          3.024690      3.026305     0.001615    Cartesian    0.05
   1341 y         18.910663     18.906331    -0.004332    Cartesian   -0.02
   1341 z          3.667107      3.666774    -0.000333    Cartesian   -0.01
   1342 x         19.829749     19.825165    -0.004584    Cartesian   -0.02
   1342 y         -0.131288     -0.126615     0.004673    Cartesian   -3.56
   1342 z         10.606299     10.604151    -0.002148    Cartesian   -0.02
   1343 x          5.078232      5.078430     0.000198    Cartesian    0.00
   1343 y         18.618075     18.616149    -0.001926    Cartesian   -0.01
   1343 z         -5.571986     -5.571631     0.000355    Cartesian   -0.01
   1344 x         12.932161     12.931912    -0.000249    Cartesian   -0.00
   1344 y          8.012116      8.008661    -0.003454    Cartesian   -0.04
   1344 z        -15.050185    -15.048650     0.001535    Cartesian   -0.01
   1345 x         -9.667834     -9.644393     0.023441    Cartesian   -0.24
   1345 y         -1.916809     -1.907978     0.008831    Cartesian   -0.46
   1345 z          8.051804      8.047608    -0.004196    Cartesian   -0.05
   1346 x         -5.402778     -5.398966     0.003812    Cartesian   -0.07
   1346 y        -10.783670    -10.781434     0.002236    Cartesian   -0.02
   1346 z         -5.979423     -5.975983     0.003440    Cartesian   -0.06
   1347 x        -10.908920    -10.905119     0.003801    Cartesian   -0.03
   1347 y         -4.550427     -4.548011     0.002416    Cartesian   -0.05
   1347 z         -0.046107     -0.058316    -0.012209    Cartesian   26.48
   1348 x         22.404786     22.389755    -0.015031    Cartesian   -0.07
   1348 y          8.149128      8.155770     0.006642    Cartesian    0.08
   1348 z         -0.146728     -0.140824     0.005904    Cartesian   -4.02
   1349 x         -9.697961     -9.691175     0.006786    Cartesian   -0.07
   1349 y         -6.549362     -6.542717     0.006646    Cartesian   -0.10
   1349 z          3.359886      3.360036     0.000151    Cartesian    0.00
   1350 x         11.735456     11.736297     0.000842    Cartesian    0.01
   1350 y        -10.186891    -10.180047     0.006843    Cartesian   -0.07
   1350 z         11.823988     11.815542    -0.008447    Cartesian   -0.07
   1351 x         10.600164     10.599039    -0.001124    Cartesian   -0.01
   1351 y        -15.228736    -15.227298     0.001437    Cartesian   -0.01
   1351 z         -2.740695     -2.744237    -0.003542    Cartesian    0.13
   1352 x        -10.992759    -10.988977     0.003783    Cartesian   -0.03
   1352 y          4.106103      4.107977     0.001874    Cartesian    0.05
   1352 z          5.863800      5.860054    -0.003746    Cartesian   -0.06
   1353 x          9.583821      9.585091     0.001270    Cartesian    0.01
   1353 y         18.960169     18.948366    -0.011803    Cartesian   -0.06
   1353 z         -3.307177     -3.307978    -0.000801    Cartesian    0.02
   1354 x         18.494194     18.492319    -0.001874    Cartesian   -0.01
   1354 y         -3.947172     -3.946437     0.000735    Cartesian   -0.02
   1354 z         11.202091     11.198557    -0.003534    Cartesian   -0.03
   1355 x          7.544754      7.542701    -0.002053    Cartesian   -0.03
   1355 y         -8.361779     -8.356728     0.005051    Cartesian   -0.06
   1355 z         14.695051     14.693411    -0.001640    Cartesian   -0.01
   1356 x          9.762785      9.764904     0.002119    Cartesian    0.02
   1356 y         18.903048     18.891098    -0.011951    Cartesian   -0.06
   1356 z          3.603549      3.602202    -0.001347    Cartesian   -0.04
   1357 x         18.950956     18.949927    -0.001030    Cartesian   -0.01
   1357 y         12.112004     12.101619    -0.010384    Cartesian   -0.09
   1357 z         -6.471914     -6.466582     0.005333    Cartesian   -0.08
   1358 x          1.753501      1.754864     0.001363    Cartesian    0.08
   1358 y         -1.640419     -1.640026     0.000393    Cartesian   -0.02
   1358 z         17.162308     17.158284    -0.004024    Cartesian   -0.02
   1359 x          6.269719      6.272035     0.002316    Cartesian    0.04
   1359 y          8.540471      8.537956    -0.002515    Cartesian   -0.03
   1359 z         16.643322     16.640575    -0.002746    Cartesian   -0.02
   1360 x        -11.201851    -11.199333     0.002518    Cartesian   -0.02
   1360 y         -0.469330     -0.468227     0.001103    Cartesian   -0.23
   1360 z         -5.738845     -5.737126     0.001719    Cartesian   -0.03
   1361 x         10.647571     10.645185    -0.002386    Cartesian   -0.02
   1361 y         -2.519032     -2.518202     0.000830    Cartesian   -0.03
   1361 z        -16.856870    -16.853135     0.003735    Cartesian   -0.02
   1362 x         10.348647     10.348214    -0.000433    Cartesian   -0.00
   1362 y         10.740854     10.735633    -0.005221    Cartesian   -0.05
   1362 z         14.989025     14.986692    -0.002333    Cartesian   -0.02
   1363 x         -9.781800     -9.772275     0.009525    Cartesian   -0.10
   1363 y          2.107168      2.101859    -0.005309    Cartesian   -0.25
   1363 z          9.269792      9.268634    -0.001159    Cartesian   -0.01
   1364 x        -11.285690    -11.282792     0.002898    Cartesian   -0.03
   1364 y          8.187200      8.186263    -0.000937    Cartesian   -0.01
   1364 z          0.171062      0.171264     0.000202    Cartesian    0.12
   1365 x         13.308931     13.306683    -0.002248    Cartesian   -0.02
   1365 y         -4.725511     -4.719762     0.005749    Cartesian   -0.12
   1365 z        -15.267354    -15.264869     0.002484    Cartesian   -0.02
--------------------------------------------------------------------------------


  Time to end of optimisation  =     4909.0926 seconds


  Peak dynamic memory used =     272.70 MB 


  Timing analysis for GULP :

--------------------------------------------------------------------------------
  Task / Subroutine                                          Time (Seconds)
--------------------------------------------------------------------------------
  Calculation of reciprocal space energy and derivatives          0.1071
  Calculation of real space energy and derivatives                2.9415
  Calculation for region 1 energy and derivatives (2-b)        1642.0838
  Calculation for region 2a energy                              800.9336
  Calculation for region 2b energy                                0.1535
  Calculation and manipulation of Hessian matrix                  1.3268
  Calculation of matrix inversion                              2432.4062
  Symmetry generation of equivalent positions                     0.0003
  Global summation overhead                                       0.0010
--------------------------------------------------------------------------------
  Total CPU time                                               4909.0927
--------------------------------------------------------------------------------


  Dump file written as GaCl3.grs



  **** GULP has completed with   2 warnings - beware! ****

  Job Finished at 01:34.08 26th August     2021                               

