********************************************************************************
*                       GENERAL UTILITY LATTICE PROGRAM                        *
*                                 Julian Gale                                  *
*                       Curtin Institute for Computation                       *
*                    School of Molecular and Life Sciences                     *
*                    Curtin University, Western Australia                      *
********************************************************************************
* Version = 5.2.0 * Last modified =  10th September 2020                       *
********************************************************************************
*  optimise     - perform optimisation run                                     *
*  conp         - constant pressure calculation                                *
*  property     - calculate properties for final geometry                      *
*  defect       - perform defect calculation after bulk run                    *
*  compare      - compare initial and final structures                         *
********************************************************************************

  Job Started  at 15:16.30  2nd January    2021                               

  Number of CPUs =     1


  Total number of configurations input =      1

********************************************************************************
*  Input for Configuration =   1                                               *
********************************************************************************

  Formula = ClONa3                                                      

  Number of irreducible atoms/shells =       5


  Total number atoms/shells =       7

  Dimensionality = 3               :  Bulk   


  Symmetry :

  Crystal family                   :  Cubic       
  Crystal class  (Groth - 1921)    :  Cubic Hexakisoctahedral              

  Space group (centrosymmetric)    :  P M 3 M         

  Patterson group                  :  P m -3 m 

  Cartesian lattice vectors (Angstroms) :

        4.504000    0.000000    0.000000
        0.000000    4.504000    0.000000
        0.000000    0.000000    4.504000

  Cell parameters (Angstroms/Degrees):

  a =       4.5040    alpha =  90.0000
  b =       4.5040    beta  =  90.0000
  c =       4.5040    gamma =  90.0000

  Initial cell volume =          91.368216 Angs**3

  Temperature of configuration =   0.00     K 

  Pressure of configuration =         0.000 GPa 

  Fractional coordinates of asymmetric unit :

--------------------------------------------------------------------------------
   No.  Atomic       x           y          z         Charge      Occupancy
        Label      (Frac)      (Frac)     (Frac)        (e)         (Frac)  
--------------------------------------------------------------------------------
      1 Cl    c    0.000000    0.000000    0.000000     1.48500    1.000000    
      2 O     c    0.500000    0.500000    0.500000     0.18300    1.000000    
      3 Na    c    0.500000    0.500000    0.000000     1.00000    1.000000    
      4 Cl    s    0.000000    0.000000    0.000000    -2.48500    1.000000    
      5 O     s    0.500000    0.500000    0.500000    -2.18300    1.000000    
--------------------------------------------------------------------------------


  Constraints : 

--------------------------------------------------------------------------------
  Constraint no.      Unconstrained     Constrained    Coefficient    Offset
                         Variable         Variable
--------------------------------------------------------------------------------
           1              Strain 1        Strain 2       1.00000      0.0000
           2              Strain 1        Strain 3       1.00000      0.0000
--------------------------------------------------------------------------------


********************************************************************************
*  General input information                                                   *
********************************************************************************

  Species output for all configurations : 

--------------------------------------------------------------------------------
  Species    Type    Atomic    Atomic    Charge       Radii (Angs)     Library
                     Number     Mass       (e)     Cova   Ionic  VDW   Symbol
--------------------------------------------------------------------------------
    Na       Core       11      22.99   1.000000   0.970  0.000  2.300          
    O        Core        8      16.00   0.183000   0.730  0.000  1.360          
    O        Shell       8       0.00  -2.183000   0.730  0.000  1.360          
    Cl       Core       17      35.45   1.485000   0.990  0.000  1.650          
    Cl       Shell      17       0.00  -2.485000   0.990  0.000  1.650          
    Mg       Core       12      24.31   0.415000   1.100  0.000  0.000          
    Mg       Shell      12       0.00   1.585000   1.100  0.000  0.000          
    Ca       Core       20      40.08  -1.135000   0.990  0.000  0.000          
    Ca       Shell      20       0.00   3.135000   0.990  0.000  0.000          
    Sr       Core       38      87.62  -1.251000   1.120  0.000  0.000          
    Sr       Shell      38       0.00   3.251000   1.120  0.000  0.000          
    Ba       Core       56     137.33  -7.203000   1.340  0.000  0.000          
    Ba       Shell      56       0.00   9.203000   1.340  0.000  0.000          
--------------------------------------------------------------------------------


  Lattice summation method               =    Ewald          (3-D)
                                         =    Parry          (2-D)
                                         =    Saunders et al (1-D)
  Accuracy factor for lattice sums       =   12.000


  Analytic derivatives to be used

  Time limit = Infinity

  Maximum range for interatomic potentials =    100000.000000 Angstroms

  General interatomic potentials :

--------------------------------------------------------------------------------
Atom  Types   Potential      Parameter       Value         Units   Cutoffs(Ang)
  1     2                                                            Min /  Max 
--------------------------------------------------------------------------------
O    c O    s Spring (c-s)  Spring k 2       593.71600    eV*Ang^-2 0.000  0.800
                            Spring k 4       0.0000000    eV*Ang^-4 
--------------------------------------------------------------------------------
Cl   c Cl   s Spring (c-s)  Spring k 2       29.380000    eV*Ang^-2 0.000  0.800
                            Spring k 4       0.0000000    eV*Ang^-4 
--------------------------------------------------------------------------------
Mg   c Mg   s Spring (c-s)  Spring k 2       361.60000    eV*Ang^-2 0.000  0.800
                            Spring k 4       0.0000000    eV*Ang^-4 
--------------------------------------------------------------------------------
Ca   c Ca   s Spring (c-s)  Spring k 2       110.20000    eV*Ang^-2 0.000  0.800
                            Spring k 4       0.0000000    eV*Ang^-4 
--------------------------------------------------------------------------------
Sr   c Sr   s Spring (c-s)  Spring k 2       71.700000    eV*Ang^-2 0.000  0.800
                            Spring k 4       0.0000000    eV*Ang^-4 
--------------------------------------------------------------------------------
Ba   c Ba   s Spring (c-s)  Spring k 2       495.20000    eV*Ang^-2 0.000  0.800
                            Spring k 4       0.0000000    eV*Ang^-4 
--------------------------------------------------------------------------------
Na   c Na   c Buckingham    Buckingham A     1788.1900    eV        0.000 12.000
                            Buckingham rho  0.15900000    Ang       
                            Buckingham C     0.0000000    eV*Ang^6  
--------------------------------------------------------------------------------
Na   c O    s Buckingham    Buckingham A     588.38000    eV        0.000 12.000
                            Buckingham rho  0.33800000    Ang       
                            Buckingham C     0.0000000    eV*Ang^6  
--------------------------------------------------------------------------------
Na   c Cl   s Buckingham    Buckingham A     1170.4100    eV        0.000 12.000
                            Buckingham rho  0.31500000    Ang       
                            Buckingham C     0.0000000    eV*Ang^6  
--------------------------------------------------------------------------------
O    s O    s Buckingham    Buckingham A     22764.300    eV        0.000 12.000
                            Buckingham rho  0.14900000    Ang       
                            Buckingham C     13.190000    eV*Ang^6  
--------------------------------------------------------------------------------
O    s Cl   s Buckingham    Buckingham A     8286.9100    eV        0.000 12.000
                            Buckingham rho  0.25900000    Ang       
                            Buckingham C     62.200000    eV*Ang^6  
--------------------------------------------------------------------------------
Cl   s Cl   s Buckingham    Buckingham A     1227.2000    eV        0.000 12.000
                            Buckingham rho  0.32100000    Ang       
                            Buckingham C     14.530000    eV*Ang^6  
--------------------------------------------------------------------------------
O    s Mg   s Buckingham    Buckingham A     1428.5000    eV        0.000 12.000
                            Buckingham rho  0.29450000    Ang       
                            Buckingham C     0.0000000    eV*Ang^6  
--------------------------------------------------------------------------------
Mg   s Cl   s Buckingham    Buckingham A     4914.5400    eV        0.000 12.000
                            Buckingham rho  0.25700000    Ang       
                            Buckingham C     0.0000000    eV*Ang^6  
--------------------------------------------------------------------------------
O    s Ca   s Buckingham    Buckingham A     1090.4000    eV        0.000 12.000
                            Buckingham rho  0.34370000    Ang       
                            Buckingham C     0.0000000    eV*Ang^6  
--------------------------------------------------------------------------------
Cl   s Ca   s Buckingham    Buckingham A     2302.0000    eV        0.000 12.000
                            Buckingham rho  0.34020000    Ang       
                            Buckingham C     0.0000000    eV*Ang^6  
--------------------------------------------------------------------------------
O    s Sr   s Buckingham    Buckingham A     959.10000    eV        0.000 12.000
                            Buckingham rho  0.37210000    Ang       
                            Buckingham C     0.0000000    eV*Ang^6  
--------------------------------------------------------------------------------
Cl   s Sr   s Buckingham    Buckingham A     2191.0900    eV        0.000 12.000
                            Buckingham rho  0.34570000    Ang       
                            Buckingham C     0.0000000    eV*Ang^6  
--------------------------------------------------------------------------------
O    s Ba   s Buckingham    Buckingham A     905.70000    eV        0.000 12.000
                            Buckingham rho  0.39760000    Ang       
                            Buckingham C     0.0000000    eV*Ang^6  
--------------------------------------------------------------------------------
Cl   s Ba   s Buckingham    Buckingham A     2704.5500    eV        0.000 12.000
                            Buckingham rho  0.35280000    Ang       
                            Buckingham C     0.0000000    eV*Ang^6  
--------------------------------------------------------------------------------

********************************************************************************
*  Output for configuration   1                                                *
********************************************************************************


  Components of energy : 

--------------------------------------------------------------------------------
  Interatomic potentials     =           4.94315381 eV    
  Monopole - monopole (real) =         -10.03624526 eV    
  Monopole - monopole (recip)=         -29.53581274 eV    
  Monopole - monopole (total)=         -39.57205800 eV    
--------------------------------------------------------------------------------
  Total lattice energy       =         -34.62890419 eV    
--------------------------------------------------------------------------------
  Total lattice energy       =           -3341.1599 kJ/(mole unit cells)
--------------------------------------------------------------------------------


  Number of variables =        1

  Maximum number of calculations  =          1000
  Maximum Hessian update interval =            10
  Maximum step size               =   1.000000000
  Maximum parameter tolerance     =   0.000010000
  Maximum function  tolerance     =   0.000010000
  Maximum gradient  tolerance     =   0.001000000
  Maximum gradient  component     =   0.010000000

  Symmetry constrained optimisation

  Symmetry used for second derivatives

  Cell parameters to be optimised using strains

  Newton-Raphson optimiser to be used

  BFGS hessian update to be used

  Lower half triangular hessian to be used

  Start of bulk optimisation :

  Cycle:      0 Energy:       -34.628904  Gnorm:      4.328237  CPU:    0.007
  ** Hessian calculated **
  Cycle:      1 Energy:       -34.677667  Gnorm:      0.044008  CPU:    0.009
  Cycle:      2 Energy:       -34.677671  Gnorm:      0.003653  CPU:    0.010


  **** Optimisation achieved ****


  Final energy =     -34.67767136 eV
  Final Gnorm  =       0.00000010

  Components of energy : 

--------------------------------------------------------------------------------
  Interatomic potentials     =           5.77546103 eV    
  Monopole - monopole (real) =         -10.25970290 eV    
  Monopole - monopole (recip)=         -30.19342950 eV    
  Monopole - monopole (total)=         -40.45313239 eV    
--------------------------------------------------------------------------------
  Total lattice energy       =         -34.67767136 eV    
--------------------------------------------------------------------------------
  Total lattice energy       =           -3345.8652 kJ/(mole unit cells)
--------------------------------------------------------------------------------

  Final asymmetric unit coordinates :

--------------------------------------------------------------------------------
   No.  Atomic        x           y           z         Radius
        Label       (Frac)      (Frac)      (Frac)       (Angs) 
--------------------------------------------------------------------------------
     1  Cl    c     0.000000    0.000000    0.000000    0.000000
     2  O     c     0.500000    0.500000    0.500000    0.000000
     3  Na    c     0.500000    0.500000    0.000000    0.000000
     4  Cl    s     0.000000    0.000000    0.000000    0.000000
     5  O     s     0.500000    0.500000    0.500000    0.000000
--------------------------------------------------------------------------------

  Final Cartesian lattice vectors (Angstroms) :

        4.405902    0.000000    0.000000
        0.000000    4.405902    0.000000
        0.000000    0.000000    4.405902


  Final cell parameters and derivatives :

--------------------------------------------------------------------------------
       a            4.405902 Angstrom     dE/de1(xx)     0.000000 eV/strain
       b            4.405902 Angstrom     dE/de2(yy)     0.000000 eV/strain
       c            4.405902 Angstrom     dE/de3(zz)     0.000000 eV/strain
       alpha       90.000000 Degrees      dE/de4(yz)     0.000000 eV/strain
       beta        90.000000 Degrees      dE/de5(xz)     0.000000 eV/strain
       gamma       90.000000 Degrees      dE/de6(xy)     0.000000 eV/strain
--------------------------------------------------------------------------------

  Primitive cell volume =            85.527266 Angs**3

  Density of cell =      2.338030 g/cm**3

  Non-primitive cell volume =            85.527266 Angs**3


  Final internal derivatives :

--------------------------------------------------------------------------------
   No.  Atomic          a             b             c           Radius
        Label          (eV)          (eV)          (eV)        (eV/Angs)
--------------------------------------------------------------------------------
      1 Cl    c       0.000000      0.000000      0.000000      0.000000
      2 O     c       0.000000      0.000000      0.000000      0.000000
      3 Na    c       0.000000      0.000000      0.000000      0.000000
      4 Cl    s       0.000000      0.000000      0.000000      0.000000
      5 O     s       0.000000      0.000000      0.000000      0.000000
--------------------------------------------------------------------------------
  Maximum abs         0.000000      0.000000      0.000000      0.000000
--------------------------------------------------------------------------------

  Comparison of initial and final structures : 

--------------------------------------------------------------------------------
  Parameter   Initial value   Final value   Difference    Units      Percent
--------------------------------------------------------------------------------
    Volume        91.368216     85.527266    -5.840950    Angs**3     -6.39
    a              4.504000      4.405902    -0.098098    Angstroms   -2.18
    b              4.504000      4.405902    -0.098098    Angstroms   -2.18
    c              4.504000      4.405902    -0.098098    Angstroms   -2.18
    alpha         90.000000     90.000000     0.000000    Degrees      0.00
    beta          90.000000     90.000000     0.000000    Degrees      0.00
    gamma         90.000000     90.000000     0.000000    Degrees      0.00
      1 x          0.000000      0.000000     0.000000    Fractional   0.00
      1 y          0.000000      0.000000     0.000000    Fractional   0.00
      1 z          0.000000      0.000000     0.000000    Fractional   0.00
      2 x          0.500000      0.500000     0.000000    Fractional   0.00
      2 y          0.500000      0.500000     0.000000    Fractional   0.00
      2 z          0.500000      0.500000     0.000000    Fractional   0.00
      3 x          0.500000      0.500000     0.000000    Fractional   0.00
      3 y          0.500000      0.500000     0.000000    Fractional   0.00
      3 z          0.000000      0.000000     0.000000    Fractional   0.00
      4 x          0.000000      0.000000     0.000000    Fractional   0.00
      4 y          0.000000      0.000000     0.000000    Fractional   0.00
      4 z          0.000000      0.000000     0.000000    Fractional   0.00
      5 x          0.500000      0.500000     0.000000    Fractional   0.00
      5 y          0.500000      0.500000     0.000000    Fractional   0.00
      5 z          0.500000      0.500000     0.000000    Fractional   0.00
--------------------------------------------------------------------------------


  Born effective charge tensors : 

-------------------------------------------------------------------------------
  Atom             x           y             z
-------------------------------------------------------------------------------
    1 Cl    x      -0.9918     -0.0000     -0.0000
            y      -0.0000     -0.9918     -0.0000
            z      -0.0000     -0.0000     -0.9918
-------------------------------------------------------------------------------
    2 O     x      -2.2939      0.0000      0.0000
            y       0.0000     -2.2939      0.0000
            z       0.0000      0.0000     -2.2939
-------------------------------------------------------------------------------
    3 Na    x       1.2243      0.0000      0.0000
            y       0.0000      1.2243     -0.0000
            z       0.0000      0.0000      0.8372
-------------------------------------------------------------------------------




  Elastic Constant Matrix: (Units=GPa)

-------------------------------------------------------------------------------
  Indices      1         2         3         4         5         6    
-------------------------------------------------------------------------------
       1     82.7680   24.3534   24.3534   -0.0000    0.0000   -0.0000
       2     24.3534   82.7680   24.3534    0.0000   -0.0000   -0.0000
       3     24.3534   24.3534   82.7680    0.0000   -0.0000    0.0000
       4     -0.0000    0.0000    0.0000   24.3534   -0.0000    0.0000
       5      0.0000   -0.0000   -0.0000   -0.0000   24.3534    0.0000
       6     -0.0000   -0.0000    0.0000    0.0000    0.0000   24.3534
-------------------------------------------------------------------------------


  Elastic Compliance Matrix: (Units=1/GPa)

-------------------------------------------------------------------------------
  Indices      1         2         3         4         5         6    
-------------------------------------------------------------------------------
       1    0.013948 -0.003171 -0.003171  0.000000 -0.000000  0.000000
       2   -0.003171  0.013948 -0.003171 -0.000000  0.000000 -0.000000
       3   -0.003171 -0.003171  0.013948 -0.000000  0.000000 -0.000000
       4    0.000000 -0.000000 -0.000000  0.041062  0.000000 -0.000000
       5   -0.000000  0.000000  0.000000  0.000000  0.041062 -0.000000
       6    0.000000 -0.000000 -0.000000 -0.000000 -0.000000  0.041062
-------------------------------------------------------------------------------

  Mechanical properties :

-------------------------------------------------------------------------------
  Convention :                    Reuss         Voigt         Hill
-------------------------------------------------------------------------------
  Bulk  Modulus (GPa)     =      43.82493      43.82493      43.82493
  Shear Modulus (GPa)     =      26.08758      26.29496      26.19127
-------------------------------------------------------------------------------
  Velocity S-wave (km/s)  =       3.34035       3.35360       3.34698
  Velocity P-wave (km/s)  =       5.79842       5.80861       5.80351
-------------------------------------------------------------------------------
  Compressibility (1/GPa) =    0.02281806
-------------------------------------------------------------------------------
  Stress axis :                     x             y             z
-------------------------------------------------------------------------------
  Youngs Moduli (GPa)     =      71.69479      71.69479      71.69479
-------------------------------------------------------------------------------
  Poissons Ratio (x)      =                     0.22734       0.22734
  Poissons Ratio (y)      =       0.22734                     0.22734
  Poissons Ratio (z)      =       0.22734       0.22734
-------------------------------------------------------------------------------


  Piezoelectric Strain Matrix: (Units=C/m**2)

-------------------------------------------------------------------------------
  Indices      1         2         3         4         5         6    
-------------------------------------------------------------------------------
       x    -0.00000  -0.00000  -0.00000  -0.00000   0.00000  -0.00000
       y     0.00000  -0.00000   0.00000   0.00000  -0.00000   0.00000
       z    -0.00000  -0.00000   0.00000  -0.00000   0.00000  -0.00000
-------------------------------------------------------------------------------


  Piezoelectric Stress Matrix: (Units=10**-11 C/N)

-------------------------------------------------------------------------------
  Indices      1         2         3         4         5         6    
-------------------------------------------------------------------------------
       x     0.00000  -0.00000  -0.00000  -0.00000   0.00000  -0.00000
       y     0.00000  -0.00000   0.00000   0.00000  -0.00000   0.00000
       z    -0.00000  -0.00000   0.00000  -0.00000   0.00000  -0.00000
-------------------------------------------------------------------------------


  Static dielectric constant tensor : 

-------------------------------------------------------------------------------
              x         y         z
-------------------------------------------------------------------------------
       x    11.08357   0.00000   0.00000
       y     0.00000  11.08357   0.00000
       z     0.00000   0.00000  11.08357
--------------------------------------------------------------------------------

  High frequency dielectric constant tensor : 

-------------------------------------------------------------------------------
              x         y         z
-------------------------------------------------------------------------------
       x     1.50771   0.00000   0.00000
       y     0.00000   1.50771   0.00000
       z     0.00000   0.00000   1.50771
-------------------------------------------------------------------------------

  Static refractive indices : 

-------------------------------------------------------------------------------
    1 =    3.32920      2 =    3.32920      3 =    3.32920
-------------------------------------------------------------------------------

  High frequency refractive indices : 

-------------------------------------------------------------------------------
    1 =    1.22789      2 =    1.22789      3 =    1.22789
-------------------------------------------------------------------------------


  Time to end of optimisation =       0.0135 seconds

********************************************************************************
*  Defect calculation for configuration   1 :                                  *
********************************************************************************

  Total number of defects =      3

  Total charge on defect  =  -1.00

  Defect centre is at   0.5000   0.2500   0.2500  Frac

  Region 1 radius =  12.0000      Number of ions =    593

  Number of symmetry inequivalent region 1 ions  =    340

  Region 2 radius =  16.0000      Number of ions =    832

  Number of symmetry inequivalent region 2a ions =    454

  Region 2a mode = 4 : screened electrostatics due to region 1 
                       neglect correction to region 1 forces from 2a
                       region 2a displacements based on defects only

  Region 2a ions will only interact with defects in region 1

  Vacancies:

--------------------------------------------------------------------------------
    Specification type     Symbol/Number         x          y          z
--------------------------------------------------------------------------------
    Fractional                               0.500000   0.500000   0.000000
    Fractional                               0.500000   0.000000   0.500000
--------------------------------------------------------------------------------

  Interstitials:

--------------------------------------------------------------------------------
    Specification type     Symbol/Number         x          y          z
--------------------------------------------------------------------------------
    Atom/Fractional         Na               0.500000   0.000000   0.500000
--------------------------------------------------------------------------------


  Symmetry reduced region 1 (Relative to defect centre) :

--------------------------------------------------------------------------------
   No.   Atomic       x            y             z       Radius  Multiplicity   
         Label      (Angs)       (Angs)        (Angs)    (Angs)     
--------------------------------------------------------------------------------
     1  O     c      0.0000       1.1015 *     1.1015 *  0.0000     1          
     2  Na    c      0.0000      -1.1015       1.1015    0.0000     1          
     3  Cl    c      2.2030 *    -1.1015 *    -1.1015 *  0.0000     2          
     4  Na    c      2.2030 *     1.1015 *     1.1015 *  0.0000     2          
     5  O     c      0.0000       1.1015 *    -3.3044 *  0.0000     1          
     6  O     c      0.0000      -3.3044 *     1.1015 *  0.0000     1          
     7  Na    c      0.0000       1.1015 *     3.3044 *  0.0000     1          
     8  Na    c      0.0000      -3.3044 *    -1.1015 *  0.0000     1          
     9  Na    c      0.0000      -1.1015 *    -3.3044 *  0.0000     1          
    10  Na    c      0.0000       3.3044 *     1.1015 *  0.0000     1          
    11  Cl    c      2.2030 *    -1.1015 *     3.3044 *  0.0000     2          
    12  Na    c      2.2030 *     1.1015 *    -3.3044 *  0.0000     2          
    13  Cl    c      2.2030 *     3.3044 *    -1.1015 *  0.0000     2          
    14  Na    c      2.2030 *    -3.3044 *     1.1015 *  0.0000     2          
    15  O     c      0.0000      -3.3044 *    -3.3044 *  0.0000     1          
    16  Na    c      0.0000      -3.3044 *     3.3044 *  0.0000     1          
    17  Na    c      0.0000       3.3044 *    -3.3044 *  0.0000     1          
    18  O     c      4.4059 *     1.1015 *     1.1015 *  0.0000     2          
    19  Na    c      4.4059 *     1.1015 *    -1.1015 *  0.0000     2          
    20  Na    c      4.4059 *    -1.1015 *     1.1015 *  0.0000     2          
    21  Cl    c      2.2030 *     3.3044 *     3.3044 *  0.0000     2          
    22  Na    c      2.2030 *    -3.3044 *    -3.3044 *  0.0000     2          
    23  O     c      0.0000       1.1015 *     5.5074 *  0.0000     1          
    24  O     c      0.0000       5.5074 *     1.1015 *  0.0000     1          
    25  O     c      4.4059 *     1.1015 *    -3.3044 *  0.0000     2          
    26  Na    c      0.0000       1.1015 *    -5.5074 *  0.0000     1          
    27  Na    c      0.0000       5.5074 *    -1.1015 *  0.0000     1          
    28  Na    c      4.4059 *     1.1015 *     3.3044 *  0.0000     2          
    29  Na    c      0.0000      -1.1015 *     5.5074 *  0.0000     1          
    30  Na    c      0.0000      -5.5074 *     1.1015 *  0.0000     1          
    31  Na    c      4.4059 *    -1.1015 *    -3.3044 *  0.0000     2          
    32  O     c      4.4059 *    -3.3044 *     1.1015 *  0.0000     2          
    33  Na    c      4.4059 *    -3.3044 *    -1.1015 *  0.0000     2          
    34  Na    c      4.4059 *     3.3044 *     1.1015 *  0.0000     2          
    35  Cl    c      2.2030 *    -1.1015 *    -5.5074 *  0.0000     2          
    36  Cl    c      2.2030 *    -5.5074 *    -1.1015 *  0.0000     2          
    37  Na    c      2.2030 *     1.1015 *     5.5074 *  0.0000     2          
    38  Na    c      2.2030 *     5.5074 *     1.1015 *  0.0000     2          
    39  O     c      0.0000       5.5074 *    -3.3044 *  0.0000     1          
    40  O     c      0.0000      -3.3044 *     5.5074 *  0.0000     1          
    41  Na    c      0.0000       5.5074 *     3.3044 *  0.0000     1          
    42  Na    c      0.0000      -3.3044 *    -5.5074 *  0.0000     1          
    43  Na    c      0.0000       3.3044 *     5.5074 *  0.0000     1          
    44  Na    c      0.0000      -5.5074 *    -3.3044 *  0.0000     1          
    45  O     c      4.4059 *    -3.3044 *    -3.3044 *  0.0000     2          
    46  Na    c      4.4059 *    -3.3044 *     3.3044 *  0.0000     2          
    47  Na    c      4.4059 *     3.3044 *    -3.3044 *  0.0000     2          
    48  Cl    c      6.6089 *    -1.1015 *    -1.1015 *  0.0000     2          
    49  Na    c      6.6089 *     1.1015 *     1.1015 *  0.0000     2          
    50  Cl    c      2.2030 *     3.3044 *    -5.5074 *  0.0000     2          
    51  Cl    c      2.2030 *    -5.5074 *     3.3044 *  0.0000     2          
    52  Na    c      2.2030 *     5.5074 *    -3.3044 *  0.0000     2          
    53  Na    c      2.2030 *    -3.3044 *     5.5074 *  0.0000     2          
    54  O     c      4.4059 *     1.1015 *     5.5074 *  0.0000     2          
    55  O     c      4.4059 *     5.5074 *     1.1015 *  0.0000     2          
    56  Na    c      4.4059 *     1.1015 *    -5.5074 *  0.0000     2          
    57  Na    c      4.4059 *     5.5074 *    -1.1015 *  0.0000     2          
    58  Na    c      4.4059 *    -1.1015 *     5.5074 *  0.0000     2          
    59  Na    c      4.4059 *    -5.5074 *     1.1015 *  0.0000     2          
    60  Cl    c      6.6089 *    -1.1015 *     3.3044 *  0.0000     2          
    61  Cl    c      6.6089 *     3.3044 *    -1.1015 *  0.0000     2          
    62  Na    c      6.6089 *     1.1015 *    -3.3044 *  0.0000     2          
    63  Na    c      6.6089 *    -3.3044 *     1.1015 *  0.0000     2          
    64  O     c      0.0000       1.1015 *    -7.7103 *  0.0000     1          
    65  O     c      0.0000       5.5074 *     5.5074 *  0.0000     1          
    66  O     c      0.0000      -7.7103 *     1.1015 *  0.0000     1          
    67  Na    c      0.0000       1.1015 *     7.7103 *  0.0000     1          
    68  Na    c      0.0000       5.5074 *    -5.5074 *  0.0000     1          
    69  Na    c      0.0000      -7.7103 *    -1.1015 *  0.0000     1          
    70  Na    c      0.0000      -1.1015 *    -7.7103 *  0.0000     1          
    71  Na    c      0.0000       7.7103 *     1.1015 *  0.0000     1          
    72  Na    c      0.0000      -5.5074 *     5.5074 *  0.0000     1          
    73  O     c      4.4059 *     5.5074 *    -3.3044 *  0.0000     2          
    74  O     c      4.4059 *    -3.3044 *     5.5074 *  0.0000     2          
    75  Na    c      4.4059 *     5.5074 *     3.3044 *  0.0000     2          
    76  Na    c      4.4059 *    -3.3044 *    -5.5074 *  0.0000     2          
    77  Na    c      4.4059 *     3.3044 *     5.5074 *  0.0000     2          
    78  Na    c      4.4059 *    -5.5074 *    -3.3044 *  0.0000     2          
    79  Cl    c      2.2030 *    -1.1015 *     7.7103 *  0.0000     2          
    80  Cl    c      2.2030 *    -5.5074 *    -5.5074 *  0.0000     2          
    81  Cl    c      6.6089 *     3.3044 *     3.3044 *  0.0000     2          
    82  Na    c      2.2030 *     1.1015 *    -7.7103 *  0.0000     2          
    83  Na    c      2.2030 *     5.5074 *     5.5074 *  0.0000     2          
    84  Na    c      6.6089 *    -3.3044 *    -3.3044 *  0.0000     2          
    85  Cl    c      2.2030 *     7.7103 *    -1.1015 *  0.0000     2          
    86  Na    c      2.2030 *    -7.7103 *     1.1015 *  0.0000     2          
    87  O     c      0.0000      -3.3044 *    -7.7103 *  0.0000     1          
    88  O     c      0.0000      -7.7103 *    -3.3044 *  0.0000     1          
    89  Na    c      0.0000      -3.3044 *     7.7103 *  0.0000     1          
    90  Na    c      0.0000      -7.7103 *     3.3044 *  0.0000     1          
    91  Na    c      0.0000       3.3044 *    -7.7103 *  0.0000     1          
    92  Na    c      0.0000       7.7103 *    -3.3044 *  0.0000     1          
    93  Cl    c      2.2030 *     3.3044 *     7.7103 *  0.0000     2          
    94  Cl    c      6.6089 *    -1.1015 *    -5.5074 *  0.0000     2          
    95  Na    c      2.2030 *    -3.3044 *    -7.7103 *  0.0000     2          
    96  Na    c      6.6089 *     1.1015 *     5.5074 *  0.0000     2          
    97  Cl    c      2.2030 *     7.7103 *     3.3044 *  0.0000     2          
    98  Cl    c      6.6089 *    -5.5074 *    -1.1015 *  0.0000     2          
    99  Na    c      2.2030 *    -7.7103 *    -3.3044 *  0.0000     2          
   100  Na    c      6.6089 *     5.5074 *     1.1015 *  0.0000     2          
   101  O     c      4.4059 *     1.1015 *    -7.7103 *  0.0000     2          
   102  O     c      4.4059 *     5.5074 *     5.5074 *  0.0000     2          
   103  Na    c      4.4059 *     1.1015 *     7.7103 *  0.0000     2          
   104  Na    c      4.4059 *     5.5074 *    -5.5074 *  0.0000     2          
   105  Na    c      4.4059 *    -1.1015 *    -7.7103 *  0.0000     2          
   106  Na    c      4.4059 *    -5.5074 *     5.5074 *  0.0000     2          
   107  O     c      4.4059 *    -7.7103 *     1.1015 *  0.0000     2          
   108  O     c      8.8118 *     1.1015 *     1.1015 *  0.0000     2          
   109  Na    c      4.4059 *    -7.7103 *    -1.1015 *  0.0000     2          
   110  Na    c      8.8118 *     1.1015 *    -1.1015 *  0.0000     2          
   111  Na    c      4.4059 *     7.7103 *     1.1015 *  0.0000     2          
   112  Na    c      8.8118 *    -1.1015 *     1.1015 *  0.0000     2          
   113  Cl    c      6.6089 *     3.3044 *    -5.5074 *  0.0000     2          
   114  Cl    c      6.6089 *    -5.5074 *     3.3044 *  0.0000     2          
   115  Na    c      6.6089 *     5.5074 *    -3.3044 *  0.0000     2          
   116  Na    c      6.6089 *    -3.3044 *     5.5074 *  0.0000     2          
   117  O     c      0.0000       5.5074 *    -7.7103 *  0.0000     1          
   118  O     c      0.0000      -7.7103 *     5.5074 *  0.0000     1          
   119  O     c      4.4059 *    -3.3044 *    -7.7103 *  0.0000     2          
   120  Na    c      0.0000       5.5074 *     7.7103 *  0.0000     1          
   121  Na    c      0.0000      -7.7103 *    -5.5074 *  0.0000     1          
   122  Na    c      4.4059 *    -3.3044 *     7.7103 *  0.0000     2          
   123  Na    c      0.0000       7.7103 *     5.5074 *  0.0000     1          
   124  Na    c      0.0000      -5.5074 *    -7.7103 *  0.0000     1          
   125  Na    c      4.4059 *     3.3044 *    -7.7103 *  0.0000     2          
   126  O     c      4.4059 *    -7.7103 *    -3.3044 *  0.0000     2          
   127  O     c      8.8118 *     1.1015 *    -3.3044 *  0.0000     2          
   128  O     c      8.8118 *    -3.3044 *     1.1015 *  0.0000     2          
   129  Na    c      4.4059 *    -7.7103 *     3.3044 *  0.0000     2          
   130  Na    c      8.8118 *     1.1015 *     3.3044 *  0.0000     2          
   131  Na    c      8.8118 *    -3.3044 *    -1.1015 *  0.0000     2          
   132  Na    c      4.4059 *     7.7103 *    -3.3044 *  0.0000     2          
   133  Na    c      8.8118 *    -1.1015 *    -3.3044 *  0.0000     2          
   134  Na    c      8.8118 *     3.3044 *     1.1015 *  0.0000     2          
   135  Cl    c      2.2030 *     7.7103 *    -5.5074 *  0.0000     2          
   136  Cl    c      2.2030 *    -5.5074 *     7.7103 *  0.0000     2          
   137  Na    c      2.2030 *     5.5074 *    -7.7103 *  0.0000     2          
   138  Na    c      2.2030 *    -7.7103 *     5.5074 *  0.0000     2          
   139  O     c      0.0000       1.1015 *     9.9133 *  0.0000     1          
   140  O     c      0.0000       9.9133 *     1.1015 *  0.0000     1          
   141  O     c      8.8118 *    -3.3044 *    -3.3044 *  0.0000     2          
   142  Na    c      0.0000       1.1015 *    -9.9133 *  0.0000     1          
   143  Na    c      0.0000       9.9133 *    -1.1015 *  0.0000     1          
   144  Na    c      8.8118 *    -3.3044 *     3.3044 *  0.0000     2          
   145  Na    c      0.0000      -1.1015 *     9.9133 *  0.0000     1          
   146  Na    c      0.0000      -9.9133 *     1.1015 *  0.0000     1          
   147  Na    c      8.8118 *     3.3044 *    -3.3044 *  0.0000     2          
   148  Cl    c      2.2030 *    -1.1015 *    -9.9133 *  0.0000     2          
   149  Cl    c      6.6089 *    -1.1015 *     7.7103 *  0.0000     2          
   150  Cl    c      6.6089 *     7.7103 *    -1.1015 *  0.0000     2          
   151  Cl    c      6.6089 *    -5.5074 *    -5.5074 *  0.0000     2          
   152  Na    c      2.2030 *     1.1015 *     9.9133 *  0.0000     2          
   153  Na    c      6.6089 *     1.1015 *    -7.7103 *  0.0000     2          
   154  Na    c      6.6089 *     5.5074 *     5.5074 *  0.0000     2          
   155  Na    c      6.6089 *    -7.7103 *     1.1015 *  0.0000     2          
   156  Cl    c      2.2030 *    -9.9133 *    -1.1015 *  0.0000     2          
   157  Na    c      2.2030 *     9.9133 *     1.1015 *  0.0000     2          
   158  O     c      0.0000       9.9133 *    -3.3044 *  0.0000     1          
   159  O     c      0.0000      -3.3044 *     9.9133 *  0.0000     1          
   160  O     c      4.4059 *     5.5074 *    -7.7103 *  0.0000     2          
   161  O     c      4.4059 *    -7.7103 *     5.5074 *  0.0000     2          
   162  O     c      8.8118 *     1.1015 *     5.5074 *  0.0000     2          
   163  O     c      8.8118 *     5.5074 *     1.1015 *  0.0000     2          
   164  Na    c      0.0000       9.9133 *     3.3044 *  0.0000     1          
   165  Na    c      0.0000      -3.3044 *    -9.9133 *  0.0000     1          
   166  Na    c      4.4059 *     5.5074 *     7.7103 *  0.0000     2          
   167  Na    c      4.4059 *    -7.7103 *    -5.5074 *  0.0000     2          
   168  Na    c      8.8118 *     1.1015 *    -5.5074 *  0.0000     2          
   169  Na    c      8.8118 *     5.5074 *    -1.1015 *  0.0000     2          
   170  Na    c      0.0000       3.3044 *     9.9133 *  0.0000     1          
   171  Na    c      0.0000      -9.9133 *    -3.3044 *  0.0000     1          
   172  Na    c      4.4059 *     7.7103 *     5.5074 *  0.0000     2          
   173  Na    c      4.4059 *    -5.5074 *    -7.7103 *  0.0000     2          
   174  Na    c      8.8118 *    -1.1015 *     5.5074 *  0.0000     2          
   175  Na    c      8.8118 *    -5.5074 *     1.1015 *  0.0000     2          
   176  Cl    c      6.6089 *     7.7103 *     3.3044 *  0.0000     2          
   177  Na    c      6.6089 *    -7.7103 *    -3.3044 *  0.0000     2          
   178  Cl    c      2.2030 *     3.3044 *    -9.9133 *  0.0000     2          
   179  Cl    c      2.2030 *    -9.9133 *     3.3044 *  0.0000     2          
   180  Cl    c      6.6089 *     3.3044 *     7.7103 *  0.0000     2          
   181  Na    c      2.2030 *     9.9133 *    -3.3044 *  0.0000     2          
   182  Na    c      2.2030 *    -3.3044 *     9.9133 *  0.0000     2          
   183  Na    c      6.6089 *    -3.3044 *    -7.7103 *  0.0000     2          
   184  O     c      0.0000      -7.7103 *    -7.7103 *  0.0000     1          
   185  O     c      4.4059 *     1.1015 *     9.9133 *  0.0000     2          
   186  O     c      4.4059 *     9.9133 *     1.1015 *  0.0000     2          
   187  O     c      8.8118 *     5.5074 *    -3.3044 *  0.0000     2          
   188  O     c      8.8118 *    -3.3044 *     5.5074 *  0.0000     2          
   189  Na    c      0.0000      -7.7103 *     7.7103 *  0.0000     1          
   190  Na    c      4.4059 *     1.1015 *    -9.9133 *  0.0000     2          
   191  Na    c      4.4059 *     9.9133 *    -1.1015 *  0.0000     2          
   192  Na    c      8.8118 *     5.5074 *     3.3044 *  0.0000     2          
   193  Na    c      8.8118 *    -3.3044 *    -5.5074 *  0.0000     2          
   194  Na    c      0.0000       7.7103 *    -7.7103 *  0.0000     1          
   195  Na    c      4.4059 *    -1.1015 *     9.9133 *  0.0000     2          
   196  Na    c      4.4059 *    -9.9133 *     1.1015 *  0.0000     2          
   197  Na    c      8.8118 *     3.3044 *     5.5074 *  0.0000     2          
   198  Na    c      8.8118 *    -5.5074 *    -3.3044 *  0.0000     2          
   199  Cl    c      2.2030 *     7.7103 *     7.7103 *  0.0000     2          
   200  Cl    c     11.0148 *    -1.1015 *    -1.1015 *  0.0000     2          
   201  Na    c      2.2030 *    -7.7103 *    -7.7103 *  0.0000     2          
   202  Na    c     11.0148 *     1.1015 *     1.1015 *  0.0000     2          
   203  O     c      4.4059 *     9.9133 *    -3.3044 *  0.0000     2          
   204  Na    c      4.4059 *     9.9133 *     3.3044 *  0.0000     2          
   205  Na    c      4.4059 *    -9.9133 *    -3.3044 *  0.0000     2          
   206  O     c      0.0000       5.5074 *     9.9133 *  0.0000     1          
   207  O     c      0.0000       9.9133 *     5.5074 *  0.0000     1          
   208  O     c      4.4059 *    -3.3044 *     9.9133 *  0.0000     2          
   209  Na    c      0.0000       5.5074 *    -9.9133 *  0.0000     1          
   210  Na    c      0.0000       9.9133 *    -5.5074 *  0.0000     1          
   211  Na    c      4.4059 *    -3.3044 *    -9.9133 *  0.0000     2          
   212  Na    c      0.0000      -5.5074 *     9.9133 *  0.0000     1          
   213  Na    c      0.0000      -9.9133 *     5.5074 *  0.0000     1          
   214  Na    c      4.4059 *     3.3044 *     9.9133 *  0.0000     2          
   215  Cl    c      2.2030 *    -5.5074 *    -9.9133 *  0.0000     2          
   216  Cl    c      2.2030 *    -9.9133 *    -5.5074 *  0.0000     2          
   217  Cl    c      6.6089 *     7.7103 *    -5.5074 *  0.0000     2          
   218  Cl    c      6.6089 *    -5.5074 *     7.7103 *  0.0000     2          
   219  Cl    c     11.0148 *    -1.1015 *     3.3044 *  0.0000     2          
   220  Cl    c     11.0148 *     3.3044 *    -1.1015 *  0.0000     2          
   221  Na    c      2.2030 *     5.5074 *     9.9133 *  0.0000     2          
   222  Na    c      2.2030 *     9.9133 *     5.5074 *  0.0000     2          
   223  Na    c      6.6089 *     5.5074 *    -7.7103 *  0.0000     2          
   224  Na    c      6.6089 *    -7.7103 *     5.5074 *  0.0000     2          
   225  Na    c     11.0148 *     1.1015 *    -3.3044 *  0.0000     2          
   226  Na    c     11.0148 *    -3.3044 *     1.1015 *  0.0000     2          
   227  O     c      4.4059 *    -7.7103 *    -7.7103 *  0.0000     2          
   228  O     c      8.8118 *     1.1015 *    -7.7103 *  0.0000     2          
   229  O     c      8.8118 *     5.5074 *     5.5074 *  0.0000     2          
   230  Na    c      4.4059 *    -7.7103 *     7.7103 *  0.0000     2          
   231  Na    c      8.8118 *     1.1015 *     7.7103 *  0.0000     2          
   232  Na    c      8.8118 *     5.5074 *    -5.5074 *  0.0000     2          
   233  Na    c      4.4059 *     7.7103 *    -7.7103 *  0.0000     2          
   234  Na    c      8.8118 *    -1.1015 *    -7.7103 *  0.0000     2          
   235  Na    c      8.8118 *    -5.5074 *     5.5074 *  0.0000     2          
   236  O     c      8.8118 *    -7.7103 *     1.1015 *  0.0000     2          
   237  Na    c      8.8118 *    -7.7103 *    -1.1015 *  0.0000     2          
   238  Na    c      8.8118 *     7.7103 *     1.1015 *  0.0000     2          
   239  Cl    c     11.0148 *     3.3044 *     3.3044 *  0.0000     2          
   240  Na    c     11.0148 *    -3.3044 *    -3.3044 *  0.0000     2          
   241  Cl    c      6.6089 *    -1.1015 *    -9.9133 *  0.0000     2          
   242  Cl    c      6.6089 *    -9.9133 *    -1.1015 *  0.0000     2          
   243  Na    c      6.6089 *     1.1015 *     9.9133 *  0.0000     2          
   244  Na    c      6.6089 *     9.9133 *     1.1015 *  0.0000     2          
   245  O     s      0.0000       1.1015 *     1.1015 *  0.0000     1          
   246  Cl    s      2.2030 *    -1.1015 *    -1.1015 *  0.0000     2          
   247  O     s      0.0000       1.1015 *    -3.3044 *  0.0000     1          
   248  O     s      0.0000      -3.3044 *     1.1015 *  0.0000     1          
   249  Cl    s      2.2030 *    -1.1015 *     3.3044 *  0.0000     2          
   250  Cl    s      2.2030 *     3.3044 *    -1.1015 *  0.0000     2          
   251  O     s      0.0000      -3.3044 *    -3.3044 *  0.0000     1          
   252  O     s      4.4059 *     1.1015 *     1.1015 *  0.0000     2          
   253  Cl    s      2.2030 *     3.3044 *     3.3044 *  0.0000     2          
   254  O     s      0.0000       1.1015 *     5.5074 *  0.0000     1          
   255  O     s      0.0000       5.5074 *     1.1015 *  0.0000     1          
   256  O     s      4.4059 *     1.1015 *    -3.3044 *  0.0000     2          
   257  O     s      4.4059 *    -3.3044 *     1.1015 *  0.0000     2          
   258  Cl    s      2.2030 *    -1.1015 *    -5.5074 *  0.0000     2          
   259  Cl    s      2.2030 *    -5.5074 *    -1.1015 *  0.0000     2          
   260  O     s      0.0000       5.5074 *    -3.3044 *  0.0000     1          
   261  O     s      0.0000      -3.3044 *     5.5074 *  0.0000     1          
   262  O     s      4.4059 *    -3.3044 *    -3.3044 *  0.0000     2          
   263  Cl    s      6.6089 *    -1.1015 *    -1.1015 *  0.0000     2          
   264  Cl    s      2.2030 *     3.3044 *    -5.5074 *  0.0000     2          
   265  Cl    s      2.2030 *    -5.5074 *     3.3044 *  0.0000     2          
   266  O     s      4.4059 *     1.1015 *     5.5074 *  0.0000     2          
   267  O     s      4.4059 *     5.5074 *     1.1015 *  0.0000     2          
   268  Cl    s      6.6089 *    -1.1015 *     3.3044 *  0.0000     2          
   269  Cl    s      6.6089 *     3.3044 *    -1.1015 *  0.0000     2          
   270  O     s      0.0000       1.1015 *    -7.7103 *  0.0000     1          
   271  O     s      0.0000       5.5074 *     5.5074 *  0.0000     1          
   272  O     s      0.0000      -7.7103 *     1.1015 *  0.0000     1          
   273  O     s      4.4059 *     5.5074 *    -3.3044 *  0.0000     2          
   274  O     s      4.4059 *    -3.3044 *     5.5074 *  0.0000     2          
   275  Cl    s      2.2030 *    -1.1015 *     7.7103 *  0.0000     2          
   276  Cl    s      2.2030 *    -5.5074 *    -5.5074 *  0.0000     2          
   277  Cl    s      6.6089 *     3.3044 *     3.3044 *  0.0000     2          
   278  Cl    s      2.2030 *     7.7103 *    -1.1015 *  0.0000     2          
   279  O     s      0.0000      -3.3044 *    -7.7103 *  0.0000     1          
   280  O     s      0.0000      -7.7103 *    -3.3044 *  0.0000     1          
   281  Cl    s      2.2030 *     3.3044 *     7.7103 *  0.0000     2          
   282  Cl    s      6.6089 *    -1.1015 *    -5.5074 *  0.0000     2          
   283  Cl    s      2.2030 *     7.7103 *     3.3044 *  0.0000     2          
   284  Cl    s      6.6089 *    -5.5074 *    -1.1015 *  0.0000     2          
   285  O     s      4.4059 *     1.1015 *    -7.7103 *  0.0000     2          
   286  O     s      4.4059 *     5.5074 *     5.5074 *  0.0000     2          
   287  O     s      4.4059 *    -7.7103 *     1.1015 *  0.0000     2          
   288  O     s      8.8118 *     1.1015 *     1.1015 *  0.0000     2          
   289  Cl    s      6.6089 *     3.3044 *    -5.5074 *  0.0000     2          
   290  Cl    s      6.6089 *    -5.5074 *     3.3044 *  0.0000     2          
   291  O     s      0.0000       5.5074 *    -7.7103 *  0.0000     1          
   292  O     s      0.0000      -7.7103 *     5.5074 *  0.0000     1          
   293  O     s      4.4059 *    -3.3044 *    -7.7103 *  0.0000     2          
   294  O     s      4.4059 *    -7.7103 *    -3.3044 *  0.0000     2          
   295  O     s      8.8118 *     1.1015 *    -3.3044 *  0.0000     2          
   296  O     s      8.8118 *    -3.3044 *     1.1015 *  0.0000     2          
   297  Cl    s      2.2030 *     7.7103 *    -5.5074 *  0.0000     2          
   298  Cl    s      2.2030 *    -5.5074 *     7.7103 *  0.0000     2          
   299  O     s      0.0000       1.1015 *     9.9133 *  0.0000     1          
   300  O     s      0.0000       9.9133 *     1.1015 *  0.0000     1          
   301  O     s      8.8118 *    -3.3044 *    -3.3044 *  0.0000     2          
   302  Cl    s      2.2030 *    -1.1015 *    -9.9133 *  0.0000     2          
   303  Cl    s      6.6089 *    -1.1015 *     7.7103 *  0.0000     2          
   304  Cl    s      6.6089 *     7.7103 *    -1.1015 *  0.0000     2          
   305  Cl    s      6.6089 *    -5.5074 *    -5.5074 *  0.0000     2          
   306  Cl    s      2.2030 *    -9.9133 *    -1.1015 *  0.0000     2          
   307  O     s      0.0000       9.9133 *    -3.3044 *  0.0000     1          
   308  O     s      0.0000      -3.3044 *     9.9133 *  0.0000     1          
   309  O     s      4.4059 *     5.5074 *    -7.7103 *  0.0000     2          
   310  O     s      4.4059 *    -7.7103 *     5.5074 *  0.0000     2          
   311  O     s      8.8118 *     1.1015 *     5.5074 *  0.0000     2          
   312  O     s      8.8118 *     5.5074 *     1.1015 *  0.0000     2          
   313  Cl    s      6.6089 *     7.7103 *     3.3044 *  0.0000     2          
   314  Cl    s      2.2030 *     3.3044 *    -9.9133 *  0.0000     2          
   315  Cl    s      2.2030 *    -9.9133 *     3.3044 *  0.0000     2          
   316  Cl    s      6.6089 *     3.3044 *     7.7103 *  0.0000     2          
   317  O     s      0.0000      -7.7103 *    -7.7103 *  0.0000     1          
   318  O     s      4.4059 *     1.1015 *     9.9133 *  0.0000     2          
   319  O     s      4.4059 *     9.9133 *     1.1015 *  0.0000     2          
   320  O     s      8.8118 *     5.5074 *    -3.3044 *  0.0000     2          
   321  O     s      8.8118 *    -3.3044 *     5.5074 *  0.0000     2          
   322  Cl    s      2.2030 *     7.7103 *     7.7103 *  0.0000     2          
   323  Cl    s     11.0148 *    -1.1015 *    -1.1015 *  0.0000     2          
   324  O     s      4.4059 *     9.9133 *    -3.3044 *  0.0000     2          
   325  O     s      0.0000       5.5074 *     9.9133 *  0.0000     1          
   326  O     s      0.0000       9.9133 *     5.5074 *  0.0000     1          
   327  O     s      4.4059 *    -3.3044 *     9.9133 *  0.0000     2          
   328  Cl    s      2.2030 *    -5.5074 *    -9.9133 *  0.0000     2          
   329  Cl    s      2.2030 *    -9.9133 *    -5.5074 *  0.0000     2          
   330  Cl    s      6.6089 *     7.7103 *    -5.5074 *  0.0000     2          
   331  Cl    s      6.6089 *    -5.5074 *     7.7103 *  0.0000     2          
   332  Cl    s     11.0148 *    -1.1015 *     3.3044 *  0.0000     2          
   333  Cl    s     11.0148 *     3.3044 *    -1.1015 *  0.0000     2          
   334  O     s      4.4059 *    -7.7103 *    -7.7103 *  0.0000     2          
   335  O     s      8.8118 *     1.1015 *    -7.7103 *  0.0000     2          
   336  O     s      8.8118 *     5.5074 *     5.5074 *  0.0000     2          
   337  O     s      8.8118 *    -7.7103 *     1.1015 *  0.0000     2          
   338  Cl    s     11.0148 *     3.3044 *     3.3044 *  0.0000     2          
   339  Cl    s      6.6089 *    -1.1015 *    -9.9133 *  0.0000     2          
   340  Cl    s      6.6089 *    -9.9133 *    -1.1015 *  0.0000     2          
--------------------------------------------------------------------------------

  Components of defect energy : 

--------------------------------------------------------------------------------
  Region 1 - region 1                   =      8.58439940 eV
  Region 1 - region 2a (unrelaxed)      =     -0.01262540 eV
  Region 1 - 2a (relaxed - correction)  =     -0.28225859 eV
  Region 1 (Total)                      =      8.28951541 eV
  Region 2a                             =      0.14107602 eV
  Region 2b                             =     -0.41007771 eV
--------------------------------------------------------------------------------
  Total defect energy                   =      8.02051371 eV
--------------------------------------------------------------------------------

  Largest displacement in region 2 =   0.0187 Angstroms


  Number of variables =      931

  Maximum number of calculations  =        1000
  Maximum Hessian update interval =          10
  Maximum step size               =   1.0000000
  Maximum parameter tolerance     =   0.0000100
  Maximum function  tolerance     =   0.0000100
  Maximum gradient  tolerance     =   0.0010000

  Symmetry adapted optimisation

  Symmetry to be used for second derivatives

  Newton-Raphson optimiser to be used

  BFGS hessian update to be used

  Lower half triangular hessian to be used

  Start of defect optimisation :

  Cycle:      0 Defect Energy:   8.020514  Gnorm:     0.019519  CPU:    6.771
