********************************************************************************
*                       GENERAL UTILITY LATTICE PROGRAM                        *
*                                 Julian Gale                                  *
*                       Curtin Institute for Computation                       *
*                    School of Molecular and Life Sciences                     *
*                    Curtin University, Western Australia                      *
********************************************************************************
* Version = 5.2.0 * Last modified =  10th September 2020                       *
********************************************************************************
*  optimise     - perform optimisation run                                     *
*  conp         - constant pressure calculation                                *
*  property     - calculate properties for final geometry                      *
*  defect       - perform defect calculation after bulk run                    *
*  compare      - compare initial and final structures                         *
********************************************************************************

  Job Started  at 17:57.24 11th February   2021                               

  Number of CPUs =     1


  Total number of configurations input =      1

********************************************************************************
*  Input for Configuration =   1                                               *
********************************************************************************

  Formula = O8Cl8Na24                                                   

  Number of irreducible atoms/shells =      56


  Total number atoms/shells =      56

  Dimensionality = 3               :  Bulk   



  Supercell dimensions :  x =   2  y =   2  z =   2

  Cartesian lattice vectors (Angstroms) :

        9.008000    0.000000    0.000000
        0.000000    9.008000    0.000000
        0.000000    0.000000    9.008000

  Cell parameters (Angstroms/Degrees):

  a =       9.0080    alpha =  90.0000
  b =       9.0080    beta  =  90.0000
  c =       9.0080    gamma =  90.0000

  Initial cell volume =         730.945729 Angs**3

  Temperature of configuration =   0.00     K 

  Pressure of configuration =         0.000 GPa 

  Fractional coordinates of asymmetric unit :

--------------------------------------------------------------------------------
   No.  Atomic       x           y          z         Charge      Occupancy
        Label      (Frac)      (Frac)     (Frac)        (e)         (Frac)  
--------------------------------------------------------------------------------
      1 O     c    0.000000    0.000000    0.000000     0.18300    1.000000    
      2 O     c    0.000000 *  0.000000 *  0.500000 *   0.18300    1.000000    
      3 O     c    0.000000 *  0.500000 *  0.000000 *   0.18300    1.000000    
      4 O     c    0.000000 *  0.500000 *  0.500000 *   0.18300    1.000000    
      5 O     c    0.500000 *  0.000000 *  0.000000 *   0.18300    1.000000    
      6 O     c    0.500000 *  0.000000 *  0.500000 *   0.18300    1.000000    
      7 O     c    0.500000 *  0.500000 *  0.000000 *   0.18300    1.000000    
      8 O     c    0.500000 *  0.500000 *  0.500000 *   0.18300    1.000000    
      9 Cl    c    0.250000 *  0.250000 *  0.250000 *   1.48500    1.000000    
     10 Cl    c    0.250000 *  0.250000 *  0.750000 *   1.48500    1.000000    
     11 Cl    c    0.250000 *  0.750000 *  0.250000 *   1.48500    1.000000    
     12 Cl    c    0.250000 *  0.750000 *  0.750000 *   1.48500    1.000000    
     13 Cl    c    0.750000 *  0.250000 *  0.250000 *   1.48500    1.000000    
     14 Cl    c    0.750000 *  0.250000 *  0.750000 *   1.48500    1.000000    
     15 Cl    c    0.750000 *  0.750000 *  0.250000 *   1.48500    1.000000    
     16 Cl    c    0.750000 *  0.750000 *  0.750000 *   1.48500    1.000000    
     17 Na    c    0.250000 *  0.000000 *  0.000000 *   1.00000    1.000000    
     18 Na    c    0.250000 *  0.000000 *  0.500000 *   1.00000    1.000000    
     19 Na    c    0.250000 *  0.500000 *  0.000000 *   1.00000    1.000000    
     20 Na    c    0.250000 *  0.500000 *  0.500000 *   1.00000    1.000000    
     21 Na    c    0.750000 *  0.000000 *  0.000000 *   1.00000    1.000000    
     22 Na    c    0.750000 *  0.000000 *  0.500000 *   1.00000    1.000000    
     23 Na    c    0.750000 *  0.500000 *  0.000000 *   1.00000    1.000000    
     24 Na    c    0.750000 *  0.500000 *  0.500000 *   1.00000    1.000000    
     25 Na    c    0.000000 *  0.250000 *  0.000000 *   1.00000    1.000000    
     26 Na    c    0.000000 *  0.250000 *  0.500000 *   1.00000    1.000000    
     27 Na    c    0.000000 *  0.750000 *  0.000000 *   1.00000    1.000000    
     28 Na    c    0.000000 *  0.750000 *  0.500000 *   1.00000    1.000000    
     29 Na    c    0.500000 *  0.250000 *  0.000000 *   1.00000    1.000000    
     30 Na    c    0.500000 *  0.250000 *  0.500000 *   1.00000    1.000000    
     31 Na    c    0.500000 *  0.750000 *  0.000000 *   1.00000    1.000000    
     32 Na    c    0.500000 *  0.750000 *  0.500000 *   1.00000    1.000000    
     33 Na    c    0.000000 *  0.000000 *  0.250000 *   1.00000    1.000000    
     34 Na    c    0.000000 *  0.000000 *  0.750000 *   1.00000    1.000000    
     35 Na    c    0.000000 *  0.500000 *  0.250000 *   1.00000    1.000000    
     36 Na    c    0.000000 *  0.500000 *  0.750000 *   1.00000    1.000000    
     37 Na    c    0.500000 *  0.000000 *  0.250000 *   1.00000    1.000000    
     38 Na    c    0.500000 *  0.000000 *  0.750000 *   1.00000    1.000000    
     39 Na    c    0.500000 *  0.500000 *  0.250000 *   1.00000    1.000000    
     40 Na    c    0.500000 *  0.500000 *  0.750000 *   1.00000    1.000000    
     41 O     s    0.000000 *  0.000000 *  0.000000 *  -2.18300    1.000000    
     42 O     s    0.000000 *  0.000000 *  0.500000 *  -2.18300    1.000000    
     43 O     s    0.000000 *  0.500000 *  0.000000 *  -2.18300    1.000000    
     44 O     s    0.000000 *  0.500000 *  0.500000 *  -2.18300    1.000000    
     45 O     s    0.500000 *  0.000000 *  0.000000 *  -2.18300    1.000000    
     46 O     s    0.500000 *  0.000000 *  0.500000 *  -2.18300    1.000000    
     47 O     s    0.500000 *  0.500000 *  0.000000 *  -2.18300    1.000000    
     48 O     s    0.500000 *  0.500000 *  0.500000 *  -2.18300    1.000000    
     49 Cl    s    0.250000 *  0.250000 *  0.250000 *  -2.48500    1.000000    
     50 Cl    s    0.250000 *  0.250000 *  0.750000 *  -2.48500    1.000000    
     51 Cl    s    0.250000 *  0.750000 *  0.250000 *  -2.48500    1.000000    
     52 Cl    s    0.250000 *  0.750000 *  0.750000 *  -2.48500    1.000000    
     53 Cl    s    0.750000 *  0.250000 *  0.250000 *  -2.48500    1.000000    
     54 Cl    s    0.750000 *  0.250000 *  0.750000 *  -2.48500    1.000000    
     55 Cl    s    0.750000 *  0.750000 *  0.250000 *  -2.48500    1.000000    
     56 Cl    s    0.750000 *  0.750000 *  0.750000 *  -2.48500    1.000000    
--------------------------------------------------------------------------------



********************************************************************************
*  General input information                                                   *
********************************************************************************

  Species output for all configurations : 

--------------------------------------------------------------------------------
  Species    Type    Atomic    Atomic    Charge       Radii (Angs)     Library
                     Number     Mass       (e)     Cova   Ionic  VDW   Symbol
--------------------------------------------------------------------------------
    Na       Core       11      22.99   1.000000   0.970  0.000  2.300          
    O        Core        8      16.00   0.183000   0.730  0.000  1.360          
    O        Shell       8       0.00  -2.183000   0.730  0.000  1.360          
    Cl       Core       17      35.45   1.485000   0.990  0.000  1.650          
    Cl       Shell      17       0.00  -2.485000   0.990  0.000  1.650          
    Mg       Core       12      24.31   0.415000   1.100  0.000  0.000          
    Mg       Shell      12       0.00   1.585000   1.100  0.000  0.000          
    Ca       Core       20      40.08  -1.135000   0.990  0.000  0.000          
    Ca       Shell      20       0.00   3.135000   0.990  0.000  0.000          
    Sr       Core       38      87.62  -1.251000   1.120  0.000  0.000          
    Sr       Shell      38       0.00   3.251000   1.120  0.000  0.000          
    Ba       Core       56     137.33  -7.203000   1.340  0.000  0.000          
    Ba       Shell      56       0.00   9.203000   1.340  0.000  0.000          
--------------------------------------------------------------------------------


  Lattice summation method               =    Ewald          (3-D)
                                         =    Parry          (2-D)
                                         =    Saunders et al (1-D)
  Accuracy factor for lattice sums       =   12.000


  Analytic derivatives to be used

  Time limit = Infinity

  Maximum range for interatomic potentials =    100000.000000 Angstroms

  General interatomic potentials :

--------------------------------------------------------------------------------
Atom  Types   Potential      Parameter       Value         Units   Cutoffs(Ang)
  1     2                                                            Min /  Max 
--------------------------------------------------------------------------------
O    c O    s Spring (c-s)  Spring k 2       593.71600    eV*Ang^-2 0.000  0.800
                            Spring k 4       0.0000000    eV*Ang^-4 
--------------------------------------------------------------------------------
Cl   c Cl   s Spring (c-s)  Spring k 2       29.380000    eV*Ang^-2 0.000  0.800
                            Spring k 4       0.0000000    eV*Ang^-4 
--------------------------------------------------------------------------------
Mg   c Mg   s Spring (c-s)  Spring k 2       361.60000    eV*Ang^-2 0.000  0.800
                            Spring k 4       0.0000000    eV*Ang^-4 
--------------------------------------------------------------------------------
Ca   c Ca   s Spring (c-s)  Spring k 2       110.20000    eV*Ang^-2 0.000  0.800
                            Spring k 4       0.0000000    eV*Ang^-4 
--------------------------------------------------------------------------------
Sr   c Sr   s Spring (c-s)  Spring k 2       71.700000    eV*Ang^-2 0.000  0.800
                            Spring k 4       0.0000000    eV*Ang^-4 
--------------------------------------------------------------------------------
Ba   c Ba   s Spring (c-s)  Spring k 2       495.20000    eV*Ang^-2 0.000  0.800
                            Spring k 4       0.0000000    eV*Ang^-4 
--------------------------------------------------------------------------------
Na   c Na   c Buckingham    Buckingham A     1788.1900    eV        0.000 12.000
                            Buckingham rho  0.15900000    Ang       
                            Buckingham C     0.0000000    eV*Ang^6  
--------------------------------------------------------------------------------
Na   c O    s Buckingham    Buckingham A     588.38000    eV        0.000 12.000
                            Buckingham rho  0.33800000    Ang       
                            Buckingham C     0.0000000    eV*Ang^6  
--------------------------------------------------------------------------------
Na   c Cl   s Buckingham    Buckingham A     1170.4100    eV        0.000 12.000
                            Buckingham rho  0.31500000    Ang       
                            Buckingham C     0.0000000    eV*Ang^6  
--------------------------------------------------------------------------------
O    s O    s Buckingham    Buckingham A     22764.300    eV        0.000 12.000
                            Buckingham rho  0.14900000    Ang       
                            Buckingham C     13.190000    eV*Ang^6  
--------------------------------------------------------------------------------
O    s Cl   s Buckingham    Buckingham A     8286.9100    eV        0.000 12.000
                            Buckingham rho  0.25900000    Ang       
                            Buckingham C     62.200000    eV*Ang^6  
--------------------------------------------------------------------------------
Cl   s Cl   s Buckingham    Buckingham A     1227.2000    eV        0.000 12.000
                            Buckingham rho  0.32100000    Ang       
                            Buckingham C     14.530000    eV*Ang^6  
--------------------------------------------------------------------------------
O    s Mg   s Buckingham    Buckingham A     1428.5000    eV        0.000 12.000
                            Buckingham rho  0.29450000    Ang       
                            Buckingham C     0.0000000    eV*Ang^6  
--------------------------------------------------------------------------------
Mg   s Cl   s Buckingham    Buckingham A     4914.5400    eV        0.000 12.000
                            Buckingham rho  0.25700000    Ang       
                            Buckingham C     0.0000000    eV*Ang^6  
--------------------------------------------------------------------------------
O    s Ca   s Buckingham    Buckingham A     1090.4000    eV        0.000 12.000
                            Buckingham rho  0.34370000    Ang       
                            Buckingham C     0.0000000    eV*Ang^6  
--------------------------------------------------------------------------------
Cl   s Ca   s Buckingham    Buckingham A     2302.0000    eV        0.000 12.000
                            Buckingham rho  0.34020000    Ang       
                            Buckingham C     0.0000000    eV*Ang^6  
--------------------------------------------------------------------------------
O    s Sr   s Buckingham    Buckingham A     959.10000    eV        0.000 12.000
                            Buckingham rho  0.37210000    Ang       
                            Buckingham C     0.0000000    eV*Ang^6  
--------------------------------------------------------------------------------
Cl   s Sr   s Buckingham    Buckingham A     2191.0900    eV        0.000 12.000
                            Buckingham rho  0.34570000    Ang       
                            Buckingham C     0.0000000    eV*Ang^6  
--------------------------------------------------------------------------------
O    s Ba   s Buckingham    Buckingham A     905.70000    eV        0.000 12.000
                            Buckingham rho  0.39760000    Ang       
                            Buckingham C     0.0000000    eV*Ang^6  
--------------------------------------------------------------------------------
Cl   s Ba   s Buckingham    Buckingham A     2704.5500    eV        0.000 12.000
                            Buckingham rho  0.35280000    Ang       
                            Buckingham C     0.0000000    eV*Ang^6  
--------------------------------------------------------------------------------

********************************************************************************
*  Output for configuration   1                                                *
********************************************************************************


  Components of energy : 

--------------------------------------------------------------------------------
  Interatomic potentials     =          39.54523045 eV    
  Monopole - monopole (real) =        -173.49412932 eV    
  Monopole - monopole (recip)=        -143.08233464 eV    
  Monopole - monopole (total)=        -316.57646396 eV    
--------------------------------------------------------------------------------
  Total lattice energy       =        -277.03123351 eV    
--------------------------------------------------------------------------------
  Total lattice energy       =          -26729.2792 kJ/(mole unit cells)
--------------------------------------------------------------------------------


  Number of variables =      171

  Maximum number of calculations  =          1000
  Maximum Hessian update interval =            10
  Maximum step size               =   1.000000000
  Maximum parameter tolerance     =   0.000010000
  Maximum function  tolerance     =   0.000010000
  Maximum gradient  tolerance     =   0.001000000
  Maximum gradient  component     =   0.010000000

  Cell parameters to be optimised using strains

  Newton-Raphson optimiser to be used

  BFGS hessian update to be used

  Lower half triangular hessian to be used

  Start of bulk optimisation :

  Cycle:      0 Energy:      -277.031234  Gnorm:      0.116908  CPU:    0.032
  ** Hessian calculated **
  Cycle:      1 Energy:      -277.421334  Gnorm:      0.001189  CPU:    0.064
  Cycle:      2 Energy:      -277.421371  Gnorm:      0.000099  CPU:    0.089


  **** Optimisation achieved ****


  Final energy =    -277.42137089 eV
  Final Gnorm  =       0.00000000

  Components of energy : 

--------------------------------------------------------------------------------
  Interatomic potentials     =          46.20368827 eV    
  Monopole - monopole (real) =        -177.35698719 eV    
  Monopole - monopole (recip)=        -146.26807197 eV    
  Monopole - monopole (total)=        -323.62505916 eV    
--------------------------------------------------------------------------------
  Total lattice energy       =        -277.42137089 eV    
--------------------------------------------------------------------------------
  Total lattice energy       =          -26766.9215 kJ/(mole unit cells)
--------------------------------------------------------------------------------

  Final fractional coordinates of atoms :

--------------------------------------------------------------------------------
   No.  Atomic        x           y          z          Radius
        Label       (Frac)      (Frac)     (Frac)       (Angs) 
--------------------------------------------------------------------------------
     1  O     c     0.000000    0.000000    0.000000    0.000000
     2  O     c     0.000000    0.000000    0.500000    0.000000
     3  O     c     1.000000    0.500000    1.000000    0.000000
     4  O     c     0.000000    0.500000    0.500000    0.000000
     5  O     c     0.500000    0.000000    1.000000    0.000000
     6  O     c     0.500000    0.000000    0.500000    0.000000
     7  O     c     0.500000    0.500000    1.000000    0.000000
     8  O     c     0.500000    0.500000    0.500000    0.000000
     9  Cl    c     0.250000    0.250000    0.250000    0.000000
    10  Cl    c     0.250000    0.250000    0.750000    0.000000
    11  Cl    c     0.250000    0.750000    0.250000    0.000000
    12  Cl    c     0.250000    0.750000    0.750000    0.000000
    13  Cl    c     0.750000    0.250000    0.250000    0.000000
    14  Cl    c     0.750000    0.250000    0.750000    0.000000
    15  Cl    c     0.750000    0.750000    0.250000    0.000000
    16  Cl    c     0.750000    0.750000    0.750000    0.000000
    17  Na    c     0.250000    0.000000    1.000000    0.000000
    18  Na    c     0.250000    0.000000    0.500000    0.000000
    19  Na    c     0.250000    0.500000    1.000000    0.000000
    20  Na    c     0.250000    0.500000    0.500000    0.000000
    21  Na    c     0.750000    1.000000    0.000000    0.000000
    22  Na    c     0.750000    1.000000    0.500000    0.000000
    23  Na    c     0.750000    0.500000    0.000000    0.000000
    24  Na    c     0.750000    0.500000    0.500000    0.000000
    25  Na    c     1.000000    0.250000    0.000000    0.000000
    26  Na    c     1.000000    0.250000    0.500000    0.000000
    27  Na    c     0.000000    0.750000    1.000000    0.000000
    28  Na    c     0.000000    0.750000    0.500000    0.000000
    29  Na    c     0.500000    0.250000    1.000000    0.000000
    30  Na    c     0.500000    0.250000    0.500000    0.000000
    31  Na    c     0.500000    0.750000    0.000000    0.000000
    32  Na    c     0.500000    0.750000    0.500000    0.000000
    33  Na    c     0.000000    1.000000    0.250000    0.000000
    34  Na    c     1.000000    0.000000    0.750000    0.000000
    35  Na    c     0.000000    0.500000    0.250000    0.000000
    36  Na    c     1.000000    0.500000    0.750000    0.000000
    37  Na    c     0.500000    0.000000    0.250000    0.000000
    38  Na    c     0.500000    1.000000    0.750000    0.000000
    39  Na    c     0.500000    0.500000    0.250000    0.000000
    40  Na    c     0.500000    0.500000    0.750000    0.000000
    41  O     s     0.000000    0.000000    0.000000    0.000000
    42  O     s     0.000000    0.000000    0.500000    0.000000
    43  O     s     1.000000    0.500000    1.000000    0.000000
    44  O     s     0.000000    0.500000    0.500000    0.000000
    45  O     s     0.500000    0.000000    1.000000    0.000000
    46  O     s     0.500000    0.000000    0.500000    0.000000
    47  O     s     0.500000    0.500000    1.000000    0.000000
    48  O     s     0.500000    0.500000    0.500000    0.000000
    49  Cl    s     0.250000    0.250000    0.250000    0.000000
    50  Cl    s     0.250000    0.250000    0.750000    0.000000
    51  Cl    s     0.250000    0.750000    0.250000    0.000000
    52  Cl    s     0.250000    0.750000    0.750000    0.000000
    53  Cl    s     0.750000    0.250000    0.250000    0.000000
    54  Cl    s     0.750000    0.250000    0.750000    0.000000
    55  Cl    s     0.750000    0.750000    0.250000    0.000000
    56  Cl    s     0.750000    0.750000    0.750000    0.000000
--------------------------------------------------------------------------------

  Final Cartesian lattice vectors (Angstroms) :

        8.811805   -0.000000    0.000000
       -0.000000    8.811805   -0.000000
        0.000000   -0.000000    8.811805


  Final cell parameters and derivatives :

--------------------------------------------------------------------------------
       a            8.811805 Angstrom     dE/de1(xx)     0.000000 eV/strain
       b            8.811805 Angstrom     dE/de2(yy)     0.000000 eV/strain
       c            8.811805 Angstrom     dE/de3(zz)     0.000000 eV/strain
       alpha       90.000000 Degrees      dE/de4(yz)    -0.000000 eV/strain
       beta        90.000000 Degrees      dE/de5(xz)     0.000000 eV/strain
       gamma       90.000000 Degrees      dE/de6(xy)    -0.000000 eV/strain
--------------------------------------------------------------------------------

  Primitive cell volume =           684.218127 Angs**3

  Density of cell =      2.338030 g/cm**3

  Non-primitive cell volume =           684.218127 Angs**3


  Final internal derivatives :

--------------------------------------------------------------------------------
   No.  Atomic          a             b             c           Radius
        Label          (eV)          (eV)          (eV)        (eV/Angs)
--------------------------------------------------------------------------------
      1 O     c       0.000000      0.000000      0.000000      0.000000
      2 O     c       0.000000     -0.000000     -0.000000      0.000000
      3 O     c      -0.000000      0.000000      0.000000      0.000000
      4 O     c       0.000000      0.000000      0.000000      0.000000
      5 O     c       0.000000     -0.000000     -0.000000      0.000000
      6 O     c      -0.000000     -0.000000     -0.000000      0.000000
      7 O     c       0.000000      0.000000     -0.000000      0.000000
      8 O     c      -0.000000      0.000000     -0.000000      0.000000
      9 Cl    c      -0.000000     -0.000000     -0.000000      0.000000
     10 Cl    c      -0.000000     -0.000000      0.000000      0.000000
     11 Cl    c      -0.000000      0.000000      0.000000      0.000000
     12 Cl    c      -0.000000      0.000000     -0.000000      0.000000
     13 Cl    c       0.000000      0.000000      0.000000      0.000000
     14 Cl    c       0.000000     -0.000000     -0.000000      0.000000
     15 Cl    c      -0.000000      0.000000     -0.000000      0.000000
     16 Cl    c      -0.000000      0.000000      0.000000      0.000000
     17 Na    c       0.000000     -0.000000      0.000000      0.000000
     18 Na    c      -0.000000     -0.000000     -0.000000      0.000000
     19 Na    c      -0.000000      0.000000      0.000000      0.000000
     20 Na    c      -0.000000      0.000000     -0.000000      0.000000
     21 Na    c      -0.000000      0.000000     -0.000000      0.000000
     22 Na    c      -0.000000      0.000000     -0.000000      0.000000
     23 Na    c      -0.000000     -0.000000      0.000000      0.000000
     24 Na    c       0.000000     -0.000000     -0.000000      0.000000
     25 Na    c       0.000000     -0.000000     -0.000000      0.000000
     26 Na    c       0.000000     -0.000000     -0.000000      0.000000
     27 Na    c      -0.000000     -0.000000      0.000000      0.000000
     28 Na    c      -0.000000      0.000000     -0.000000      0.000000
     29 Na    c      -0.000000     -0.000000     -0.000000      0.000000
     30 Na    c      -0.000000     -0.000000      0.000000      0.000000
     31 Na    c       0.000000      0.000000     -0.000000      0.000000
     32 Na    c       0.000000      0.000000     -0.000000      0.000000
     33 Na    c      -0.000000     -0.000000      0.000000      0.000000
     34 Na    c      -0.000000      0.000000     -0.000000      0.000000
     35 Na    c       0.000000      0.000000     -0.000000      0.000000
     36 Na    c       0.000000     -0.000000     -0.000000      0.000000
     37 Na    c      -0.000000     -0.000000      0.000000      0.000000
     38 Na    c       0.000000      0.000000     -0.000000      0.000000
     39 Na    c      -0.000000      0.000000      0.000000      0.000000
     40 Na    c      -0.000000     -0.000000     -0.000000      0.000000
     41 O     s      -0.000000      0.000000     -0.000000      0.000000
     42 O     s      -0.000000      0.000000      0.000000      0.000000
     43 O     s       0.000000     -0.000000     -0.000000      0.000000
     44 O     s      -0.000000      0.000000      0.000000      0.000000
     45 O     s       0.000000      0.000000     -0.000000      0.000000
     46 O     s       0.000000     -0.000000      0.000000      0.000000
     47 O     s       0.000000      0.000000     -0.000000      0.000000
     48 O     s       0.000000      0.000000     -0.000000      0.000000
     49 Cl    s       0.000000      0.000000     -0.000000      0.000000
     50 Cl    s      -0.000000     -0.000000     -0.000000      0.000000
     51 Cl    s       0.000000     -0.000000     -0.000000      0.000000
     52 Cl    s       0.000000     -0.000000      0.000000      0.000000
     53 Cl    s      -0.000000      0.000000     -0.000000      0.000000
     54 Cl    s      -0.000000      0.000000      0.000000      0.000000
     55 Cl    s      -0.000000     -0.000000      0.000000      0.000000
     56 Cl    s      -0.000000     -0.000000     -0.000000      0.000000
--------------------------------------------------------------------------------
  Maximum abs         0.000000      0.000000      0.000000      0.000000
--------------------------------------------------------------------------------

  Comparison of initial and final structures : 

--------------------------------------------------------------------------------
  Parameter   Initial value   Final value   Difference    Units      Percent
--------------------------------------------------------------------------------
    Volume       730.945729    684.218127   -46.727602    Angs**3     -6.39
    a              9.008000      8.811805    -0.196195    Angstroms   -2.18
    b              9.008000      8.811805    -0.196195    Angstroms   -2.18
    c              9.008000      8.811805    -0.196195    Angstroms   -2.18
    alpha         90.000000     90.000000     0.000000    Degrees      0.00
    beta          90.000000     90.000000     0.000000    Degrees      0.00
    gamma         90.000000     90.000000     0.000000    Degrees      0.00
      1 x          0.000000      0.000000     0.000000    Fractional   0.00
      1 y          0.000000      0.000000     0.000000    Fractional   0.00
      1 z          0.000000      0.000000     0.000000    Fractional   0.00
      2 x          0.000000      0.000000     0.000000    Fractional   0.00
      2 y          0.000000      0.000000     0.000000    Fractional   0.00
      2 z          0.500000      0.500000     0.000000    Fractional   0.00
      3 x          0.000000      1.000000     1.000000    Fractional   0.00
      3 y          0.500000      0.500000     0.000000    Fractional   0.00
      3 z          0.000000      1.000000     1.000000    Fractional   0.00
      4 x          0.000000      0.000000     0.000000    Fractional   0.00
      4 y          0.500000      0.500000     0.000000    Fractional   0.00
      4 z          0.500000      0.500000     0.000000    Fractional   0.00
      5 x          0.500000      0.500000     0.000000    Fractional   0.00
      5 y          0.000000      0.000000     0.000000    Fractional   0.00
      5 z          0.000000      1.000000     1.000000    Fractional   0.00
      6 x          0.500000      0.500000     0.000000    Fractional   0.00
      6 y          0.000000      0.000000     0.000000    Fractional   0.00
      6 z          0.500000      0.500000     0.000000    Fractional   0.00
      7 x          0.500000      0.500000     0.000000    Fractional   0.00
      7 y          0.500000      0.500000     0.000000    Fractional   0.00
      7 z          0.000000      1.000000     1.000000    Fractional   0.00
      8 x          0.500000      0.500000     0.000000    Fractional   0.00
      8 y          0.500000      0.500000     0.000000    Fractional   0.00
      8 z          0.500000      0.500000     0.000000    Fractional   0.00
      9 x          0.250000      0.250000     0.000000    Fractional   0.00
      9 y          0.250000      0.250000     0.000000    Fractional   0.00
      9 z          0.250000      0.250000     0.000000    Fractional   0.00
     10 x          0.250000      0.250000     0.000000    Fractional   0.00
     10 y          0.250000      0.250000     0.000000    Fractional   0.00
     10 z          0.750000      0.750000     0.000000    Fractional   0.00
     11 x          0.250000      0.250000     0.000000    Fractional   0.00
     11 y          0.750000      0.750000     0.000000    Fractional   0.00
     11 z          0.250000      0.250000     0.000000    Fractional   0.00
     12 x          0.250000      0.250000     0.000000    Fractional   0.00
     12 y          0.750000      0.750000     0.000000    Fractional   0.00
     12 z          0.750000      0.750000     0.000000    Fractional   0.00
     13 x          0.750000      0.750000     0.000000    Fractional   0.00
     13 y          0.250000      0.250000     0.000000    Fractional   0.00
     13 z          0.250000      0.250000     0.000000    Fractional   0.00
     14 x          0.750000      0.750000     0.000000    Fractional   0.00
     14 y          0.250000      0.250000     0.000000    Fractional   0.00
     14 z          0.750000      0.750000     0.000000    Fractional   0.00
     15 x          0.750000      0.750000     0.000000    Fractional   0.00
     15 y          0.750000      0.750000     0.000000    Fractional   0.00
     15 z          0.250000      0.250000     0.000000    Fractional   0.00
     16 x          0.750000      0.750000     0.000000    Fractional   0.00
     16 y          0.750000      0.750000     0.000000    Fractional   0.00
     16 z          0.750000      0.750000     0.000000    Fractional   0.00
     17 x          0.250000      0.250000     0.000000    Fractional   0.00
     17 y          0.000000      0.000000     0.000000    Fractional   0.00
     17 z          0.000000      1.000000     1.000000    Fractional   0.00
     18 x          0.250000      0.250000     0.000000    Fractional   0.00
     18 y          0.000000      0.000000     0.000000    Fractional   0.00
     18 z          0.500000      0.500000     0.000000    Fractional   0.00
     19 x          0.250000      0.250000     0.000000    Fractional   0.00
     19 y          0.500000      0.500000     0.000000    Fractional   0.00
     19 z          0.000000      1.000000     1.000000    Fractional   0.00
     20 x          0.250000      0.250000     0.000000    Fractional   0.00
     20 y          0.500000      0.500000     0.000000    Fractional   0.00
     20 z          0.500000      0.500000     0.000000    Fractional   0.00
     21 x          0.750000      0.750000     0.000000    Fractional   0.00
     21 y          0.000000      1.000000     1.000000    Fractional   0.00
     21 z          0.000000      0.000000     0.000000    Fractional   0.00
     22 x          0.750000      0.750000     0.000000    Fractional   0.00
     22 y          0.000000      1.000000     1.000000    Fractional   0.00
     22 z          0.500000      0.500000     0.000000    Fractional   0.00
     23 x          0.750000      0.750000     0.000000    Fractional   0.00
     23 y          0.500000      0.500000     0.000000    Fractional   0.00
     23 z          0.000000      0.000000     0.000000    Fractional   0.00
     24 x          0.750000      0.750000     0.000000    Fractional   0.00
     24 y          0.500000      0.500000     0.000000    Fractional   0.00
     24 z          0.500000      0.500000     0.000000    Fractional   0.00
     25 x          0.000000      1.000000     1.000000    Fractional   0.00
     25 y          0.250000      0.250000     0.000000    Fractional   0.00
     25 z          0.000000      0.000000     0.000000    Fractional   0.00
     26 x          0.000000      1.000000     1.000000    Fractional   0.00
     26 y          0.250000      0.250000     0.000000    Fractional   0.00
     26 z          0.500000      0.500000     0.000000    Fractional   0.00
     27 x          0.000000      0.000000     0.000000    Fractional   0.00
     27 y          0.750000      0.750000     0.000000    Fractional   0.00
     27 z          0.000000      1.000000     1.000000    Fractional   0.00
     28 x          0.000000      0.000000     0.000000    Fractional   0.00
     28 y          0.750000      0.750000     0.000000    Fractional   0.00
     28 z          0.500000      0.500000     0.000000    Fractional   0.00
     29 x          0.500000      0.500000     0.000000    Fractional   0.00
     29 y          0.250000      0.250000     0.000000    Fractional   0.00
     29 z          0.000000      1.000000     1.000000    Fractional   0.00
     30 x          0.500000      0.500000     0.000000    Fractional   0.00
     30 y          0.250000      0.250000     0.000000    Fractional   0.00
     30 z          0.500000      0.500000     0.000000    Fractional   0.00
     31 x          0.500000      0.500000     0.000000    Fractional   0.00
     31 y          0.750000      0.750000     0.000000    Fractional   0.00
     31 z          0.000000      0.000000     0.000000    Fractional   0.00
     32 x          0.500000      0.500000     0.000000    Fractional   0.00
     32 y          0.750000      0.750000     0.000000    Fractional   0.00
     32 z          0.500000      0.500000     0.000000    Fractional   0.00
     33 x          0.000000      0.000000     0.000000    Fractional   0.00
     33 y          0.000000      1.000000     1.000000    Fractional   0.00
     33 z          0.250000      0.250000     0.000000    Fractional   0.00
     34 x          0.000000      1.000000     1.000000    Fractional   0.00
     34 y          0.000000      0.000000     0.000000    Fractional   0.00
     34 z          0.750000      0.750000     0.000000    Fractional   0.00
     35 x          0.000000      0.000000     0.000000    Fractional   0.00
     35 y          0.500000      0.500000     0.000000    Fractional   0.00
     35 z          0.250000      0.250000     0.000000    Fractional   0.00
     36 x          0.000000      1.000000     1.000000    Fractional   0.00
     36 y          0.500000      0.500000     0.000000    Fractional   0.00
     36 z          0.750000      0.750000     0.000000    Fractional   0.00
     37 x          0.500000      0.500000     0.000000    Fractional   0.00
     37 y          0.000000      0.000000     0.000000    Fractional   0.00
     37 z          0.250000      0.250000     0.000000    Fractional   0.00
     38 x          0.500000      0.500000     0.000000    Fractional   0.00
     38 y          0.000000      1.000000     1.000000    Fractional   0.00
     38 z          0.750000      0.750000     0.000000    Fractional   0.00
     39 x          0.500000      0.500000     0.000000    Fractional   0.00
     39 y          0.500000      0.500000     0.000000    Fractional   0.00
     39 z          0.250000      0.250000     0.000000    Fractional   0.00
     40 x          0.500000      0.500000     0.000000    Fractional   0.00
     40 y          0.500000      0.500000     0.000000    Fractional   0.00
     40 z          0.750000      0.750000     0.000000    Fractional   0.00
     41 x          0.000000      0.000000     0.000000    Fractional   0.00
     41 y          0.000000      0.000000     0.000000    Fractional   0.00
     41 z          0.000000      0.000000     0.000000    Fractional   0.00
     42 x          0.000000      0.000000     0.000000    Fractional   0.00
     42 y          0.000000      0.000000     0.000000    Fractional   0.00
     42 z          0.500000      0.500000     0.000000    Fractional   0.00
     43 x          0.000000      1.000000     1.000000    Fractional   0.00
     43 y          0.500000      0.500000     0.000000    Fractional   0.00
     43 z          0.000000      1.000000     1.000000    Fractional   0.00
     44 x          0.000000      0.000000     0.000000    Fractional   0.00
     44 y          0.500000      0.500000     0.000000    Fractional   0.00
     44 z          0.500000      0.500000     0.000000    Fractional   0.00
     45 x          0.500000      0.500000     0.000000    Fractional   0.00
     45 y          0.000000      0.000000     0.000000    Fractional   0.00
     45 z          0.000000      1.000000     1.000000    Fractional   0.00
     46 x          0.500000      0.500000     0.000000    Fractional   0.00
     46 y          0.000000      0.000000     0.000000    Fractional   0.00
     46 z          0.500000      0.500000     0.000000    Fractional   0.00
     47 x          0.500000      0.500000     0.000000    Fractional   0.00
     47 y          0.500000      0.500000     0.000000    Fractional   0.00
     47 z          0.000000      1.000000     1.000000    Fractional   0.00
     48 x          0.500000      0.500000     0.000000    Fractional   0.00
     48 y          0.500000      0.500000     0.000000    Fractional   0.00
     48 z          0.500000      0.500000     0.000000    Fractional   0.00
     49 x          0.250000      0.250000     0.000000    Fractional   0.00
     49 y          0.250000      0.250000     0.000000    Fractional   0.00
     49 z          0.250000      0.250000     0.000000    Fractional   0.00
     50 x          0.250000      0.250000     0.000000    Fractional   0.00
     50 y          0.250000      0.250000     0.000000    Fractional   0.00
     50 z          0.750000      0.750000     0.000000    Fractional   0.00
     51 x          0.250000      0.250000     0.000000    Fractional   0.00
     51 y          0.750000      0.750000     0.000000    Fractional   0.00
     51 z          0.250000      0.250000     0.000000    Fractional   0.00
     52 x          0.250000      0.250000     0.000000    Fractional   0.00
     52 y          0.750000      0.750000     0.000000    Fractional   0.00
     52 z          0.750000      0.750000     0.000000    Fractional   0.00
     53 x          0.750000      0.750000     0.000000    Fractional   0.00
     53 y          0.250000      0.250000     0.000000    Fractional   0.00
     53 z          0.250000      0.250000     0.000000    Fractional   0.00
     54 x          0.750000      0.750000     0.000000    Fractional   0.00
     54 y          0.250000      0.250000     0.000000    Fractional   0.00
     54 z          0.750000      0.750000     0.000000    Fractional   0.00
     55 x          0.750000      0.750000     0.000000    Fractional   0.00
     55 y          0.750000      0.750000     0.000000    Fractional   0.00
     55 z          0.250000      0.250000     0.000000    Fractional   0.00
     56 x          0.750000      0.750000     0.000000    Fractional   0.00
     56 y          0.750000      0.750000     0.000000    Fractional   0.00
     56 z          0.750000      0.750000     0.000000    Fractional   0.00
--------------------------------------------------------------------------------


  Born effective charge tensors : 

-------------------------------------------------------------------------------
  Atom             x           y             z
-------------------------------------------------------------------------------
    1 O     x      -2.2939      0.0000     -0.0000
            y      -0.0000     -2.2939     -0.0000
            z      -0.0000     -0.0000     -2.2939
-------------------------------------------------------------------------------
    2 O     x      -2.2939      0.0000      0.0000
            y      -0.0000     -2.2939      0.0000
            z       0.0000      0.0000     -2.2939
-------------------------------------------------------------------------------
    3 O     x      -2.2939     -0.0000      0.0000
            y       0.0000     -2.2939      0.0000
            z       0.0000      0.0000     -2.2939
-------------------------------------------------------------------------------
    4 O     x      -2.2939     -0.0000      0.0000
            y       0.0000     -2.2939     -0.0000
            z       0.0000     -0.0000     -2.2939
-------------------------------------------------------------------------------
    5 O     x      -2.2939     -0.0000      0.0000
            y       0.0000     -2.2939     -0.0000
            z       0.0000     -0.0000     -2.2939
-------------------------------------------------------------------------------
    6 O     x      -2.2939     -0.0000      0.0000
            y       0.0000     -2.2939     -0.0000
            z       0.0000      0.0000     -2.2939
-------------------------------------------------------------------------------
    7 O     x      -2.2939      0.0000      0.0000
            y      -0.0000     -2.2939      0.0000
            z       0.0000     -0.0000     -2.2939
-------------------------------------------------------------------------------
    8 O     x      -2.2939      0.0000      0.0000
            y      -0.0000     -2.2939     -0.0000
            z       0.0000     -0.0000     -2.2939
-------------------------------------------------------------------------------
    9 Cl    x      -0.9918      0.0000     -0.0000
            y       0.0000     -0.9918     -0.0000
            z      -0.0000     -0.0000     -0.9918
-------------------------------------------------------------------------------
   10 Cl    x      -0.9918      0.0000      0.0000
            y       0.0000     -0.9918      0.0000
            z       0.0000      0.0000     -0.9918
-------------------------------------------------------------------------------
   11 Cl    x      -0.9918     -0.0000     -0.0000
            y      -0.0000     -0.9918     -0.0000
            z      -0.0000     -0.0000     -0.9918
-------------------------------------------------------------------------------
   12 Cl    x      -0.9918      0.0000      0.0000
            y       0.0000     -0.9918     -0.0000
            z       0.0000     -0.0000     -0.9918
-------------------------------------------------------------------------------
   13 Cl    x      -0.9918      0.0000     -0.0000
            y      -0.0000     -0.9918      0.0000
            z       0.0000      0.0000     -0.9918
-------------------------------------------------------------------------------
   14 Cl    x      -0.9918      0.0000     -0.0000
            y       0.0000     -0.9918      0.0000
            z      -0.0000      0.0000     -0.9918
-------------------------------------------------------------------------------
   15 Cl    x      -0.9918      0.0000     -0.0000
            y       0.0000     -0.9918     -0.0000
            z      -0.0000     -0.0000     -0.9918
-------------------------------------------------------------------------------
   16 Cl    x      -0.9918      0.0000      0.0000
            y       0.0000     -0.9918      0.0000
            z       0.0000      0.0000     -0.9918
-------------------------------------------------------------------------------
   17 Na    x       0.8372     -0.0000      0.0000
            y      -0.0000      1.2243      0.0000
            z       0.0000      0.0000      1.2243
-------------------------------------------------------------------------------
   18 Na    x       0.8372     -0.0000      0.0000
            y      -0.0000      1.2243     -0.0000
            z      -0.0000      0.0000      1.2243
-------------------------------------------------------------------------------
   19 Na    x       0.8372     -0.0000      0.0000
            y      -0.0000      1.2243     -0.0000
            z       0.0000     -0.0000      1.2243
-------------------------------------------------------------------------------
   20 Na    x       0.8372     -0.0000      0.0000
            y      -0.0000      1.2243      0.0000
            z       0.0000      0.0000      1.2243
-------------------------------------------------------------------------------
   21 Na    x       0.8372     -0.0000      0.0000
            y       0.0000      1.2243     -0.0000
            z       0.0000      0.0000      1.2243
-------------------------------------------------------------------------------
   22 Na    x       0.8372      0.0000      0.0000
            y       0.0000      1.2243      0.0000
            z       0.0000      0.0000      1.2243
-------------------------------------------------------------------------------
   23 Na    x       0.8372     -0.0000     -0.0000
            y      -0.0000      1.2243      0.0000
            z      -0.0000     -0.0000      1.2243
-------------------------------------------------------------------------------
   24 Na    x       0.8372     -0.0000      0.0000
            y      -0.0000      1.2243      0.0000
            z       0.0000      0.0000      1.2243
-------------------------------------------------------------------------------
   25 Na    x       1.2243     -0.0000     -0.0000
            y      -0.0000      0.8372     -0.0000
            z      -0.0000     -0.0000      1.2243
-------------------------------------------------------------------------------
   26 Na    x       1.2243     -0.0000     -0.0000
            y      -0.0000      0.8372     -0.0000
            z      -0.0000     -0.0000      1.2243
-------------------------------------------------------------------------------
   27 Na    x       1.2243      0.0000     -0.0000
            y       0.0000      0.8372      0.0000
            z      -0.0000      0.0000      1.2243
-------------------------------------------------------------------------------
   28 Na    x       1.2243      0.0000     -0.0000
            y       0.0000      0.8372     -0.0000
            z      -0.0000     -0.0000      1.2243
-------------------------------------------------------------------------------
   29 Na    x       1.2243      0.0000     -0.0000
            y      -0.0000      0.8372     -0.0000
            z      -0.0000     -0.0000      1.2243
-------------------------------------------------------------------------------
   30 Na    x       1.2243     -0.0000     -0.0000
            y      -0.0000      0.8372     -0.0000
            z      -0.0000     -0.0000      1.2243
-------------------------------------------------------------------------------
   31 Na    x       1.2243     -0.0000     -0.0000
            y      -0.0000      0.8372      0.0000
            z      -0.0000      0.0000      1.2243
-------------------------------------------------------------------------------
   32 Na    x       1.2243     -0.0000     -0.0000
            y      -0.0000      0.8372     -0.0000
            z      -0.0000     -0.0000      1.2243
-------------------------------------------------------------------------------
   33 Na    x       1.2243     -0.0000      0.0000
            y       0.0000      1.2243     -0.0000
            z       0.0000      0.0000      0.8372
-------------------------------------------------------------------------------
   34 Na    x       1.2243     -0.0000     -0.0000
            y       0.0000      1.2243     -0.0000
            z      -0.0000     -0.0000      0.8372
-------------------------------------------------------------------------------
   35 Na    x       1.2243      0.0000      0.0000
            y      -0.0000      1.2243     -0.0000
            z       0.0000      0.0000      0.8372
-------------------------------------------------------------------------------
   36 Na    x       1.2243      0.0000      0.0000
            y      -0.0000      1.2243      0.0000
            z       0.0000      0.0000      0.8372
-------------------------------------------------------------------------------
   37 Na    x       1.2243      0.0000      0.0000
            y      -0.0000      1.2243     -0.0000
            z       0.0000     -0.0000      0.8372
-------------------------------------------------------------------------------
   38 Na    x       1.2243      0.0000      0.0000
            y      -0.0000      1.2243     -0.0000
            z       0.0000     -0.0000      0.8372
-------------------------------------------------------------------------------
   39 Na    x       1.2243     -0.0000      0.0000
            y       0.0000      1.2243     -0.0000
            z       0.0000     -0.0000      0.8372
-------------------------------------------------------------------------------
   40 Na    x       1.2243     -0.0000      0.0000
            y       0.0000      1.2243      0.0000
            z       0.0000      0.0000      0.8372
-------------------------------------------------------------------------------




  Elastic Constant Matrix: (Units=GPa)

-------------------------------------------------------------------------------
  Indices      1         2         3         4         5         6    
-------------------------------------------------------------------------------
       1     82.7680   24.3534   24.3534   -0.0000    0.0000   -0.0000
       2     24.3534   82.7680   24.3534   -0.0000   -0.0000    0.0000
       3     24.3534   24.3534   82.7680   -0.0000    0.0000    0.0000
       4     -0.0000   -0.0000   -0.0000   24.3534    0.0000   -0.0000
       5      0.0000   -0.0000    0.0000    0.0000   24.3534   -0.0000
       6     -0.0000    0.0000    0.0000   -0.0000   -0.0000   24.3534
-------------------------------------------------------------------------------


  Elastic Compliance Matrix: (Units=1/GPa)

-------------------------------------------------------------------------------
  Indices      1         2         3         4         5         6    
-------------------------------------------------------------------------------
       1    0.013948 -0.003171 -0.003171 -0.000000 -0.000000  0.000000
       2   -0.003171  0.013948 -0.003171  0.000000  0.000000 -0.000000
       3   -0.003171 -0.003171  0.013948  0.000000 -0.000000 -0.000000
       4   -0.000000  0.000000  0.000000  0.041062 -0.000000  0.000000
       5   -0.000000  0.000000 -0.000000 -0.000000  0.041062  0.000000
       6    0.000000 -0.000000 -0.000000  0.000000  0.000000  0.041062
-------------------------------------------------------------------------------

  Mechanical properties :

-------------------------------------------------------------------------------
  Convention :                    Reuss         Voigt         Hill
-------------------------------------------------------------------------------
  Bulk  Modulus (GPa)     =      43.82493      43.82493      43.82493
  Shear Modulus (GPa)     =      26.08758      26.29496      26.19127
-------------------------------------------------------------------------------
  Velocity S-wave (km/s)  =       3.34035       3.35360       3.34698
  Velocity P-wave (km/s)  =       5.79842       5.80861       5.80351
-------------------------------------------------------------------------------
  Compressibility (1/GPa) =    0.02281806
-------------------------------------------------------------------------------
  Stress axis :                     x             y             z
-------------------------------------------------------------------------------
  Youngs Moduli (GPa)     =      71.69479      71.69479      71.69479
-------------------------------------------------------------------------------
  Poissons Ratio (x)      =                     0.22734       0.22734
  Poissons Ratio (y)      =       0.22734                     0.22734
  Poissons Ratio (z)      =       0.22734       0.22734
-------------------------------------------------------------------------------


  Piezoelectric Strain Matrix: (Units=C/m**2)

-------------------------------------------------------------------------------
  Indices      1         2         3         4         5         6    
-------------------------------------------------------------------------------
       x    -0.00000   0.00000   0.00000   0.00000   0.00000   0.00000
       y     0.00000   0.00000   0.00000   0.00000   0.00000   0.00000
       z     0.00000  -0.00000   0.00000   0.00000   0.00000   0.00000
-------------------------------------------------------------------------------


  Piezoelectric Stress Matrix: (Units=10**-11 C/N)

-------------------------------------------------------------------------------
  Indices      1         2         3         4         5         6    
-------------------------------------------------------------------------------
       x    -0.00000   0.00000   0.00000   0.00000   0.00000   0.00000
       y     0.00000   0.00000   0.00000   0.00000   0.00000   0.00000
       z     0.00000  -0.00000   0.00000   0.00000   0.00000   0.00000
-------------------------------------------------------------------------------


  Static dielectric constant tensor : 

-------------------------------------------------------------------------------
              x         y         z
-------------------------------------------------------------------------------
       x    11.08357  -0.00000  -0.00000
       y    -0.00000  11.08357  -0.00000
       z    -0.00000  -0.00000  11.08357
--------------------------------------------------------------------------------

  High frequency dielectric constant tensor : 

-------------------------------------------------------------------------------
              x         y         z
-------------------------------------------------------------------------------
       x     1.50771  -0.00000   0.00000
       y    -0.00000   1.50771  -0.00000
       z     0.00000  -0.00000   1.50771
-------------------------------------------------------------------------------

  Static refractive indices : 

-------------------------------------------------------------------------------
    1 =    3.32920      2 =    3.32920      3 =    3.32920
-------------------------------------------------------------------------------

  High frequency refractive indices : 

-------------------------------------------------------------------------------
    1 =    1.22789      2 =    1.22789      3 =    1.22789
-------------------------------------------------------------------------------


  Time to end of optimisation =       0.1597 seconds

********************************************************************************
*  Defect calculation for configuration   1 :                                  *
********************************************************************************

  Total number of defects =      3

  Total charge on defect  =   0.00

  Defect centre is at   0.4170   0.5000   0.4170  Frac

  Region 1 radius =  16.0000      Number of ions =   1402

  Number of symmetry inequivalent region 1 ions  =    430

  Region 2 radius =  24.0000      Number of ions =   3340

  Number of symmetry inequivalent region 2a ions =    934

  Region 2a mode = 4 : screened electrostatics due to region 1 
                       neglect correction to region 1 forces from 2a
                       region 2a displacements based on defects only

  Region 2a ions will only interact with defects in region 1

  Vacancies:

--------------------------------------------------------------------------------
    Specification type     Symbol/Number         x          y          z
--------------------------------------------------------------------------------
    Fractional                               0.500000   0.500000   0.500000
    Fractional                               0.500000   0.500000   0.250000
    Fractional                               0.250000   0.500000   0.500000
--------------------------------------------------------------------------------


  Symmetry reduced region 1 (Relative to defect centre) :

--------------------------------------------------------------------------------
   No.   Atomic       x            y             z       Radius  Multiplicity   
         Label      (Angs)       (Angs)        (Angs)    (Angs)     
--------------------------------------------------------------------------------
     1  Na    c      0.7314 *     2.2030 *     0.7314    0.0000     2          
     2  Na    c      2.9343 *     0.0000       0.7314 *  0.0000     2          
     3  Cl    c     -1.4716 *    -2.2030 *    -1.4716    0.0000     2          
     4  O     c     -3.6745 *     0.0000       0.7314 *  0.0000     2          
     5  Cl    c      2.9343 *     2.2030 *    -1.4716 *  0.0000     4          
     6  Na    c     -3.6745 *     0.0000      -1.4716 *  0.0000     2          
     7  Na    c     -3.6745 *     2.2030 *     0.7314 *  0.0000     4          
     8  O     c      0.7314 *    -4.4059 *     0.7314    0.0000     2          
     9  Cl    c      2.9343 *     2.2030 *     2.9343    0.0000     2          
    10  Na    c     -1.4716 *    -4.4059 *     0.7314 *  0.0000     4          
    11  Na    c      2.9343 *     0.0000      -3.6745 *  0.0000     2          
    12  O     c      0.7314 *     0.0000       5.1373 *  0.0000     2          
    13  O     c     -3.6745 *     0.0000      -3.6745    0.0000     1          
    14  Na    c      2.9343 *     4.4059 *     0.7314 *  0.0000     4          
    15  Na    c     -1.4716 *    -0.0000       5.1373 *  0.0000     2          
    16  Na    c      5.1373 *    -2.2030 *     0.7314 *  0.0000     4          
    17  Na    c     -3.6745 *     2.2030 *    -3.6745    0.0000     2          
    18  O     c     -3.6745 *    -4.4059 *     0.7314 *  0.0000     4          
    19  Na    c      5.1373 *    -0.0000       2.9343 *  0.0000     2          
    20  Na    c     -1.4716 *    -4.4059 *    -3.6745 *  0.0000     4          
    21  Na    c     -5.8775 *     0.0000       0.7314 *  0.0000     2          
    22  O     c      5.1373 *     0.0000      -3.6745 *  0.0000     2          
    23  Na    c      2.9343 *     4.4059 *    -3.6745 *  0.0000     4          
    24  Cl    c     -1.4716 *    -2.2030 *    -5.8775 *  0.0000     4          
    25  Na    c      5.1373 *    -2.2030 *    -3.6745 *  0.0000     4          
    26  Na    c      0.7314 *    -6.6089 *     0.7314    0.0000     2          
    27  O     c      0.7314 *    -4.4059 *     5.1373 *  0.0000     4          
    28  O     c     -3.6745 *    -4.4059 *    -3.6745    0.0000     2          
    29  Na    c     -1.4716 *    -4.4059 *     5.1373 *  0.0000     4          
    30  Cl    c     -5.8775 *    -2.2030 *     2.9343 *  0.0000     4          
    31  Cl    c     -1.4716 *    -6.6089 *    -1.4716    0.0000     2          
    32  Na    c     -5.8775 *     0.0000      -3.6745 *  0.0000     2          
    33  O     c      5.1373 *     0.0000       5.1373    0.0000     1          
    34  Na    c      2.9343 *     4.4059 *     5.1373 *  0.0000     4          
    35  Na    c      0.7314 *    -0.0000       7.3402 *  0.0000     2          
    36  Cl    c     -1.4716 *    -6.6089 *     2.9343 *  0.0000     4          
    37  Na    c     -5.8775 *     4.4059 *     0.7314 *  0.0000     4          
    38  Na    c      5.1373 *    -2.2030 *     5.1373    0.0000     2          
    39  Na    c     -3.6745 *    -6.6089 *     0.7314 *  0.0000     4          
    40  O     c      5.1373 *     4.4059 *    -3.6745 *  0.0000     4          
    41  Cl    c     -1.4716 *    -2.2030 *     7.3402 *  0.0000     4          
    42  Cl    c      2.9343 *    -6.6089 *     2.9343    0.0000     2          
    43  Na    c      5.1373 *    -0.0000      -5.8775 *  0.0000     2          
    44  O     c     -8.0804 *     0.0000       0.7314 *  0.0000     2          
    45  Cl    c      2.9343 *     2.2030 *     7.3402 *  0.0000     4          
    46  Na    c     -3.6745 *     0.0000       7.3402 *  0.0000     2          
    47  Na    c     -5.8775 *     4.4059 *    -3.6745 *  0.0000     4          
    48  Na    c     -1.4716 *    -0.0000      -8.0804 *  0.0000     2          
    49  Na    c      5.1373 *     6.6089 *     0.7314 *  0.0000     4          
    50  Na    c     -8.0804 *    -2.2030 *     0.7314 *  0.0000     4          
    51  Na    c     -3.6745 *    -6.6089 *    -3.6745    0.0000     2          
    52  O     c      5.1373 *     4.4059 *     5.1373    0.0000     2          
    53  Na    c      7.3402 *    -4.4059 *     0.7314 *  0.0000     4          
    54  Na    c     -8.0804 *     0.0000       2.9343 *  0.0000     2          
    55  Cl    c     -5.8775 *    -2.2030 *    -5.8775    0.0000     2          
    56  O     c      0.7314 *    -8.8118 *     0.7314    0.0000     2          
    57  O     c     -8.0804 *     0.0000      -3.6745 *  0.0000     2          
    58  Na    c      7.3402 *    -0.0000       5.1373 *  0.0000     2          
    59  Na    c     -1.4716 *     8.8118 *     0.7314 *  0.0000     4          
    60  Na    c     -5.8775 *     4.4059 *     5.1373 *  0.0000     4          
    61  Cl    c     -1.4716 *    -6.6089 *    -5.8775 *  0.0000     4          
    62  Na    c      5.1373 *     6.6089 *    -3.6745 *  0.0000     4          
    63  Na    c     -8.0804 *    -2.2030 *    -3.6745 *  0.0000     4          
    64  O     c     -8.0804 *    -4.4059 *     0.7314 *  0.0000     4          
    65  Na    c      2.9343 *    -8.8118 *     0.7314 *  0.0000     4          
    66  Na    c      7.3402 *    -4.4059 *    -3.6745 *  0.0000     4          
    67  Cl    c     -5.8775 *     6.6089 *     2.9343 *  0.0000     4          
    68  Na    c     -1.4716 *    -4.4059 *    -8.0804 *  0.0000     4          
    69  O     c      0.7314 *     0.0000       9.5432 *  0.0000     2          
    70  O     c     -8.0804 *     0.0000       5.1373 *  0.0000     2          
    71  O     c     -3.6745 *    -8.8118 *     0.7314 *  0.0000     4          
    72  Na    c      9.5432 *    -0.0000      -1.4716 *  0.0000     2          
    73  Cl    c     -5.8775 *    -2.2030 *     7.3402 *  0.0000     4          
    74  Na    c     -1.4716 *     8.8118 *    -3.6745 *  0.0000     4          
    75  Na    c      2.9343 *     4.4059 *    -8.0804 *  0.0000     4          
    76  Na    c      9.5432 *     2.2030 *     0.7314 *  0.0000     4          
    77  Na    c      5.1373 *     6.6089 *     5.1373    0.0000     2          
    78  Na    c     -8.0804 *    -2.2030 *     5.1373 *  0.0000     4          
    79  O     c     -8.0804 *    -4.4059 *    -3.6745 *  0.0000     4          
    80  Na    c      7.3402 *    -4.4059 *     5.1373 *  0.0000     4          
    81  Na    c      2.9343 *     0.0000       9.5432 *  0.0000     2          
    82  Cl    c     -1.4716 *    -6.6089 *     7.3402 *  0.0000     4          
    83  Na    c      2.9343 *    -8.8118 *    -3.6745 *  0.0000     4          
    84  Na    c     -8.0804 *     0.0000      -5.8775 *  0.0000     2          
    85  O     c     -3.6745 *     0.0000       9.5432 *  0.0000     2          
    86  O     c      0.7314 *    -8.8118 *     5.1373 *  0.0000     4          
    87  O     c     -3.6745 *    -8.8118 *    -3.6745    0.0000     2          
    88  Cl    c      2.9343 *    -6.6089 *     7.3402 *  0.0000     4          
    89  Na    c     -1.4716 *     8.8118 *     5.1373 *  0.0000     4          
    90  Na    c    -10.2834 *    -0.0000       0.7314 *  0.0000     2          
    91  Na    c      9.5432 *     2.2030 *    -3.6745 *  0.0000     4          
    92  Na    c     -8.0804 *     6.6089 *     0.7314 *  0.0000     4          
    93  O     c      0.7314 *    -4.4059 *     9.5432 *  0.0000     4          
    94  O     c     -8.0804 *    -4.4059 *     5.1373 *  0.0000     4          
    95  Cl    c      7.3402 *     2.2030 *     7.3402    0.0000     2          
    96  Na    c      2.9343 *    -8.8118 *     5.1373 *  0.0000     4          
    97  Na    c     -1.4716 *    -4.4059 *     9.5432 *  0.0000     4          
    98  Na    c     -5.8775 *    -8.8118 *     0.7314 *  0.0000     4          
    99  Cl    c    -10.2834 *    -2.2030 *    -1.4716 *  0.0000     4          
   100  Cl    c     -5.8775 *     6.6089 *    -5.8775    0.0000     2          
   101  O     c      9.5432 *     0.0000       5.1373 *  0.0000     2          
   102  O     c      5.1373 *     8.8118 *    -3.6745 *  0.0000     4          
   103  Na    c      2.9343 *     4.4059 *     9.5432 *  0.0000     4          
   104  Na    c      7.3402 *    -0.0000      -8.0804 *  0.0000     2          
   105  Cl    c    -10.2834 *    -2.2030 *     2.9343 *  0.0000     4          
   106  Na    c     -5.8775 *     4.4059 *    -8.0804 *  0.0000     4          
   107  Na    c     -3.6745 *     0.0000     -10.2834 *  0.0000     2          
   108  Na    c      9.5432 *     2.2030 *     5.1373 *  0.0000     4          
   109  Na    c      0.7314 *    11.0148 *     0.7314    0.0000     2          
   110  Na    c     -8.0804 *     6.6089 *    -3.6745 *  0.0000     4          
   111  O     c     -3.6745 *    -4.4059 *     9.5432 *  0.0000     4          
   112  Na    c     -5.8775 *     0.0000       9.5432 *  0.0000     2          
   113  Cl    c     -1.4716 *   -11.0148 *    -1.4716    0.0000     2          
   114  Na    c     -5.8775 *    -8.8118 *    -3.6745 *  0.0000     4          
   115  Na    c    -10.2834 *    -4.4059 *     0.7314 *  0.0000     4          
   116  O     c      5.1373 *     8.8118 *     5.1373    0.0000     2          
   117  O     c     -8.0804 *     0.0000      -8.0804    0.0000     1          
   118  Na    c      7.3402 *     8.8118 *     0.7314 *  0.0000     4          
   119  Cl    c      7.3402 *    -6.6089 *    -5.8775 *  0.0000     4          
   120  Cl    c      2.9343 *    11.0148 *    -1.4716 *  0.0000     4          
   121  Na    c    -10.2834 *    -0.0000       5.1373 *  0.0000     2          
   122  Na    c      9.5432 *    -6.6089 *     0.7314 *  0.0000     4          
   123  Na    c     -8.0804 *     6.6089 *     5.1373 *  0.0000     4          
   124  Na    c     -3.6745 *    11.0148 *     0.7314 *  0.0000     4          
   125  Na    c     -8.0804 *    -2.2030 *    -8.0804    0.0000     2          
   126  O     c      9.5432 *    -4.4059 *     5.1373 *  0.0000     4          
   127  Na    c     11.7461 *     0.0000       0.7314 *  0.0000     2          
   128  Cl    c      2.9343 *   -11.0148 *     2.9343    0.0000     2          
   129  Na    c     -5.8775 *    -8.8118 *     5.1373 *  0.0000     4          
   130  Na    c      7.3402 *    -4.4059 *    -8.0804 *  0.0000     4          
   131  Na    c    -10.2834 *    -4.4059 *    -3.6745 *  0.0000     4          
   132  O     c     -8.0804 *    -8.8118 *     0.7314 *  0.0000     4          
   133  Na    c      9.5432 *    -0.0000       7.3402 *  0.0000     2          
   134  Cl    c     11.7461 *     2.2030 *    -1.4716 *  0.0000     4          
   135  Na    c      7.3402 *     8.8118 *    -3.6745 *  0.0000     4          
   136  Na    c     -5.8775 *     4.4059 *     9.5432 *  0.0000     4          
   137  Na    c     -1.4716 *     8.8118 *    -8.0804 *  0.0000     4          
   138  Cl    c    -10.2834 *    -2.2030 *    -5.8775 *  0.0000     4          
   139  Na    c      9.5432 *    -6.6089 *    -3.6745 *  0.0000     4          
   140  Na    c      5.1373 *   -11.0148 *     0.7314 *  0.0000     4          
   141  Na    c     -3.6745 *    11.0148 *    -3.6745    0.0000     2          
   142  O     c     -8.0804 *    -4.4059 *    -8.0804    0.0000     2          
   143  Cl    c      2.9343 *     2.2030 *    11.7461 *  0.0000     4          
   144  Cl    c      7.3402 *    -6.6089 *     7.3402    0.0000     2          
   145  Na    c     11.7461 *     0.0000      -3.6745 *  0.0000     2          
   146  Na    c      2.9343 *    -8.8118 *    -8.0804 *  0.0000     4          
   147  Na    c    -10.2834 *    -4.4059 *     5.1373 *  0.0000     4          
   148  Cl    c    -10.2834 *     6.6089 *    -1.4716 *  0.0000     4          
   149  O     c     -8.0804 *     0.0000       9.5432 *  0.0000     2          
   150  O     c    -12.4863 *     0.0000       0.7314 *  0.0000     2          
   151  O     c     -8.0804 *    -8.8118 *    -3.6745 *  0.0000     4          
   152  Na    c      7.3402 *     8.8118 *     5.1373 *  0.0000     4          
   153  Na    c     11.7461 *     4.4059 *     0.7314 *  0.0000     4          
   154  Cl    c    -10.2834 *     6.6089 *     2.9343 *  0.0000     4          
   155  Cl    c     -1.4716 *   -11.0148 *    -5.8775 *  0.0000     4          
   156  Na    c    -12.4863 *     0.0000      -1.4716 *  0.0000     2          
   157  Na    c      9.5432 *    -6.6089 *     5.1373 *  0.0000     4          
   158  Na    c      9.5432 *     2.2030 *    -8.0804 *  0.0000     4          
   159  Na    c      5.1373 *   -11.0148 *    -3.6745 *  0.0000     4          
   160  Na    c    -12.4863 *     2.2030 *     0.7314 *  0.0000     4          
   161  Na    c      7.3402 *    -4.4059 *     9.5432 *  0.0000     4          
   162  Na    c      5.1373 *    -0.0000      11.7461 *  0.0000     2          
   163  Cl    c    -10.2834 *    -2.2030 *     7.3402 *  0.0000     4          
   164  Cl    c     -5.8775 *   -11.0148 *     2.9343 *  0.0000     4          
   165  Na    c      2.9343 *     0.0000     -12.4863 *  0.0000     2          
   166  O     c      0.7314 *    -8.8118 *     9.5432 *  0.0000     4          
   167  O     c     -8.0804 *    -8.8118 *     5.1373 *  0.0000     4          
   168  O     c    -12.4863 *     0.0000      -3.6745 *  0.0000     2          
   169  Na    c     -1.4716 *     8.8118 *     9.5432 *  0.0000     4          
   170  Na    c     11.7461 *     4.4059 *    -3.6745 *  0.0000     4          
   171  Na    c    -10.2834 *    -0.0000      -8.0804 *  0.0000     2          
   172  Na    c      5.1373 *   -11.0148 *     5.1373    0.0000     2          
   173  Na    c    -12.4863 *     2.2030 *    -3.6745 *  0.0000     4          
   174  Na    c     -8.0804 *     6.6089 *    -8.0804    0.0000     2          
   175  O     c     -8.0804 *    -4.4059 *     9.5432 *  0.0000     4          
   176  O     c      0.7314 *   -13.2177 *     0.7314    0.0000     2          
   177  O     c    -12.4863 *    -4.4059 *     0.7314 *  0.0000     4          
   178  Na    c      2.9343 *    -8.8118 *     9.5432 *  0.0000     4          
   179  Cl    c     -5.8775 *    -2.2030 *    11.7461 *  0.0000     4          
   180  Cl    c     -1.4716 *   -11.0148 *     7.3402 *  0.0000     4          
   181  Na    c     -1.4716 *   -13.2177 *     0.7314 *  0.0000     4          
   182  Na    c     -5.8775 *    -8.8118 *    -8.0804 *  0.0000     4          
   183  Na    c     -1.4716 *    -4.4059 *   -12.4863 *  0.0000     4          
   184  O     c      9.5432 *     0.0000       9.5432    0.0000     1          
   185  O     c     -3.6745 *    -8.8118 *     9.5432 *  0.0000     4          
   186  O     c    -12.4863 *     0.0000       5.1373 *  0.0000     2          
   187  Na    c     11.7461 *     4.4059 *     5.1373 *  0.0000     4          
   188  Cl    c     11.7461 *    -6.6089 *    -1.4716 *  0.0000     4          
   189  Cl    c      2.9343 *    11.0148 *     7.3402 *  0.0000     4          
   190  Na    c      2.9343 *    13.2177 *     0.7314 *  0.0000     4          
   191  Na    c    -10.2834 *     8.8118 *     0.7314 *  0.0000     4          
   192  Na    c      2.9343 *     4.4059 *   -12.4863 *  0.0000     4          
   193  Cl    c    -10.2834 *    -6.6089 *    -5.8775 *  0.0000     4          
   194  Na    c      9.5432 *     2.2030 *     9.5432    0.0000     2          
   195  Na    c    -12.4863 *     2.2030 *     5.1373 *  0.0000     4          
   196  Na    c     -8.0804 *   -11.0148 *     0.7314 *  0.0000     4          
   197  O     c     -3.6745 *   -13.2177 *     0.7314 *  0.0000     4          
   198  O     c    -12.4863 *    -4.4059 *    -3.6745 *  0.0000     4          
   199  Cl    c      2.9343 *    -6.6089 *    11.7461 *  0.0000     4          
   200  Na    c     -1.4716 *   -13.2177 *    -3.6745 *  0.0000     4          
   201  Cl    c     -5.8775 *   -11.0148 *    -5.8775    0.0000     2          
   202  Na    c    -10.2834 *    -4.4059 *    -8.0804 *  0.0000     4          
   203  Na    c     -5.8775 *     0.0000     -12.4863 *  0.0000     2          
   204  O     c      0.7314 *     0.0000      13.9491 *  0.0000     2          
   205  O     c      9.5432 *    -8.8118 *     5.1373 *  0.0000     4          
   206  Cl    c     11.7461 *     2.2030 *     7.3402 *  0.0000     4          
   207  Na    c     -1.4716 *    -0.0000      13.9491 *  0.0000     2          
   208  Na    c      2.9343 *    13.2177 *    -3.6745 *  0.0000     4          
   209  Na    c      7.3402 *     8.8118 *    -8.0804 *  0.0000     4          
   210  Na    c      9.5432 *    -0.0000     -10.2834 *  0.0000     2          
   211  Na    c    -10.2834 *     8.8118 *    -3.6745 *  0.0000     4          
   212  Na    c     13.9491 *    -2.2030 *     0.7314 *  0.0000     4          
   213  Na    c      9.5432 *    -6.6089 *    -8.0804 *  0.0000     4          
   214  Na    c    -12.4863 *    -6.6089 *     0.7314 *  0.0000     4          
   215  Na    c     -8.0804 *   -11.0148 *    -3.6745 *  0.0000     4          
   216  O     c      9.5432 *    -4.4059 *     9.5432    0.0000     2          
   217  O     c      0.7314 *   -13.2177 *     5.1373 *  0.0000     4          
   218  O     c    -12.4863 *     4.4059 *     5.1373 *  0.0000     4          
   219  O     c     -3.6745 *    13.2177 *    -3.6745    0.0000     2          
   220  Na    c     13.9491 *    -0.0000       2.9343 *  0.0000     2          
   221  Na    c     -1.4716 *   -13.2177 *     5.1373 *  0.0000     4          
   222  Na    c     -5.8775 *    -8.8118 *     9.5432 *  0.0000     4          
   223  Na    c     -8.0804 *     0.0000      11.7461 *  0.0000     2          
   224  Cl    c    -10.2834 *     6.6089 *     7.3402 *  0.0000     4          
   225  O     c     13.9491 *     0.0000      -3.6745 *  0.0000     2          
   226  O     c     -8.0804 *    -8.8118 *    -8.0804    0.0000     2          
   227  Na    c      2.9343 *    13.2177 *     5.1373 *  0.0000     4          
   228  Cl    c     -5.8775 *   -11.0148 *     7.3402 *  0.0000     4          
   229  Na    c     -5.8775 *    13.2177 *     0.7314 *  0.0000     4          
   230  Na    c    -10.2834 *     8.8118 *     5.1373 *  0.0000     4          
   231  Na    c    -12.4863 *     0.0000       7.3402 *  0.0000     2          
   232  Na    c     -5.8775 *     4.4059 *   -12.4863 *  0.0000     4          
   233  Na    c     13.9491 *    -2.2030 *    -3.6745 *  0.0000     4          
   234  Na    c      9.5432 *    11.0148 *     0.7314 *  0.0000     4          
   235  Na    c     -8.0804 *   -11.0148 *     5.1373 *  0.0000     4          
   236  Na    c    -12.4863 *    -6.6089 *    -3.6745 *  0.0000     4          
   237  O     c      0.7314 *    -4.4059 *    13.9491 *  0.0000     4          
   238  O     c     -3.6745 *    13.2177 *     5.1373 *  0.0000     4          
   239  Na    c     11.7461 *    -8.8118 *     0.7314 *  0.0000     4          
   240  Na    c     -1.4716 *    -4.4059 *    13.9491 *  0.0000     4          
   241  Cl    c     -5.8775 *     6.6089 *    11.7461 *  0.0000     4          
   242  Na    c    -10.2834 *    -4.4059 *     9.5432 *  0.0000     4          
   243  Na    c    -14.6893 *     0.0000       0.7314 *  0.0000     2          
   244  Cl    c    -10.2834 *    -2.2030 *   -10.2834    0.0000     2          
   245  O     c     13.9491 *    -0.0000       5.1373 *  0.0000     2          
   246  O     c    -12.4863 *     0.0000      -8.0804 *  0.0000     2          
   247  Na    c      7.3402 *     8.8118 *     9.5432 *  0.0000     4          
   248  Na    c      2.9343 *     4.4059 *    13.9491 *  0.0000     4          
   249  Na    c     11.7461 *     4.4059 *    -8.0804 *  0.0000     4          
   250  Na    c     -5.8775 *    13.2177 *    -3.6745 *  0.0000     4          
   251  Cl    c     -1.4716 *     2.2030 *   -14.6893 *  0.0000     4          
   252  Na    c     13.9491 *    -2.2030 *     5.1373 *  0.0000     4          
   253  Na    c      9.5432 *    -6.6089 *     9.5432    0.0000     2          
   254  Na    c      9.5432 *    11.0148 *    -3.6745 *  0.0000     4          
   255  Na    c    -12.4863 *    -6.6089 *     5.1373 *  0.0000     4          
   256  Na    c    -12.4863 *     2.2030 *    -8.0804 *  0.0000     4          
   257  O     c     13.9491 *     4.4059 *    -3.6745 *  0.0000     4          
   258  O     c      5.1373 *    13.2177 *     5.1373    0.0000     2          
   259  Na    c     11.7461 *     0.0000       9.5432 *  0.0000     2          
   260  Cl    c      7.3402 *    11.0148 *     7.3402    0.0000     2          
   261  Na    c      7.3402 *   -13.2177 *     0.7314 *  0.0000     4          
   262  Na    c     11.7461 *    -8.8118 *    -3.6745 *  0.0000     4          
   263  Na    c     13.9491 *    -0.0000      -5.8775 *  0.0000     2          
   264  Na    c      7.3402 *    -4.4059 *   -12.4863 *  0.0000     4          
   265  Cl    c    -14.6893 *    -2.2030 *     2.9343 *  0.0000     4          
   266  Cl    c    -10.2834 *   -11.0148 *    -1.4716 *  0.0000     4          
   267  Na    c    -14.6893 *     0.0000      -3.6745 *  0.0000     2          
   268  O     c     -8.0804 *    -8.8118 *     9.5432 *  0.0000     4          
   269  O     c    -12.4863 *    -8.8118 *     0.7314 *  0.0000     4          
   270  Cl    c     11.7461 *    -6.6089 *     7.3402 *  0.0000     4          
   271  Na    c     -5.8775 *    13.2177 *     5.1373 *  0.0000     4          
[...]
    349 y          4.405902      4.405902     0.000000    Cartesian    0.00
    349 z          8.811805      8.806099    -0.005706    Cartesian   -0.06
    350 x          8.811805      8.813779     0.001974    Cartesian    0.02
    350 y         13.217707     13.218434     0.000727    Cartesian    0.01
    350 z         -0.000000     -0.000446    -0.000446    Cartesian *******
    351 x         -6.608853     -6.622067    -0.013214    Cartesian    0.20
    351 y          2.202951      2.202571    -0.000380    Cartesian   -0.02
    351 z          6.608853      6.616652     0.007799    Cartesian    0.12
    352 x          0.000000      0.000509     0.000509    Cartesian *******
    352 y          0.000000     -0.001562    -0.001562    Cartesian *******
    352 z         13.217707     13.216437    -0.001270    Cartesian   -0.01
    353 x          2.202951      2.205110     0.002159    Cartesian    0.10
    353 y         -6.608853     -6.618232    -0.009379    Cartesian    0.14
    353 z          2.202951      2.205110     0.002159    Cartesian    0.10
    354 x          8.811805      8.812561     0.000756    Cartesian    0.01
    354 y         13.217707     13.218264     0.000557    Cartesian    0.00
    354 z          8.811805      8.812561     0.000756    Cartesian    0.01
    355 x         -4.405902     -4.393321     0.012581    Cartesian   -0.29
    355 y          4.405902      4.405902     0.000000    Cartesian    0.00
    355 z         -4.405902     -4.393321     0.012581    Cartesian   -0.29
    356 x         11.014756     11.019859     0.005104    Cartesian    0.05
    356 y         -2.202951     -2.202126     0.000825    Cartesian   -0.04
    356 z         -2.202951     -2.186456     0.016495    Cartesian   -0.75
    357 x          6.608853      6.618557     0.009704    Cartesian    0.15
    357 y         15.420658     15.427393     0.006735    Cartesian    0.04
    357 z          2.202951      2.209129     0.006177    Cartesian    0.28
    358 x         13.217707     13.214473    -0.003234    Cartesian   -0.02
    358 y          0.000000      0.001398     0.001398    Cartesian *******
    358 z          8.811805      8.811109    -0.000696    Cartesian   -0.01
    359 x          6.608853      6.621861     0.013007    Cartesian    0.20
    359 y         -6.608853     -6.610399    -0.001545    Cartesian    0.02
    359 z          6.608853      6.621861     0.013007    Cartesian    0.20
    360 x         -4.405902     -4.402770     0.003132    Cartesian   -0.07
    360 y         -4.405902     -4.406152    -0.000250    Cartesian    0.01
    360 z          4.405902      4.407295     0.001392    Cartesian    0.03
    361 x         15.420658     15.421704     0.001046    Cartesian    0.01
    361 y          6.608853      6.609102     0.000249    Cartesian    0.00
    361 z          2.202951      2.211755     0.008803    Cartesian    0.40
    362 x         -6.608853     -6.612909    -0.004056    Cartesian    0.06
    362 y          2.202951      2.200679    -0.002272    Cartesian   -0.10
    362 z         -2.202951     -2.202822     0.000129    Cartesian   -0.01
    363 x         -4.405902     -4.405601     0.000301    Cartesian   -0.01
    363 y          0.000000      0.001765     0.001765    Cartesian *******
    363 z         -4.405902     -4.405601     0.000301    Cartesian   -0.01
    364 x          6.608853      6.619320     0.010466    Cartesian    0.16
    364 y          6.608853      6.609734     0.000880    Cartesian    0.01
    364 z         15.420658     15.418135    -0.002523    Cartesian   -0.02
    365 x         11.014756     11.001759    -0.012997    Cartesian   -0.12
    365 y         -2.202951     -2.180628     0.022323    Cartesian   -1.01
    365 z         11.014756     11.001759    -0.012997    Cartesian   -0.12
    366 x         -6.608853     -6.613515    -0.004661    Cartesian    0.07
    366 y         11.014756     11.022642     0.007886    Cartesian    0.07
    366 z          2.202951      2.207752     0.004800    Cartesian    0.22
    367 x         -4.405902     -4.398920     0.006983    Cartesian   -0.16
    367 y          4.405902      4.405902     0.000000    Cartesian    0.00
    367 z         13.217707     13.216766    -0.000941    Cartesian   -0.01
    368 x         -8.811805     -8.818089    -0.006284    Cartesian    0.07
    368 y          4.405902      4.405902     0.000000    Cartesian    0.00
    368 z          4.405902      4.402374    -0.003528    Cartesian   -0.08
    369 x         -4.405902     -4.407361    -0.001459    Cartesian    0.03
    369 y         -4.405902     -4.406072    -0.000169    Cartesian    0.00
    369 z         -0.000000     -0.000640    -0.000640    Cartesian *******
    370 x         -6.608853     -6.610416    -0.001562    Cartesian    0.02
    370 y         11.014756     11.022133     0.007377    Cartesian    0.07
    370 z          6.608853      6.618699     0.009846    Cartesian    0.15
    371 x          2.202951      2.212366     0.009415    Cartesian    0.43
    371 y         -6.608853     -6.616661    -0.007807    Cartesian    0.12
    371 z         -2.202951     -2.199669     0.003282    Cartesian   -0.15
    372 x         -6.608853     -6.607202     0.001651    Cartesian   -0.02
    372 y          2.202951      2.201593    -0.001358    Cartesian   -0.06
    372 z         11.014756     11.027258     0.012502    Cartesian    0.11
    373 x         -2.202951     -2.197260     0.005691    Cartesian   -0.26
    373 y         -6.608853     -6.613919    -0.005065    Cartesian    0.08
    373 z          6.608853      6.614869     0.006016    Cartesian    0.09
    374 x          4.405902      4.407760     0.001858    Cartesian    0.04
    374 y         -4.405902     -4.401508     0.004394    Cartesian   -0.10
    374 z         13.217707     13.216788    -0.000918    Cartesian   -0.01
    375 x         -4.405902     -4.408465    -0.002563    Cartesian    0.06
    375 y         -4.405902     -4.407814    -0.001912    Cartesian    0.04
    375 z          8.811805      8.812361     0.000557    Cartesian    0.01
    376 x         -8.811805     -8.808300     0.003505    Cartesian   -0.04
    376 y          4.405902      4.405902     0.000000    Cartesian    0.00
    376 z         -0.000000     -0.001359    -0.001359    Cartesian *******
    377 x         -4.405902     -4.407541    -0.001638    Cartesian    0.04
    377 y          0.000000     -0.000286    -0.000286    Cartesian *******
    377 z         13.217707     13.217654    -0.000053    Cartesian   -0.00
    378 x          4.405902      4.402154    -0.003748    Cartesian   -0.09
    378 y         -8.811805     -8.819446    -0.007641    Cartesian    0.09
    378 z          4.405902      4.402154    -0.003748    Cartesian   -0.09
    379 x         -8.811805     -8.811563     0.000242    Cartesian   -0.00
    379 y          0.000000     -0.005135    -0.005135    Cartesian *******
    379 z          4.405902      4.406503     0.000601    Cartesian    0.01
    380 x         -2.202951     -2.192365     0.010586    Cartesian   -0.48
    380 y          2.202951      2.206383     0.003432    Cartesian    0.16
    380 z         15.420658     15.424471     0.003813    Cartesian    0.02
    381 x          2.202951      2.214623     0.011672    Cartesian    0.53
    381 y         -6.608853     -6.606504     0.002349    Cartesian   -0.04
    381 z         11.014756     11.020474     0.005718    Cartesian    0.05
    382 x         13.217707     13.208359    -0.009347    Cartesian   -0.07
    382 y          4.405902      4.405902     0.000000    Cartesian    0.00
    382 z         13.217707     13.208359    -0.009347    Cartesian   -0.07
    383 x          0.000000      0.000306     0.000306    Cartesian *******
    383 y         -4.405902     -4.405857     0.000045    Cartesian   -0.00
    383 z         13.217707     13.216297    -0.001410    Cartesian   -0.01
    384 x         -8.811805     -8.808906     0.002898    Cartesian   -0.03
    384 y          4.405902      4.405902     0.000000    Cartesian    0.00
    384 z          8.811805      8.817891     0.006086    Cartesian    0.07
    385 x         15.420658     15.421398     0.000740    Cartesian    0.00
    385 y         -2.202951     -2.201135     0.001816    Cartesian   -0.08
    385 z          2.202951      2.216775     0.013824    Cartesian    0.63
    386 x          6.608853      6.614884     0.006031    Cartesian    0.09
    386 y         15.420658     15.415180    -0.005478    Cartesian   -0.04
    386 z         11.014756     11.020094     0.005338    Cartesian    0.05
    387 x         -6.608853     -6.612669    -0.003815    Cartesian    0.06
    387 y         -2.202951     -2.211138    -0.008187    Cartesian    0.37
    387 z         -2.202951     -2.205331    -0.002380    Cartesian    0.11
    388 x          0.000000      0.003226     0.003226    Cartesian *******
    388 y         -8.811805     -8.813241    -0.001437    Cartesian    0.02
    388 z          4.405902      4.406512     0.000610    Cartesian    0.01
    389 x         -8.811805     -8.809901     0.001904    Cartesian   -0.02
    389 y          0.000000      0.001128     0.001128    Cartesian *******
    389 z         -0.000000     -0.000791    -0.000791    Cartesian *******
    390 x          6.608853      6.614405     0.005552    Cartesian    0.08
    390 y         -2.202951     -2.199631     0.003320    Cartesian   -0.15
    390 z         15.420658     15.418341    -0.002317    Cartesian   -0.02
    391 x         -2.202951     -2.200178     0.002773    Cartesian   -0.13
    391 y         -6.608853     -6.617118    -0.008265    Cartesian    0.13
    391 z         -2.202951     -2.200178     0.002773    Cartesian   -0.13
    392 x          4.405902      4.400712    -0.005190    Cartesian   -0.12
    392 y          4.405902      4.405902     0.000000    Cartesian    0.00
    392 z         17.623609     17.629951     0.006342    Cartesian    0.04
    393 x         13.217707     13.218083     0.000376    Cartesian    0.00
    393 y         -4.405902     -4.406967    -0.001064    Cartesian    0.02
    393 z          8.811805      8.811408    -0.000396    Cartesian   -0.00
    394 x         15.420658     15.413104    -0.007554    Cartesian   -0.05
    394 y          6.608853      6.603501    -0.005352    Cartesian   -0.08
    394 z         11.014756     11.016128     0.001372    Cartesian    0.01
    395 x         13.217707     13.216075    -0.001632    Cartesian   -0.01
    395 y          0.000000      0.001835     0.001835    Cartesian *******
    395 z         13.217707     13.216075    -0.001632    Cartesian   -0.01
    396 x          4.405902      4.407185     0.001282    Cartesian    0.03
    396 y         -8.811805     -8.811927    -0.000123    Cartesian    0.00
    396 z          8.811805      8.819001     0.007197    Cartesian    0.08
    397 x         -8.811805     -8.812275    -0.000470    Cartesian    0.01
    397 y          8.811805      8.812095     0.000290    Cartesian    0.00
    397 z          8.811805      8.811072    -0.000733    Cartesian   -0.01
    398 x         -0.000000     -0.001373    -0.001373    Cartesian *******
    398 y         17.623609     17.623275    -0.000334    Cartesian   -0.00
    398 z         -0.000000     -0.001373    -0.001373    Cartesian *******
    399 x         -6.608853     -6.605315     0.003538    Cartesian   -0.05
    399 y         11.014756     11.020940     0.006184    Cartesian    0.06
    399 z         11.014756     11.027594     0.012838    Cartesian    0.12
    400 x         17.623609     17.623150    -0.000459    Cartesian   -0.00
    400 y          4.405902      4.405902     0.000000    Cartesian    0.00
    400 z         -0.000000      0.006599     0.006599    Cartesian *******
    401 x         -4.405902     -4.406313    -0.000410    Cartesian    0.01
    401 y         -4.405902     -4.407126    -0.001224    Cartesian    0.03
    401 z         -4.405902     -4.406313    -0.000410    Cartesian    0.01
    402 x         -2.202951     -2.196321     0.006630    Cartesian   -0.30
    402 y         -6.608853     -6.609359    -0.000506    Cartesian    0.01
    402 z         11.014756     11.021857     0.007102    Cartesian    0.06
    403 x          4.405902      4.407513     0.001611    Cartesian    0.04
    403 y          0.000000      0.001056     0.001056    Cartesian *******
    403 z         17.623609     17.624934     0.001325    Cartesian    0.01
    404 x         -0.000000     -0.001248    -0.001248    Cartesian *******
    404 y         17.623609     17.624024     0.000414    Cartesian    0.00
    404 z          8.811805      8.811088    -0.000716    Cartesian   -0.01
    405 x         -2.202951     -2.195995     0.006956    Cartesian   -0.32
    405 y         11.014756     11.015796     0.001041    Cartesian    0.01
    405 z         15.420658     15.425015     0.004357    Cartesian    0.03
    406 x         -6.608853     -6.607609     0.001245    Cartesian   -0.02
    406 y          2.202951      2.199808    -0.003143    Cartesian   -0.14
    406 z         -6.608853     -6.607609     0.001245    Cartesian   -0.02
    407 x         17.623609     17.623297    -0.000312    Cartesian   -0.00
    407 y          4.405902      4.405902     0.000000    Cartesian    0.00
    407 z          8.811805      8.816722     0.004918    Cartesian    0.06
    408 x         -8.811805     -8.808397     0.003408    Cartesian   -0.04
    408 y          4.405902      4.405902     0.000000    Cartesian    0.00
    408 z         -4.405902     -4.405515     0.000387    Cartesian   -0.01
    409 x          2.202951      2.205312     0.002361    Cartesian    0.11
    409 y          2.202951      2.199500    -0.003451    Cartesian   -0.16
    409 z        -11.014756    -11.016831    -0.002076    Cartesian    0.02
    410 x         17.623609     17.622924    -0.000685    Cartesian   -0.00
    410 y          8.811805      8.812256     0.000451    Cartesian    0.01
    410 z          0.000000     -0.001583    -0.001583    Cartesian *******
    411 x          8.811805      8.812477     0.000672    Cartesian    0.01
    411 y         17.623609     17.624495     0.000886    Cartesian    0.01
    411 z          8.811805      8.812477     0.000672    Cartesian    0.01
    412 x         11.014756     11.018773     0.004017    Cartesian    0.04
    412 y         15.420658     15.412691    -0.007967    Cartesian   -0.05
    412 z         11.014756     11.018773     0.004017    Cartesian    0.04
    413 x        -11.014756    -11.018400    -0.003644    Cartesian    0.03
    413 y          2.202951      2.201850    -0.001101    Cartesian   -0.05
    413 z          6.608853      6.614371     0.005517    Cartesian    0.08
    414 x         -6.608853     -6.606543     0.002311    Cartesian   -0.03
    414 y         -6.608853     -6.615071    -0.006217    Cartesian    0.09
    414 z          2.202951      2.208120     0.005169    Cartesian    0.23
    415 x         -4.405902     -4.404000     0.001902    Cartesian   -0.04
    415 y         -4.405902     -4.406414    -0.000512    Cartesian    0.01
    415 z         13.217707     13.218837     0.001130    Cartesian    0.01
    416 x         -8.811805     -8.813405    -0.001600    Cartesian    0.02
    416 y         -4.405902     -4.402972     0.002930    Cartesian   -0.07
    416 z          4.405902      4.405786    -0.000116    Cartesian   -0.00
    417 x         15.420658     15.415645    -0.005013    Cartesian   -0.03
    417 y         -2.202951     -2.199201     0.003750    Cartesian   -0.17
    417 z         11.014756     11.018480     0.003725    Cartesian    0.03
    418 x         -6.608853     -6.605175     0.003678    Cartesian   -0.06
    418 y         -6.608853     -6.613053    -0.004199    Cartesian    0.06
    418 z          6.608853      6.613190     0.004337    Cartesian    0.07
    419 x         17.623609     17.623329    -0.000280    Cartesian   -0.00
    419 y          8.811805      8.811793    -0.000012    Cartesian   -0.00
    419 z          8.811805      8.811895     0.000090    Cartesian    0.00
    420 x         -4.405902     -4.409989    -0.004086    Cartesian    0.09
    420 y         -8.811805     -8.808638     0.003166    Cartesian   -0.04
    420 z          4.405902      4.405794    -0.000108    Cartesian   -0.00
    421 x         -8.811805     -8.812310    -0.000505    Cartesian    0.01
    421 y          0.000000     -0.000204    -0.000204    Cartesian *******
    421 z         -4.405902     -4.406275    -0.000372    Cartesian    0.01
    422 x          2.202951      2.205584     0.002632    Cartesian    0.12
    422 y        -11.014756    -11.014835    -0.000079    Cartesian    0.00
    422 z          2.202951      2.205584     0.002632    Cartesian    0.12
    423 x         -8.811805     -8.813561    -0.001756    Cartesian    0.02
    423 y          4.405902      4.405902     0.000000    Cartesian    0.00
    423 z         13.217707     13.214165    -0.003542    Cartesian   -0.03
    424 x         -8.811805     -8.811920    -0.000116    Cartesian    0.00
    424 y         -4.405902     -4.407742    -0.001839    Cartesian    0.04
    424 z         -0.000000      0.000741     0.000741    Cartesian *******
    425 x         15.420658     15.427455     0.006797    Cartesian    0.04
    425 y          6.608853      6.608113    -0.000740    Cartesian   -0.01
    425 z         -6.608853     -6.601463     0.007390    Cartesian   -0.11
    426 x          2.202951      2.206230     0.003279    Cartesian    0.15
    426 y        -11.014756    -11.014234     0.000522    Cartesian   -0.00
    426 z          6.608853      6.613362     0.004509    Cartesian    0.07
    427 x         -4.405902     -4.405728     0.000174    Cartesian   -0.00
    427 y         -8.811805     -8.813001    -0.001197    Cartesian    0.01
    427 z         -0.000000      0.000503     0.000503    Cartesian *******
    428 x          6.608853      6.614193     0.005340    Cartesian    0.08
    428 y        -11.014756    -11.015380    -0.000624    Cartesian    0.01
    428 z          6.608853      6.614193     0.005340    Cartesian    0.08
    429 x        -11.014756    -11.018973    -0.004218    Cartesian    0.04
    429 y          2.202951      2.204274     0.001323    Cartesian    0.06
    429 z         -2.202951     -2.201134     0.001817    Cartesian   -0.08
    430 x         -6.608853     -6.610335    -0.001481    Cartesian    0.02
    430 y         11.014756     11.016780     0.002024    Cartesian    0.02
    430 z         -6.608853     -6.610335    -0.001481    Cartesian    0.02
--------------------------------------------------------------------------------


  Time to end of optimisation  =      214.1971 seconds


  Peak dynamic memory used =     445.45 MB 


  Timing analysis for GULP :

--------------------------------------------------------------------------------
  Task / Subroutine                                          Time (Seconds)
--------------------------------------------------------------------------------
  Calculation of reciprocal space energy and derivatives          0.0133
  Calculation of real space energy and derivatives                0.1377
  Calculation for region 1 energy and derivatives (2-b)          84.2022
  Calculation for region 2a energy                               89.7947
  Calculation and manipulation of Hessian matrix                 35.4975
  Calculation of matrix inversion                                 3.9916
  Symmetry generation of equivalent positions                     0.0010
--------------------------------------------------------------------------------
  Total CPU time                                                214.1973
--------------------------------------------------------------------------------


  Dump file written as Na3OCl.grs


  Job Finished at 18:01.02 11th February   2021                               

