********************************************************************************
*                       GENERAL UTILITY LATTICE PROGRAM                        *
*                                 Julian Gale                                  *
*                       Curtin Institute for Computation                       *
*                    School of Molecular and Life Sciences                     *
*                    Curtin University, Western Australia                      *
********************************************************************************
* Version = 5.2.0 * Last modified =  10th September 2020                       *
********************************************************************************
*  optimise     - perform optimisation run                                     *
*  conp         - constant pressure calculation                                *
*  property     - calculate properties for final geometry                      *
*  defect       - perform defect calculation after bulk run                    *
*  compare      - compare initial and final structures                         *
********************************************************************************

  Job Started  at 22:29.21 30th November   2020                               

  Number of CPUs =     1


  Total number of configurations input =      1

********************************************************************************
*  Input for Configuration =   1                                               *
********************************************************************************

  Formula = ClONa3                                                      

  Number of irreducible atoms/shells =       5


  Total number atoms/shells =       7

  Dimensionality = 3               :  Bulk   


  Symmetry :

  Crystal family                   :  Cubic       
  Crystal class  (Groth - 1921)    :  Cubic Hexakisoctahedral              

  Space group (centrosymmetric)    :  P M 3 M         

  Patterson group                  :  P m -3 m 

  Cartesian lattice vectors (Angstroms) :

        4.504000    0.000000    0.000000
        0.000000    4.504000    0.000000
        0.000000    0.000000    4.504000

  Cell parameters (Angstroms/Degrees):

  a =       4.5040    alpha =  90.0000
  b =       4.5040    beta  =  90.0000
  c =       4.5040    gamma =  90.0000

  Initial cell volume =          91.368216 Angs**3

  Temperature of configuration =   0.00     K 

  Pressure of configuration =         0.000 GPa 

  Fractional coordinates of asymmetric unit :

--------------------------------------------------------------------------------
   No.  Atomic       x           y          z         Charge      Occupancy
        Label      (Frac)      (Frac)     (Frac)        (e)         (Frac)  
--------------------------------------------------------------------------------
      1 Cl    c    0.000000    0.000000    0.000000     1.48500    1.000000    
      2 O     c    0.500000    0.500000    0.500000     0.18300    1.000000    
      3 Na    c    0.500000    0.500000    0.000000     1.00000    1.000000    
      4 Cl    s    0.000000    0.000000    0.000000    -2.48500    1.000000    
      5 O     s    0.500000    0.500000    0.500000    -2.18300    1.000000    
--------------------------------------------------------------------------------


  Constraints : 

--------------------------------------------------------------------------------
  Constraint no.      Unconstrained     Constrained    Coefficient    Offset
                         Variable         Variable
--------------------------------------------------------------------------------
           1              Strain 1        Strain 2       1.00000      0.0000
           2              Strain 1        Strain 3       1.00000      0.0000
--------------------------------------------------------------------------------


********************************************************************************
*  General input information                                                   *
********************************************************************************

  Species output for all configurations : 

--------------------------------------------------------------------------------
  Species    Type    Atomic    Atomic    Charge       Radii (Angs)     Library
                     Number     Mass       (e)     Cova   Ionic  VDW   Symbol
--------------------------------------------------------------------------------
    Na       Core       11      22.99   1.000000   0.970  0.000  2.300          
    O        Core        8      16.00   0.183000   0.730  0.000  1.360          
    O        Shell       8       0.00  -2.183000   0.730  0.000  1.360          
    Cl       Core       17      35.45   1.485000   0.990  0.000  1.650          
    Cl       Shell      17       0.00  -2.485000   0.990  0.000  1.650          
    Mg       Core       12      24.31   0.415000   1.100  0.000  0.000          
    Mg       Shell      12       0.00   1.585000   1.100  0.000  0.000          
    Ca       Core       20      40.08  -1.135000   0.990  0.000  0.000          
    Ca       Shell      20       0.00   3.135000   0.990  0.000  0.000          
    Sr       Core       38      87.62  -1.251000   1.120  0.000  0.000          
    Sr       Shell      38       0.00   3.251000   1.120  0.000  0.000          
    Ba       Core       56     137.33  -7.203000   1.340  0.000  0.000          
    Ba       Shell      56       0.00   9.203000   1.340  0.000  0.000          
--------------------------------------------------------------------------------


  Lattice summation method               =    Ewald          (3-D)
                                         =    Parry          (2-D)
                                         =    Saunders et al (1-D)
  Accuracy factor for lattice sums       =   12.000


  Analytic derivatives to be used

  Time limit = Infinity

  Maximum range for interatomic potentials =    100000.000000 Angstroms

  General interatomic potentials :

--------------------------------------------------------------------------------
Atom  Types   Potential      Parameter       Value         Units   Cutoffs(Ang)
  1     2                                                            Min /  Max 
--------------------------------------------------------------------------------
O    c O    s Spring (c-s)  Spring k 2       593.71600    eV*Ang^-2 0.000  0.800
                            Spring k 4       0.0000000    eV*Ang^-4 
--------------------------------------------------------------------------------
Cl   c Cl   s Spring (c-s)  Spring k 2       29.380000    eV*Ang^-2 0.000  0.800
                            Spring k 4       0.0000000    eV*Ang^-4 
--------------------------------------------------------------------------------
Mg   c Mg   s Spring (c-s)  Spring k 2       361.60000    eV*Ang^-2 0.000  0.800
                            Spring k 4       0.0000000    eV*Ang^-4 
--------------------------------------------------------------------------------
Ca   c Ca   s Spring (c-s)  Spring k 2       110.20000    eV*Ang^-2 0.000  0.800
                            Spring k 4       0.0000000    eV*Ang^-4 
--------------------------------------------------------------------------------
Sr   c Sr   s Spring (c-s)  Spring k 2       71.700000    eV*Ang^-2 0.000  0.800
                            Spring k 4       0.0000000    eV*Ang^-4 
--------------------------------------------------------------------------------
Ba   c Ba   s Spring (c-s)  Spring k 2       495.20000    eV*Ang^-2 0.000  0.800
                            Spring k 4       0.0000000    eV*Ang^-4 
--------------------------------------------------------------------------------
Na   c Na   c Buckingham    Buckingham A     1788.1900    eV        0.000 12.000
                            Buckingham rho  0.15900000    Ang       
                            Buckingham C     0.0000000    eV*Ang^6  
--------------------------------------------------------------------------------
Na   c O    s Buckingham    Buckingham A     1226.8400    eV        0.000 12.000
                            Buckingham rho  0.30700000    Ang       
                            Buckingham C     0.0000000    eV*Ang^6  
--------------------------------------------------------------------------------
Na   c Cl   s Buckingham    Buckingham A     2314.7000    eV        0.000 12.000
                            Buckingham rho  0.29000000    Ang       
                            Buckingham C     0.0000000    eV*Ang^6  
--------------------------------------------------------------------------------
O    s O    s Buckingham    Buckingham A     22764.300    eV        0.000 12.000
                            Buckingham rho  0.14900000    Ang       
                            Buckingham C     13.190000    eV*Ang^6  
--------------------------------------------------------------------------------
O    s Cl   s Buckingham    Buckingham A     8286.9100    eV        0.000 12.000
                            Buckingham rho  0.25900000    Ang       
                            Buckingham C     62.200000    eV*Ang^6  
--------------------------------------------------------------------------------
Cl   s Cl   s Buckingham    Buckingham A     1227.2000    eV        0.000 12.000
                            Buckingham rho  0.32100000    Ang       
                            Buckingham C     14.530000    eV*Ang^6  
--------------------------------------------------------------------------------
O    s Mg   s Buckingham    Buckingham A     1428.5000    eV        0.000 12.000
                            Buckingham rho  0.29450000    Ang       
                            Buckingham C     0.0000000    eV*Ang^6  
--------------------------------------------------------------------------------
Mg   s Cl   s Buckingham    Buckingham A     4914.5400    eV        0.000 12.000
                            Buckingham rho  0.25700000    Ang       
                            Buckingham C     0.0000000    eV*Ang^6  
--------------------------------------------------------------------------------
O    s Ca   s Buckingham    Buckingham A     1090.4000    eV        0.000 12.000
                            Buckingham rho  0.34370000    Ang       
                            Buckingham C     0.0000000    eV*Ang^6  
--------------------------------------------------------------------------------
Cl   s Ca   s Buckingham    Buckingham A     2302.0000    eV        0.000 12.000
                            Buckingham rho  0.34020000    Ang       
                            Buckingham C     0.0000000    eV*Ang^6  
--------------------------------------------------------------------------------
O    s Sr   s Buckingham    Buckingham A     959.10000    eV        0.000 12.000
                            Buckingham rho  0.37210000    Ang       
                            Buckingham C     0.0000000    eV*Ang^6  
--------------------------------------------------------------------------------
Cl   s Sr   s Buckingham    Buckingham A     2191.0900    eV        0.000 12.000
                            Buckingham rho  0.34570000    Ang       
                            Buckingham C     0.0000000    eV*Ang^6  
--------------------------------------------------------------------------------
O    s Ba   s Buckingham    Buckingham A     905.70000    eV        0.000 12.000
                            Buckingham rho  0.39760000    Ang       
                            Buckingham C     0.0000000    eV*Ang^6  
--------------------------------------------------------------------------------
Cl   s Ba   s Buckingham    Buckingham A     2704.5500    eV        0.000 12.000
                            Buckingham rho  0.35280000    Ang       
                            Buckingham C     0.0000000    eV*Ang^6  
--------------------------------------------------------------------------------

********************************************************************************
*  Output for configuration   1                                                *
********************************************************************************


  Components of energy : 

--------------------------------------------------------------------------------
  Interatomic potentials     =           5.13022605 eV    
  Monopole - monopole (real) =         -10.03624526 eV    
  Monopole - monopole (recip)=         -29.53581274 eV    
  Monopole - monopole (total)=         -39.57205800 eV    
--------------------------------------------------------------------------------
  Total lattice energy       =         -34.44183194 eV    
--------------------------------------------------------------------------------
  Total lattice energy       =           -3323.1103 kJ/(mole unit cells)
--------------------------------------------------------------------------------


  Number of variables =        1

  Maximum number of calculations  =          1000
  Maximum Hessian update interval =            10
  Maximum step size               =   1.000000000
  Maximum parameter tolerance     =   0.000010000
  Maximum function  tolerance     =   0.000010000
  Maximum gradient  tolerance     =   0.001000000
  Maximum gradient  component     =   0.010000000

  Symmetry constrained optimisation

  Symmetry used for second derivatives

  Cell parameters to be optimised using strains

  Newton-Raphson optimiser to be used

  BFGS hessian update to be used

  Lower half triangular hessian to be used

  Start of bulk optimisation :

  Cycle:      0 Energy:       -34.441832  Gnorm:      0.196570  CPU:    0.015
  ** Hessian calculated **
  Cycle:      1 Energy:       -34.441914  Gnorm:      0.000103  CPU:    0.019


  **** Optimisation achieved ****


  Final energy =     -34.44191447 eV
  Final Gnorm  =       0.00000000

  Components of energy : 

--------------------------------------------------------------------------------
  Interatomic potentials     =           5.09689708 eV    
  Monopole - monopole (real) =         -10.02781331 eV    
  Monopole - monopole (recip)=         -29.51099824 eV    
  Monopole - monopole (total)=         -39.53881155 eV    
--------------------------------------------------------------------------------
  Total lattice energy       =         -34.44191447 eV    
--------------------------------------------------------------------------------
  Total lattice energy       =           -3323.1183 kJ/(mole unit cells)
--------------------------------------------------------------------------------

  Final asymmetric unit coordinates :

--------------------------------------------------------------------------------
   No.  Atomic        x           y           z         Radius
        Label       (Frac)      (Frac)      (Frac)       (Angs) 
--------------------------------------------------------------------------------
     1  Cl    c     0.000000    0.000000    0.000000    0.000000
     2  O     c     0.500000    0.500000    0.500000    0.000000
     3  Na    c     0.500000    0.500000    0.000000    0.000000
     4  Cl    s     0.000000    0.000000    0.000000    0.000000
     5  O     s     0.500000    0.500000    0.500000    0.000000
--------------------------------------------------------------------------------

  Final Cartesian lattice vectors (Angstroms) :

        4.507787    0.000000    0.000000
        0.000000    4.507787    0.000000
        0.000000    0.000000    4.507787


  Final cell parameters and derivatives :

--------------------------------------------------------------------------------
       a            4.507787 Angstrom     dE/de1(xx)     0.000000 eV/strain
       b            4.507787 Angstrom     dE/de2(yy)     0.000000 eV/strain
       c            4.507787 Angstrom     dE/de3(zz)     0.000000 eV/strain
       alpha       90.000000 Degrees      dE/de4(yz)     0.000000 eV/strain
       beta        90.000000 Degrees      dE/de5(xz)     0.000000 eV/strain
       gamma       90.000000 Degrees      dE/de6(xy)     0.000000 eV/strain
--------------------------------------------------------------------------------

  Primitive cell volume =            91.598892 Angs**3

  Density of cell =      2.183054 g/cm**3

  Non-primitive cell volume =            91.598892 Angs**3


  Final internal derivatives :

--------------------------------------------------------------------------------
   No.  Atomic          a             b             c           Radius
        Label          (eV)          (eV)          (eV)        (eV/Angs)
--------------------------------------------------------------------------------
      1 Cl    c       0.000000      0.000000      0.000000      0.000000
      2 O     c       0.000000      0.000000      0.000000      0.000000
      3 Na    c       0.000000      0.000000      0.000000      0.000000
      4 Cl    s       0.000000      0.000000      0.000000      0.000000
      5 O     s       0.000000      0.000000      0.000000      0.000000
--------------------------------------------------------------------------------
  Maximum abs         0.000000      0.000000      0.000000      0.000000
--------------------------------------------------------------------------------

  Comparison of initial and final structures : 

--------------------------------------------------------------------------------
  Parameter   Initial value   Final value   Difference    Units      Percent
--------------------------------------------------------------------------------
    Volume        91.368216     91.598892     0.230676    Angs**3      0.25
    a              4.504000      4.507787     0.003787    Angstroms    0.08
    b              4.504000      4.507787     0.003787    Angstroms    0.08
    c              4.504000      4.507787     0.003787    Angstroms    0.08
    alpha         90.000000     90.000000     0.000000    Degrees      0.00
    beta          90.000000     90.000000     0.000000    Degrees      0.00
    gamma         90.000000     90.000000     0.000000    Degrees      0.00
      1 x          0.000000      0.000000     0.000000    Fractional   0.00
      1 y          0.000000      0.000000     0.000000    Fractional   0.00
      1 z          0.000000      0.000000     0.000000    Fractional   0.00
      2 x          0.500000      0.500000     0.000000    Fractional   0.00
      2 y          0.500000      0.500000     0.000000    Fractional   0.00
      2 z          0.500000      0.500000     0.000000    Fractional   0.00
      3 x          0.500000      0.500000     0.000000    Fractional   0.00
      3 y          0.500000      0.500000     0.000000    Fractional   0.00
      3 z          0.000000      0.000000     0.000000    Fractional   0.00
      4 x          0.000000      0.000000     0.000000    Fractional   0.00
      4 y          0.000000      0.000000     0.000000    Fractional   0.00
      4 z          0.000000      0.000000     0.000000    Fractional   0.00
      5 x          0.500000      0.500000     0.000000    Fractional   0.00
      5 y          0.500000      0.500000     0.000000    Fractional   0.00
      5 z          0.500000      0.500000     0.000000    Fractional   0.00
--------------------------------------------------------------------------------


  Born effective charge tensors : 

-------------------------------------------------------------------------------
  Atom             x           y             z
-------------------------------------------------------------------------------
    1 Cl    x      -1.0181     -0.0000      0.0000
            y      -0.0000     -1.0181      0.0000
            z       0.0000      0.0000     -1.0181
-------------------------------------------------------------------------------
    2 O     x      -2.2647      0.0000     -0.0000
            y       0.0000     -2.2647     -0.0000
            z      -0.0000     -0.0000     -2.2647
-------------------------------------------------------------------------------
    3 Na    x       1.2258     -0.0000      0.0000
            y      -0.0000      1.2258     -0.0000
            z       0.0000     -0.0000      0.8313
-------------------------------------------------------------------------------




  Elastic Constant Matrix: (Units=GPa)

-------------------------------------------------------------------------------
  Indices      1         2         3         4         5         6    
-------------------------------------------------------------------------------
       1     95.8177   20.0737   20.0737   -0.0000   -0.0000    0.0000
       2     20.0737   95.8177   20.0737   -0.0000   -0.0000    0.0000
       3     20.0737   20.0737   95.8177   -0.0000   -0.0000    0.0000
       4     -0.0000   -0.0000   -0.0000   20.0737   -0.0000    0.0000
       5     -0.0000   -0.0000   -0.0000   -0.0000   20.0737    0.0000
       6      0.0000    0.0000    0.0000    0.0000    0.0000   20.0737
-------------------------------------------------------------------------------


  Elastic Compliance Matrix: (Units=1/GPa)

-------------------------------------------------------------------------------
  Indices      1         2         3         4         5         6    
-------------------------------------------------------------------------------
       1    0.011253 -0.001949 -0.001949  0.000000  0.000000 -0.000000
       2   -0.001949  0.011253 -0.001949  0.000000  0.000000  0.000000
       3   -0.001949 -0.001949  0.011253  0.000000  0.000000 -0.000000
       4    0.000000  0.000000  0.000000  0.049816  0.000000 -0.000000
       5    0.000000  0.000000  0.000000  0.000000  0.049816 -0.000000
       6   -0.000000  0.000000 -0.000000 -0.000000 -0.000000  0.049816
-------------------------------------------------------------------------------

  Mechanical properties :

-------------------------------------------------------------------------------
  Convention :                    Reuss         Voigt         Hill
-------------------------------------------------------------------------------
  Bulk  Modulus (GPa)     =      45.32174      45.32174      45.32174
  Shear Modulus (GPa)     =      24.72085      27.19304      25.95695
-------------------------------------------------------------------------------
  Velocity S-wave (km/s)  =       3.36511       3.52937       3.44822
  Velocity P-wave (km/s)  =       5.98827       6.11304       6.05098
-------------------------------------------------------------------------------
  Compressibility (1/GPa) =    0.02206447
-------------------------------------------------------------------------------
  Stress axis :                     x             y             z
-------------------------------------------------------------------------------
  Youngs Moduli (GPa)     =      88.86373      88.86373      88.86373
-------------------------------------------------------------------------------
  Poissons Ratio (x)      =                     0.17321       0.17321
  Poissons Ratio (y)      =       0.17321                     0.17321
  Poissons Ratio (z)      =       0.17321       0.17321
-------------------------------------------------------------------------------


  Piezoelectric Strain Matrix: (Units=C/m**2)

-------------------------------------------------------------------------------
  Indices      1         2         3         4         5         6    
-------------------------------------------------------------------------------
       x    -0.00000  -0.00000  -0.00000   0.00000  -0.00000  -0.00000
       y    -0.00000  -0.00000   0.00000  -0.00000   0.00000   0.00000
       z    -0.00000  -0.00000  -0.00000  -0.00000   0.00000   0.00000
-------------------------------------------------------------------------------


  Piezoelectric Stress Matrix: (Units=10**-11 C/N)

-------------------------------------------------------------------------------
  Indices      1         2         3         4         5         6    
-------------------------------------------------------------------------------
       x    -0.00000   0.00000   0.00000   0.00000  -0.00000  -0.00000
       y    -0.00000  -0.00000   0.00000  -0.00000   0.00000   0.00000
       z     0.00000   0.00000  -0.00000  -0.00000   0.00000   0.00000
-------------------------------------------------------------------------------


  Static dielectric constant tensor : 

-------------------------------------------------------------------------------
              x         y         z
-------------------------------------------------------------------------------
       x    22.84729   0.00000   0.00000
       y     0.00000  22.84729  -0.00000
       z     0.00000  -0.00000  22.84729
--------------------------------------------------------------------------------

  High frequency dielectric constant tensor : 

-------------------------------------------------------------------------------
              x         y         z
-------------------------------------------------------------------------------
       x     1.47557   0.00000  -0.00000
       y     0.00000   1.47557  -0.00000
       z    -0.00000  -0.00000   1.47557
-------------------------------------------------------------------------------

  Static refractive indices : 

-------------------------------------------------------------------------------
    1 =    4.77988      2 =    4.77988      3 =    4.77988
-------------------------------------------------------------------------------

  High frequency refractive indices : 

-------------------------------------------------------------------------------
    1 =    1.21473      2 =    1.21473      3 =    1.21473
-------------------------------------------------------------------------------


  Time to end of optimisation =       0.0266 seconds

********************************************************************************
*  Defect calculation for configuration   1 :                                  *
********************************************************************************

  Total number of defects =      3

  Total charge on defect  =  -1.00

  Defect centre is at   0.5000   0.1100   0.3900  Frac

  Region 1 radius =  12.0000      Number of ions =    562

  Number of symmetry inequivalent region 1 ions  =    326

  Region 2 radius =  16.0000      Number of ions =    747

  Number of symmetry inequivalent region 2a ions =    407

  Region 2a mode = 4 : screened electrostatics due to region 1 
                       neglect correction to region 1 forces from 2a
                       region 2a displacements based on defects only

  Region 2a ions will only interact with defects in region 1

  Vacancies:

--------------------------------------------------------------------------------
    Specification type     Symbol/Number         x          y          z
--------------------------------------------------------------------------------
    Fractional                               0.500000   0.500000   0.000000
    Fractional                               0.500000   0.000000   0.500000
--------------------------------------------------------------------------------

  Interstitials:

--------------------------------------------------------------------------------
    Specification type     Symbol/Number         x          y          z
--------------------------------------------------------------------------------
    Atom/Fractional         Na               0.500000   0.110000   0.390000
--------------------------------------------------------------------------------


  Symmetry reduced region 1 (Relative to defect centre) :

--------------------------------------------------------------------------------
   No.   Atomic       x            y             z       Radius  Multiplicity   
         Label      (Angs)       (Angs)        (Angs)    (Angs)     
--------------------------------------------------------------------------------
     1  Na    c      0.0000       0.0000       0.0000 *  0.0000     1    Defect
     2  O     c      0.0000       1.7580 *     0.4959 *  0.0000     1          
     3  O     c      0.0000      -2.7498 *     0.4959 *  0.0000     1          
     4  Cl    c      2.2539 *    -0.4959 *    -1.7580 *  0.0000     2          
     5  Na    c      2.2539 *     1.7580 *     0.4959 *  0.0000     2          
     6  Na    c      0.0000       1.7580 *     2.7498 *  0.0000     1          
     7  Na    c      0.0000      -2.7498 *    -1.7580 *  0.0000     1          
     8  Cl    c      2.2539 *    -0.4959 *     2.7498 *  0.0000     2          
     9  Na    c      2.2539 *    -2.7498 *     0.4959 *  0.0000     2          
    10  Na    c      0.0000      -2.7498 *     2.7498 *  0.0000     1          
    11  Na    c      0.0000      -0.4959 *    -4.0119 *  0.0000     1          
    12  Na    c      0.0000       4.0119 *     0.4959 *  0.0000     1          
    13  O     c      0.0000       1.7580 *    -4.0119 *  0.0000     1          
    14  Na    c     -4.5078 *    -0.4959 *     0.4959 *  0.0000     2          
    15  O     c      0.0000      -2.7498 *    -4.0119 *  0.0000     1          
    16  O     c     -4.5078 *     1.7580 *     0.4959 *  0.0000     2          
    17  Cl    c      2.2539 *     4.0119 *    -1.7580 *  0.0000     2          
    18  Na    c      2.2539 *     1.7580 *    -4.0119 *  0.0000     2          
    19  Na    c      0.0000      -0.4959 *     5.0036 *  0.0000     1          
    20  Na    c      0.0000      -5.0036 *     0.4959 *  0.0000     1          
    21  Na    c     -4.5078 *     1.7580 *    -1.7580 *  0.0000     2          
    22  O     c     -4.5078 *    -2.7498 *     0.4959 *  0.0000     2          
    23  O     c      0.0000       1.7580 *     5.0036 *  0.0000     1          
    24  Cl    c      2.2539 *     4.0119 *     2.7498 *  0.0000     2          
    25  Na    c      2.2539 *    -2.7498 *    -4.0119 *  0.0000     2          
    26  Na    c     -4.5078 *    -2.7498 *    -1.7580 *  0.0000     2          
    27  Na    c     -4.5078 *     1.7580 *     2.7498 *  0.0000     2          
    28  Na    c      0.0000       4.0119 *    -4.0119 *  0.0000     1          
    29  O     c      0.0000      -2.7498 *     5.0036 *  0.0000     1          
    30  Cl    c      2.2539 *    -5.0036 *    -1.7580 *  0.0000     2          
    31  Na    c      2.2539 *     1.7580 *     5.0036 *  0.0000     2          
    32  Na    c      4.5078 *    -2.7498 *     2.7498 *  0.0000     2          
    33  Na    c     -4.5078 *    -0.4959 *    -4.0119 *  0.0000     2          
    34  Na    c     -4.5078 *     4.0119 *     0.4959 *  0.0000     2          
    35  Cl    c      2.2539 *    -5.0036 *     2.7498 *  0.0000     2          
    36  Na    c      2.2539 *    -2.7498 *     5.0036 *  0.0000     2          
    37  O     c      0.0000       6.2658 *     0.4959 *  0.0000     1          
    38  O     c     -4.5078 *     1.7580 *    -4.0119 *  0.0000     2          
    39  Na    c      0.0000       4.0119 *     5.0036 *  0.0000     1          
    40  Na    c      0.0000      -5.0036 *    -4.0119 *  0.0000     1          
    41  Na    c      0.0000       6.2658 *    -1.7580 *  0.0000     1          
    42  Na    c      0.0000       1.7580 *    -6.2658 *  0.0000     1          
    43  O     c     -4.5078 *    -2.7498 *    -4.0119 *  0.0000     2          
    44  Na    c      2.2539 *     6.2658 *     0.4959 *  0.0000     2          
    45  Cl    c      2.2539 *    -0.4959 *    -6.2658 *  0.0000     2          
    46  Na    c     -4.5078 *    -0.4959 *     5.0036 *  0.0000     2          
    47  Na    c     -4.5078 *    -5.0036 *     0.4959 *  0.0000     2          
    48  Na    c      0.0000       6.2658 *     2.7498 *  0.0000     1          
    49  Na    c      0.0000      -2.7498 *    -6.2658 *  0.0000     1          
    50  O     c     -4.5078 *     1.7580 *     5.0036 *  0.0000     2          
    51  Cl    c      6.7617 *    -0.4959 *    -1.7580 *  0.0000     2          
    52  Na    c      6.7617 *     1.7580 *     0.4959 *  0.0000     2          
    53  Na    c      0.0000      -5.0036 *     5.0036 *  0.0000     1          
    54  Na    c     -4.5078 *     4.0119 *    -4.0119 *  0.0000     2          
    55  O     c      0.0000      -7.2575 *     0.4959 *  0.0000     1          
    56  O     c     -4.5078 *    -2.7498 *     5.0036 *  0.0000     2          
    57  Cl    c      6.7617 *    -0.4959 *     2.7498 *  0.0000     2          
    58  Na    c      6.7617 *    -2.7498 *     0.4959 *  0.0000     2          
    59  O     c      0.0000       6.2658 *    -4.0119 *  0.0000     1          
    60  Na    c      0.0000       1.7580 *     7.2575 *  0.0000     1          
    61  Na    c      0.0000      -7.2575 *    -1.7580 *  0.0000     1          
    62  Cl    c      2.2539 *    -0.4959 *     7.2575 *  0.0000     2          
    63  Na    c      2.2539 *    -7.2575 *     0.4959 *  0.0000     2          
    64  O     c     -4.5078 *     6.2658 *     0.4959 *  0.0000     2          
    65  Na    c      0.0000      -2.7498 *     7.2575 *  0.0000     1          
    66  Na    c      0.0000      -7.2575 *     2.7498 *  0.0000     1          
    67  Na    c      2.2539 *     6.2658 *    -4.0119 *  0.0000     2          
    68  Cl    c      2.2539 *     4.0119 *    -6.2658 *  0.0000     2          
    69  Na    c     -4.5078 *     4.0119 *     5.0036 *  0.0000     2          
    70  Na    c     -4.5078 *    -5.0036 *    -4.0119 *  0.0000     2          
    71  Na    c     -4.5078 *     6.2658 *    -1.7580 *  0.0000     2          
    72  Na    c      4.5078 *     1.7580 *    -6.2658 *  0.0000     2          
    73  O     c      0.0000       6.2658 *     5.0036 *  0.0000     1          
    74  Cl    c      6.7617 *     4.0119 *    -1.7580 *  0.0000     2          
    75  Na    c      6.7617 *     1.7580 *    -4.0119 *  0.0000     2          
    76  Na    c     -4.5078 *    -2.7498 *    -6.2658 *  0.0000     2          
    77  Na    c     -4.5078 *     6.2658 *     2.7498 *  0.0000     2          
    78  O     c      0.0000      -7.2575 *    -4.0119 *  0.0000     1          
    79  Cl    c      2.2539 *    -5.0036 *    -6.2658 *  0.0000     2          
    80  Na    c      2.2539 *     6.2658 *     5.0036 *  0.0000     2          
    81  Cl    c      6.7617 *     4.0119 *     2.7498 *  0.0000     2          
    82  Na    c      6.7617 *    -2.7498 *    -4.0119 *  0.0000     2          
    83  Na    c     -4.5078 *    -5.0036 *     5.0036 *  0.0000     2          
    84  Na    c      0.0000      -0.4959 *    -8.5197 *  0.0000     1          
    85  Na    c      0.0000       8.5197 *     0.4959 *  0.0000     1          
    86  O     c     -4.5078 *    -7.2575 *     0.4959 *  0.0000     2          
    87  Cl    c      2.2539 *     4.0119 *     7.2575 *  0.0000     2          
    88  Na    c      2.2539 *    -7.2575 *    -4.0119 *  0.0000     2          
    89  Cl    c      6.7617 *    -5.0036 *    -1.7580 *  0.0000     2          
    90  Na    c      6.7617 *     1.7580 *     5.0036 *  0.0000     2          
    91  O     c     -4.5078 *     6.2658 *    -4.0119 *  0.0000     2          
    92  O     c      0.0000       1.7580 *    -8.5197 *  0.0000     1          
    93  Na    c     -4.5078 *     1.7580 *     7.2575 *  0.0000     2          
    94  Na    c     -4.5078 *    -7.2575 *    -1.7580 *  0.0000     2          
    95  O     c      0.0000      -7.2575 *     5.0036 *  0.0000     1          
    96  Cl    c      6.7617 *    -5.0036 *     2.7498 *  0.0000     2          
    97  Na    c      6.7617 *    -2.7498 *     5.0036 *  0.0000     2          
    98  Na    c      0.0000       6.2658 *    -6.2658 *  0.0000     1          
    99  O     c      0.0000      -2.7498 *    -8.5197 *  0.0000     1          
   100  Na    c      4.5078 *    -2.7498 *     7.2575 *  0.0000     2          
   101  Na    c     -4.5078 *    -7.2575 *     2.7498 *  0.0000     2          
   102  Cl    c      2.2539 *     8.5197 *    -1.7580 *  0.0000     2          
   103  Na    c      2.2539 *     1.7580 *    -8.5197 *  0.0000     2          
   104  Na    c      9.0156 *    -0.4959 *     0.4959 *  0.0000     2          
   105  Cl    c      2.2539 *    -5.0036 *     7.2575 *  0.0000     2          
   106  Na    c      2.2539 *    -7.2575 *     5.0036 *  0.0000     2          
   107  O     c     -4.5078 *     6.2658 *     5.0036 *  0.0000     2          
   108  O     c      9.0156 *     1.7580 *     0.4959 *  0.0000     2          
   109  Na    c      6.7617 *     6.2658 *     0.4959 *  0.0000     2          
   110  Cl    c      2.2539 *     8.5197 *     2.7498 *  0.0000     2          
   111  Cl    c      6.7617 *    -0.4959 *    -6.2658 *  0.0000     2          
   112  Na    c      2.2539 *    -2.7498 *    -8.5197 *  0.0000     2          
   113  Na    c      9.0156 *     1.7580 *    -1.7580 *  0.0000     2          
   114  Na    c      0.0000       4.0119 *    -8.5197 *  0.0000     1          
   115  Na    c      0.0000       8.5197 *    -4.0119 *  0.0000     1          
   116  O     c     -4.5078 *    -7.2575 *    -4.0119 *  0.0000     2          
   117  O     c      9.0156 *    -2.7498 *     0.4959 *  0.0000     2          
   118  Na    c      0.0000      -0.4959 *     9.5114 *  0.0000     1          
   119  Na    c      0.0000      -9.5114 *     0.4959 *  0.0000     1          
   120  Na    c      0.0000       6.2658 *     7.2575 *  0.0000     1          
   121  Na    c      0.0000      -7.2575 *    -6.2658 *  0.0000     1          
   122  Na    c      9.0156 *    -2.7498 *    -1.7580 *  0.0000     2          
   123  Na    c      9.0156 *     1.7580 *     2.7498 *  0.0000     2          
   124  Na    c      4.5078 *    -0.4959 *    -8.5197 *  0.0000     2          
   125  Na    c     -4.5078 *     8.5197 *     0.4959 *  0.0000     2          
   126  O     c      0.0000       1.7580 *     9.5114 *  0.0000     1          
   127  O     c     -4.5078 *     1.7580 *    -8.5197 *  0.0000     2          
   128  Na    c      9.0156 *    -2.7498 *     2.7498 *  0.0000     2          
   129  Na    c      9.0156 *    -0.4959 *    -4.0119 *  0.0000     2          
   130  Na    c      9.0156 *     4.0119 *     0.4959 *  0.0000     2          
   131  Na    c      0.0000       8.5197 *     5.0036 *  0.0000     1          
   132  Na    c      0.0000      -5.0036 *    -8.5197 *  0.0000     1          
   133  O     c      0.0000      -2.7498 *     9.5114 *  0.0000     1          
   134  O     c     -4.5078 *    -7.2575 *     5.0036 *  0.0000     2          
   135  Cl    c      2.2539 *    -9.5114 *    -1.7580 *  0.0000     2          
   136  Na    c      2.2539 *     1.7580 *     9.5114 *  0.0000     2          
   137  Cl    c      6.7617 *    -0.4959 *     7.2575 *  0.0000     2          
   138  Na    c      6.7617 *    -7.2575 *     0.4959 *  0.0000     2          
   139  Na    c     -4.5078 *     6.2658 *    -6.2658 *  0.0000     2          
   140  O     c      9.0156 *     1.7580 *    -4.0119 *  0.0000     2          
   141  O     c      4.5078 *    -2.7498 *    -8.5197 *  0.0000     2          
   142  Na    c      6.7617 *     6.2658 *    -4.0119 *  0.0000     2          
   143  Cl    c      6.7617 *     4.0119 *    -6.2658 *  0.0000     2          
   144  Cl    c      2.2539 *    -9.5114 *     2.7498 *  0.0000     2          
   145  Na    c      2.2539 *    -2.7498 *     9.5114 *  0.0000     2          
   146  O     c      9.0156 *    -2.7498 *    -4.0119 *  0.0000     2          
   147  Na    c      0.0000      -7.2575 *     7.2575 *  0.0000     1          
   148  Na    c      0.0000       4.0119 *     9.5114 *  0.0000     1          
   149  Na    c      0.0000      -9.5114 *    -4.0119 *  0.0000     1          
   150  Na    c      9.0156 *    -0.4959 *     5.0036 *  0.0000     2          
   151  Na    c      9.0156 *    -5.0036 *     0.4959 *  0.0000     2          
   152  Na    c     -4.5078 *     4.0119 *    -8.5197 *  0.0000     2          
   153  Na    c     -4.5078 *     8.5197 *    -4.0119 *  0.0000     2          
   154  O     c      9.0156 *     1.7580 *     5.0036 *  0.0000     2          
   155  Na    c      6.7617 *     6.2658 *     5.0036 *  0.0000     2          
   156  Cl    c      6.7617 *    -5.0036 *    -6.2658 *  0.0000     2          
   157  Na    c     -4.5078 *    -0.4959 *     9.5114 *  0.0000     2          
   158  Na    c     -4.5078 *    -9.5114 *     0.4959 *  0.0000     2          
   159  O     c      0.0000       6.2658 *    -8.5197 *  0.0000     1          
   160  Na    c     -4.5078 *     6.2658 *     7.2575 *  0.0000     2          
   161  Na    c     -4.5078 *    -7.2575 *    -6.2658 *  0.0000     2          
   162  Na    c      9.0156 *     4.0119 *    -4.0119 *  0.0000     2          
   163  O     c     -4.5078 *     1.7580 *     9.5114 *  0.0000     2          
   164  O     c      9.0156 *    -2.7498 *     5.0036 *  0.0000     2          
   165  Cl    c      6.7617 *     4.0119 *     7.2575 *  0.0000     2          
   166  Na    c      6.7617 *    -7.2575 *    -4.0119 *  0.0000     2          
   167  Na    c      0.0000      -5.0036 *     9.5114 *  0.0000     1          
   168  Na    c      0.0000      -9.5114 *     5.0036 *  0.0000     1          
   169  O     c      0.0000      10.7736 *     0.4959 *  0.0000     1          
   170  Cl    c      2.2539 *     8.5197 *    -6.2658 *  0.0000     2          
   171  Na    c      2.2539 *     6.2658 *    -8.5197 *  0.0000     2          
   172  Na    c     -4.5078 *     8.5197 *     5.0036 *  0.0000     2          
   173  Na    c     -4.5078 *    -5.0036 *    -8.5197 *  0.0000     2          
   174  O     c     -4.5078 *    -2.7498 *     9.5114 *  0.0000     2          
   175  Na    c      0.0000      10.7736 *    -1.7580 *  0.0000     1          
   176  Na    c      0.0000       1.7580 *   -10.7736 *  0.0000     1          
   177  O     c      9.0156 *     6.2658 *     0.4959 *  0.0000     2          
   178  Na    c      2.2539 *    10.7736 *     0.4959 *  0.0000     2          
   179  Cl    c      2.2539 *    -0.4959 *   -10.7736 *  0.0000     2          
   180  Cl    c      6.7617 *     8.5197 *    -1.7580 *  0.0000     2          
   181  Na    c      6.7617 *     1.7580 *    -8.5197 *  0.0000     2          
   182  Na    c      9.0156 *     4.0119 *     5.0036 *  0.0000     2          
   183  Na    c      9.0156 *    -5.0036 *    -4.0119 *  0.0000     2          
   184  Cl    c      6.7617 *    -5.0036 *     7.2575 *  0.0000     2          
   185  Na    c      6.7617 *    -7.2575 *     5.0036 *  0.0000     2          
   186  Na    c      0.0000      10.7736 *     2.7498 *  0.0000     1          
   187  Na    c      9.0156 *     6.2658 *    -1.7580 *  0.0000     2          
   188  Na    c      0.0000      -2.7498 *   -10.7736 *  0.0000     1          
   189  Na    c      9.0156 *     1.7580 *    -6.2658 *  0.0000     2          
   190  O     c      0.0000      -7.2575 *    -8.5197 *  0.0000     1          
   191  Na    c     -4.5078 *    -7.2575 *     7.2575 *  0.0000     2          
   192  Cl    c      6.7617 *     8.5197 *     2.7498 *  0.0000     2          
   193  Na    c      6.7617 *    -2.7498 *    -8.5197 *  0.0000     2          
   194  Na    c     -4.5078 *     4.0119 *     9.5114 *  0.0000     2          
   195  Na    c     -4.5078 *    -9.5114 *    -4.0119 *  0.0000     2          
   196  Na    c      9.0156 *     6.2658 *     2.7498 *  0.0000     2          
   197  Na    c      9.0156 *    -2.7498 *    -6.2658 *  0.0000     2          
   198  O     c      0.0000       6.2658 *     9.5114 *  0.0000     1          
   199  Cl    c     11.2695 *    -0.4959 *    -1.7580 *  0.0000     2          
   200  Na    c     11.2695 *     1.7580 *     0.4959 *  0.0000     2          
   201  Cl    c      2.2539 *     8.5197 *     7.2575 *  0.0000     2          
   202  Na    c      2.2539 *    -7.2575 *    -8.5197 *  0.0000     2          
   203  Na    c      9.0156 *    -5.0036 *     5.0036 *  0.0000     2          
   204  O     c      0.0000      10.7736 *    -4.0119 *  0.0000     1          
   205  O     c      4.5078 *     6.2658 *    -8.5197 *  0.0000     2          
   206  O     c      9.0156 *    -7.2575 *     0.4959 *  0.0000     2          
   207  Cl    c      2.2539 *    -9.5114 *    -6.2658 *  0.0000     2          
   208  Cl    c     11.2695 *    -0.4959 *     2.7498 *  0.0000     2          
   209  Na    c      2.2539 *     6.2658 *     9.5114 *  0.0000     2          
   210  Na    c     11.2695 *    -2.7498 *     0.4959 *  0.0000     2          
   211  Na    c      4.5078 *    -5.0036 *     9.5114 *  0.0000     2          
   212  Na    c      4.5078 *    -9.5114 *     5.0036 *  0.0000     2          
   213  O     c      4.5078 *    10.7736 *     0.4959 *  0.0000     2          
   214  O     c      9.0156 *     6.2658 *    -4.0119 *  0.0000     2          
   215  Na    c      9.0156 *     1.7580 *     7.2575 *  0.0000     2          
   216  Na    c      9.0156 *    -7.2575 *    -1.7580 *  0.0000     2          
   217  Na    c      2.2539 *    10.7736 *    -4.0119 *  0.0000     2          
   218  Cl    c      2.2539 *     4.0119 *   -10.7736 *  0.0000     2          
   219  O     c      0.0000     -11.7653 *     0.4959 *  0.0000     1          
   220  Cl    c      6.7617 *    -9.5114 *    -1.7580 *  0.0000     2          
   221  Na    c      6.7617 *     1.7580 *     9.5114 *  0.0000     2          
   222  Na    c      4.5078 *    10.7736 *    -1.7580 *  0.0000     2          
   223  Na    c      4.5078 *     1.7580 *   -10.7736 *  0.0000     2          
   224  O     c      0.0000      10.7736 *     5.0036 *  0.0000     1          
   225  Na    c      9.0156 *    -2.7498 *     7.2575 *  0.0000     2          
   226  Na    c      9.0156 *    -7.2575 *     2.7498 *  0.0000     2          
   227  Na    c      0.0000       1.7580 *    11.7653 *  0.0000     1          
   228  Na    c      0.0000     -11.7653 *    -1.7580 *  0.0000     1          
   229  O     c      0.0000      -7.2575 *     9.5114 *  0.0000     1          
   230  Cl    c      6.7617 *    -9.5114 *     2.7498 *  0.0000     2          
   231  Na    c      6.7617 *    -2.7498 *     9.5114 *  0.0000     2          
   232  Cl    c      2.2539 *    -0.4959 *    11.7653 *  0.0000     2          
   233  Na    c      2.2539 *   -11.7653 *     0.4959 *  0.0000     2          
   234  Na    c      4.5078 *    10.7736 *     2.7498 *  0.0000     2          
   235  Na    c      4.5078 *    -2.7498 *   -10.7736 *  0.0000     2          
   236  O     s      0.0000       1.7580 *     0.4959 *  0.0000     1          
   237  O     s      0.0000      -2.7498 *     0.4959 *  0.0000     1          
   238  Cl    s      2.2539 *    -0.4959 *    -1.7580 *  0.0000     2          
   239  Cl    s      2.2539 *    -0.4959 *     2.7498 *  0.0000     2          
   240  O     s      0.0000       1.7580 *    -4.0119 *  0.0000     1          
   241  O     s      0.0000      -2.7498 *    -4.0119 *  0.0000     1          
   242  O     s     -4.5078 *     1.7580 *     0.4959 *  0.0000     2          
   243  Cl    s      2.2539 *     4.0119 *    -1.7580 *  0.0000     2          
   244  O     s     -4.5078 *    -2.7498 *     0.4959 *  0.0000     2          
   245  O     s      0.0000       1.7580 *     5.0036 *  0.0000     1          
   246  Cl    s      2.2539 *     4.0119 *     2.7498 *  0.0000     2          
   247  O     s      0.0000      -2.7498 *     5.0036 *  0.0000     1          
   248  Cl    s      2.2539 *    -5.0036 *    -1.7580 *  0.0000     2          
   249  Cl    s      2.2539 *    -5.0036 *     2.7498 *  0.0000     2          
   250  O     s      0.0000       6.2658 *     0.4959 *  0.0000     1          
   251  O     s     -4.5078 *     1.7580 *    -4.0119 *  0.0000     2          
   252  O     s     -4.5078 *    -2.7498 *    -4.0119 *  0.0000     2          
   253  Cl    s      2.2539 *    -0.4959 *    -6.2658 *  0.0000     2          
   254  O     s     -4.5078 *     1.7580 *     5.0036 *  0.0000     2          
   255  Cl    s      6.7617 *    -0.4959 *    -1.7580 *  0.0000     2          
   256  O     s      0.0000      -7.2575 *     0.4959 *  0.0000     1          
   257  O     s     -4.5078 *    -2.7498 *     5.0036 *  0.0000     2          
   258  Cl    s      6.7617 *    -0.4959 *     2.7498 *  0.0000     2          
   259  O     s      0.0000       6.2658 *    -4.0119 *  0.0000     1          
   260  Cl    s      2.2539 *    -0.4959 *     7.2575 *  0.0000     2          
   261  O     s     -4.5078 *     6.2658 *     0.4959 *  0.0000     2          
   262  Cl    s      2.2539 *     4.0119 *    -6.2658 *  0.0000     2          
   263  O     s      0.0000       6.2658 *     5.0036 *  0.0000     1          
   264  Cl    s      6.7617 *     4.0119 *    -1.7580 *  0.0000     2          
   265  O     s      0.0000      -7.2575 *    -4.0119 *  0.0000     1          
   266  Cl    s      2.2539 *    -5.0036 *    -6.2658 *  0.0000     2          
   267  Cl    s      6.7617 *     4.0119 *     2.7498 *  0.0000     2          
   268  O     s     -4.5078 *    -7.2575 *     0.4959 *  0.0000     2          
   269  Cl    s      2.2539 *     4.0119 *     7.2575 *  0.0000     2          
   270  Cl    s      6.7617 *    -5.0036 *    -1.7580 *  0.0000     2          
   271  O     s     -4.5078 *     6.2658 *    -4.0119 *  0.0000     2          
   272  O     s      0.0000       1.7580 *    -8.5197 *  0.0000     1          
   273  O     s      0.0000      -7.2575 *     5.0036 *  0.0000     1          
   274  Cl    s      6.7617 *    -5.0036 *     2.7498 *  0.0000     2          
   275  O     s      0.0000      -2.7498 *    -8.5197 *  0.0000     1          
   276  Cl    s      2.2539 *     8.5197 *    -1.7580 *  0.0000     2          
   277  Cl    s      2.2539 *    -5.0036 *     7.2575 *  0.0000     2          
   278  O     s     -4.5078 *     6.2658 *     5.0036 *  0.0000     2          
   279  O     s      9.0156 *     1.7580 *     0.4959 *  0.0000     2          
   280  Cl    s      2.2539 *     8.5197 *     2.7498 *  0.0000     2          
   281  Cl    s      6.7617 *    -0.4959 *    -6.2658 *  0.0000     2          
   282  O     s     -4.5078 *    -7.2575 *    -4.0119 *  0.0000     2          
   283  O     s      9.0156 *    -2.7498 *     0.4959 *  0.0000     2          
   284  O     s      0.0000       1.7580 *     9.5114 *  0.0000     1          
   285  O     s     -4.5078 *     1.7580 *    -8.5197 *  0.0000     2          
   286  O     s      0.0000      -2.7498 *     9.5114 *  0.0000     1          
   287  O     s     -4.5078 *    -7.2575 *     5.0036 *  0.0000     2          
   288  Cl    s      2.2539 *    -9.5114 *    -1.7580 *  0.0000     2          
   289  Cl    s      6.7617 *    -0.4959 *     7.2575 *  0.0000     2          
   290  O     s      9.0156 *     1.7580 *    -4.0119 *  0.0000     2          
   291  O     s      4.5078 *    -2.7498 *    -8.5197 *  0.0000     2          
   292  Cl    s      6.7617 *     4.0119 *    -6.2658 *  0.0000     2          
   293  Cl    s      2.2539 *    -9.5114 *     2.7498 *  0.0000     2          
   294  O     s      9.0156 *    -2.7498 *    -4.0119 *  0.0000     2          
   295  O     s      9.0156 *     1.7580 *     5.0036 *  0.0000     2          
   296  Cl    s      6.7617 *    -5.0036 *    -6.2658 *  0.0000     2          
   297  O     s      0.0000       6.2658 *    -8.5197 *  0.0000     1          
   298  O     s     -4.5078 *     1.7580 *     9.5114 *  0.0000     2          
   299  O     s      9.0156 *    -2.7498 *     5.0036 *  0.0000     2          
   300  Cl    s      6.7617 *     4.0119 *     7.2575 *  0.0000     2          
   301  O     s      0.0000      10.7736 *     0.4959 *  0.0000     1          
   302  Cl    s      2.2539 *     8.5197 *    -6.2658 *  0.0000     2          
   303  O     s     -4.5078 *    -2.7498 *     9.5114 *  0.0000     2          
   304  O     s      9.0156 *     6.2658 *     0.4959 *  0.0000     2          
   305  Cl    s      2.2539 *    -0.4959 *   -10.7736 *  0.0000     2          
   306  Cl    s      6.7617 *     8.5197 *    -1.7580 *  0.0000     2          
   307  Cl    s      6.7617 *    -5.0036 *     7.2575 *  0.0000     2          
   308  O     s      0.0000      -7.2575 *    -8.5197 *  0.0000     1          
   309  Cl    s      6.7617 *     8.5197 *     2.7498 *  0.0000     2          
   310  O     s      0.0000       6.2658 *     9.5114 *  0.0000     1          
   311  Cl    s     11.2695 *    -0.4959 *    -1.7580 *  0.0000     2          
   312  Cl    s      2.2539 *     8.5197 *     7.2575 *  0.0000     2          
   313  O     s      0.0000      10.7736 *    -4.0119 *  0.0000     1          
   314  O     s      4.5078 *     6.2658 *    -8.5197 *  0.0000     2          
   315  O     s      9.0156 *    -7.2575 *     0.4959 *  0.0000     2          
   316  Cl    s      2.2539 *    -9.5114 *    -6.2658 *  0.0000     2          
   317  Cl    s     11.2695 *    -0.4959 *     2.7498 *  0.0000     2          
   318  O     s      4.5078 *    10.7736 *     0.4959 *  0.0000     2          
   319  O     s      9.0156 *     6.2658 *    -4.0119 *  0.0000     2          
   320  Cl    s      2.2539 *     4.0119 *   -10.7736 *  0.0000     2          
   321  O     s      0.0000     -11.7653 *     0.4959 *  0.0000     1          
   322  Cl    s      6.7617 *    -9.5114 *    -1.7580 *  0.0000     2          
   323  O     s      0.0000      10.7736 *     5.0036 *  0.0000     1          
   324  O     s      0.0000      -7.2575 *     9.5114 *  0.0000     1          
   325  Cl    s      6.7617 *    -9.5114 *     2.7498 *  0.0000     2          
   326  Cl    s      2.2539 *    -0.4959 *    11.7653 *  0.0000     2          
--------------------------------------------------------------------------------

  Components of defect energy : 

--------------------------------------------------------------------------------
  Region 1 - region 1                   =     -3.42138814 eV
  Region 1 - region 2a (unrelaxed)      =     12.24181030 eV
  Region 1 - 2a (relaxed - correction)  =     -0.28880746 eV
  Region 1 (Total)                      =      8.53161470 eV
  Region 2a                             =      0.14431842 eV
  Region 2b                             =     -0.43372545 eV
--------------------------------------------------------------------------------
  Total defect energy                   =      8.24220766 eV
--------------------------------------------------------------------------------

  Largest displacement in region 2 =   0.0254 Angstroms


  Number of variables =      887

  Maximum number of calculations  =        1000
  Maximum Hessian update interval =          10
  Maximum step size               =   1.0000000
  Maximum parameter tolerance     =   0.0000100
  Maximum function  tolerance     =   0.0000100
  Maximum gradient  tolerance     =   0.0010000

  Symmetry adapted optimisation

  Symmetry to be used for second derivatives

  Newton-Raphson optimiser to be used

  BFGS hessian update to be used

  Lower half triangular hessian to be used

  Start of defect optimisation :

  Cycle:      0 Defect Energy:   8.242208  Gnorm:     0.018712  CPU:    0.995
  ** Hessian calculated **
  Cycle:      1 Defect Energy:   7.562217  Gnorm:     0.016217  CPU:   11.909
  ** Hessian calculated **
  Cycle:      2 Defect Energy:   6.604846  Gnorm:     0.011921  CPU:   19.248
  Cycle:      3 Defect Energy:   6.195966  Gnorm:     0.008329  CPU:   24.562
  ** Hessian calculated **
  Cycle:      4 Defect Energy:   5.699705  Gnorm:     0.003532  CPU:   29.642
  Cycle:      5 Defect Energy:   5.609244  Gnorm:     0.002425  CPU:   30.614
  Cycle:      6 Defect Energy:   5.519193  Gnorm:     0.001798  CPU:   31.515
  Cycle:      7 Defect Energy:   5.438658  Gnorm:     0.001277  CPU:   32.420
  Cycle:      8 Defect Energy:   5.369212  Gnorm:     0.001109  CPU:   33.327
  Cycle:      9 Defect Energy:   5.310473  Gnorm:     0.001165  CPU:   34.250
  Cycle:     10 Defect Energy:   5.256618  Gnorm:     0.001287  CPU:   35.107
  Cycle:     11 Defect Energy:   5.207525  Gnorm:     0.001510  CPU:   38.911
  Cycle:     12 Defect Energy:   5.159641  Gnorm:     0.001514  CPU:   40.870
  Cycle:     13 Defect Energy:   5.109706  Gnorm:     0.001578  CPU:   42.027
  ** Hessian calculated **
  Cycle:     14 Defect Energy:   5.061071  Gnorm:     0.001479  CPU:   44.949
  ** Hessian calculated **
  Cycle:     15 Defect Energy:   4.970886  Gnorm:     0.001454  CPU:   47.941
  Cycle:     16 Defect Energy:   4.840760  Gnorm:     0.001123  CPU:   48.994
  Cycle:     17 Defect Energy:   4.996680  Gnorm:     0.001904  CPU:   50.112
  ** Hessian calculated **
  Cycle:     18 Defect Energy:   4.951791  Gnorm:     0.001112  CPU:   52.837
  Cycle:     19 Defect Energy:   4.913218  Gnorm:     0.000870  CPU:   53.847
  Cycle:     20 Defect Energy:   4.880787  Gnorm:     0.000751  CPU:   54.955
  Cycle:     21 Defect Energy:   4.855278  Gnorm:     0.000671  CPU:   55.909
  Cycle:     22 Defect Energy:   4.836976  Gnorm:     0.000607  CPU:   56.921
  Cycle:     23 Defect Energy:   4.824050  Gnorm:     0.000601  CPU:   57.913
  Cycle:     24 Defect Energy:   4.814123  Gnorm:     0.000609  CPU:   58.878
  Cycle:     25 Defect Energy:   4.805840  Gnorm:     0.000613  CPU:   59.968
  Cycle:     26 Defect Energy:   4.798647  Gnorm:     0.000634  CPU:   60.973
  Cycle:     27 Defect Energy:   4.791486  Gnorm:     0.000664  CPU:   61.941
  ** Hessian calculated **
  Cycle:     28 Defect Energy:   4.784335  Gnorm:     0.000640  CPU:   64.498
  Cycle:     29 Defect Energy:   4.775762  Gnorm:     0.000586  CPU:   65.449
  ** Hessian calculated **
  Cycle:     30 Defect Energy:   4.774800  Gnorm:     0.000571  CPU:   67.870
  Cycle:     31 Defect Energy:   4.773406  Gnorm:     0.000565  CPU:   68.871
  Cycle:     32 Defect Energy:   4.771345  Gnorm:     0.000560  CPU:   69.557
  Cycle:     33 Defect Energy:   4.768273  Gnorm:     0.000555  CPU:   72.395
  Cycle:     34 Defect Energy:   4.763685  Gnorm:     0.000553  CPU:   75.137
  Cycle:     35 Defect Energy:   4.756793  Gnorm:     0.000560  CPU:   76.293
  Cycle:     36 Defect Energy:   4.746483  Gnorm:     0.000594  CPU:   77.404
  Cycle:     37 Defect Energy:   4.731344  Gnorm:     0.000683  CPU:   78.509
  Cycle:     38 Defect Energy:   4.710832  Gnorm:     0.000884  CPU:   79.698
  Cycle:     39 Defect Energy:   4.692443  Gnorm:     0.001187  CPU:   80.772
  ** Hessian calculated **
  Cycle:     40 Defect Energy:   4.678384  Gnorm:     0.000851  CPU:   83.595
  Cycle:     41 Defect Energy:   4.661569  Gnorm:     0.000776  CPU:   84.665
  Cycle:     42 Defect Energy:   4.640076  Gnorm:     0.000739  CPU:   85.798
  Cycle:     43 Defect Energy:   4.613129  Gnorm:     0.000743  CPU:   86.822
  Cycle:     44 Defect Energy:   4.582172  Gnorm:     0.000801  CPU:   87.845
  Cycle:     45 Defect Energy:   4.557568  Gnorm:     0.000876  CPU:   88.872
  Cycle:     46 Defect Energy:   4.538891  Gnorm:     0.000946  CPU:   89.926
  Cycle:     47 Defect Energy:   4.525437  Gnorm:     0.000974  CPU:   91.017
  Cycle:     48 Defect Energy:   4.514570  Gnorm:     0.001003  CPU:   92.015
  Cycle:     49 Defect Energy:   4.503437  Gnorm:     0.001016  CPU:   92.997
  ** Hessian calculated **
  Cycle:     50 Defect Energy:   4.486350  Gnorm:     0.000946  CPU:   95.698
  Cycle:     51 Defect Energy:   4.458193  Gnorm:     0.000806  CPU:   96.632
  Cycle:     52 Defect Energy:   4.426146  Gnorm:     0.000579  CPU:   97.583
  Cycle:     53 Defect Energy:   4.405843  Gnorm:     0.000420  CPU:   98.540
  Cycle:     54 Defect Energy:   4.392583  Gnorm:     0.000175  CPU:   99.654
  Cycle:     55 Defect Energy:   4.391773  Gnorm:     0.000137  CPU:  100.580
  Cycle:     56 Defect Energy:   4.391106  Gnorm:     0.000083  CPU:  101.482
  Cycle:     57 Defect Energy:   4.390938  Gnorm:     0.000059  CPU:  102.373
  Cycle:     58 Defect Energy:   4.390678  Gnorm:     0.000032  CPU:  103.304


  **** Optimisation achieved ****


  Final defect energy  =        4.39068306
  Final defect Gnorm   =        0.00001919

  Components of defect energy : 

--------------------------------------------------------------------------------
  Region 1 - region 1                   =     -6.37178995 eV
  Region 1 - region 2a (unrelaxed)      =     11.30023211 eV
  Region 1 - 2a (relaxed - correction)  =     -0.21417876 eV
  Region 1 (Total)                      =      4.71426340 eV
  Region 2a                             =      0.10704046 eV
  Region 2b                             =     -0.43062080 eV
--------------------------------------------------------------------------------
  Total defect energy                   =      4.39068306 eV
--------------------------------------------------------------------------------

  Largest displacement in region 2 =   0.0249 Angstroms

  Final coordinates of region 1 :

--------------------------------------------------------------------------------
   No.  Atomic        x           y           z          Radius      Charge
        Label       (Angs)      (Angs)      (Angs)       (Angs)       (e) 
--------------------------------------------------------------------------------
     1  Na    c     2.253894    0.495857    1.418049    0.000000    1.000000
     2  O     c     2.253894    2.425743    2.372006    0.000000    0.183000
     3  O     c     2.253894   -2.081622    2.196490    0.000000    0.183000
     4  Cl    c     4.629656   -0.034554   -0.056424    0.000000    1.485000
     5  Cl    c    -0.121869   -0.034554   -0.056424    0.000000    1.485000
     6  Na    c     4.476771    2.425892    2.167562    0.000000    1.000000
     7  Na    c     0.031016    2.425892    2.167562    0.000000    1.000000
     8  Na    c     2.253894    2.201330    4.541867    0.000000    1.000000
     9  Na    c     2.253894   -2.516291    0.002544    0.000000    1.000000
    10  Cl    c     4.621682    0.014217    4.608557    0.000000    1.485000
    11  Cl    c    -0.113894    0.014217    4.608557    0.000000    1.485000
    12  Na    c     4.487600   -1.962787    2.179522    0.000000    1.000000
    13  Na    c     0.020187   -1.962787    2.179522    0.000000    1.000000
    14  Na    c     2.253894   -1.623796    4.423000    0.000000    1.000000
    15  Na    c     2.253894    0.077197   -2.085916    0.000000    1.000000
    16  Na    c     2.253894    4.524325    1.741799    0.000000    1.000000
    17  O     c     2.253894    2.287894   -2.308446    0.000000    0.183000
    18  Na    c    -2.265673    0.042056    2.672103    0.000000    1.000000
    19  Na    c     6.773460    0.042056    2.672103    0.000000    1.000000
    20  O     c     2.253894   -2.223797   -2.241494    0.000000    0.183000
    21  O     c    -2.252294    2.288991    2.263993    0.000000    0.183000
    22  O     c     6.760082    2.288991    2.263993    0.000000    0.183000
    23  Cl    c     4.622372    4.674719    0.009255    0.000000    1.485000
    24  Cl    c    -0.114585    4.674719    0.009255    0.000000    1.485000
    25  Na    c     4.430960    2.292663   -1.841108    0.000000    1.000000
    26  Na    c     0.076827    2.292663   -1.841108    0.000000    1.000000
    27  Na    c     2.253894    0.006772    7.115001    0.000000    1.000000
    28  Na    c     2.253894   -4.371616    2.585921    0.000000    1.000000
    29  Na    c    -2.389628    1.856906    0.029446    0.000000    1.000000
    30  Na    c     6.897415    1.856906    0.029446    0.000000    1.000000
    31  O     c    -2.244294   -2.211520    2.259925    0.000000    0.183000
    32  O     c     6.752082   -2.211520    2.259925    0.000000    0.183000
    33  O     c     2.253894    2.237232    6.817387    0.000000    0.183000
    34  Cl    c     4.575526    4.595749    4.650147    0.000000    1.485000
    35  Cl    c    -0.067739    4.595749    4.650147    0.000000    1.485000
    36  Na    c     4.509059   -2.252294   -2.139660    0.000000    1.000000
    37  Na    c    -0.001272   -2.252294   -2.139660    0.000000    1.000000
    38  Na    c    -2.355858   -1.861176    0.005970    0.000000    1.000000
    39  Na    c     6.863645   -1.861176    0.005970    0.000000    1.000000
    40  Na    c    -2.138131    2.651908    4.510337    0.000000    1.000000
    41  Na    c     6.645918    2.651908    4.510337    0.000000    1.000000
    42  Na    c     2.253894    4.453810   -1.808660    0.000000    1.000000
    43  O     c     2.253894   -2.207098    6.700756    0.000000    0.183000
    44  Cl    c     4.492187   -4.501708   -0.045667    0.000000    1.485000
    45  Cl    c     0.015600   -4.501708   -0.045667    0.000000    1.485000
    46  Na    c     4.512730    2.152459    6.759682    0.000000    1.000000
    47  Na    c    -0.004943    2.152459    6.759682    0.000000    1.000000
    48  Na    c     6.668829   -2.623094    4.491940    0.000000    1.000000
    49  Na    c    -2.161041   -2.623094    4.491940    0.000000    1.000000
    50  Na    c    -2.104843    0.014756   -2.608506    0.000000    1.000000
    51  Na    c     6.612630    0.014756   -2.608506    0.000000    1.000000
    52  Na    c    -2.328536    4.528017    1.858372    0.000000    1.000000
    53  Na    c     6.836323    4.528017    1.858372    0.000000    1.000000
    54  Cl    c     4.522703   -4.555092    4.507738    0.000000    1.485000
    55  Cl    c    -0.014915   -4.555092    4.507738    0.000000    1.485000
    56  Na    c     4.509281   -2.170851    6.673951    0.000000    1.000000
    57  Na    c    -0.001494   -2.170851    6.673951    0.000000    1.000000
    58  O     c     2.253894    6.770497    2.229805    0.000000    0.183000
    59  O     c    -2.215302    2.253445   -2.208735    0.000000    0.183000
    60  O     c     6.723089    2.253445   -2.208735    0.000000    0.183000
    61  Na    c     2.253894    4.494146    6.800181    0.000000    1.000000
    62  Na    c     2.253894   -4.471670   -2.567327    0.000000    1.000000
    63  Na    c     2.253894    7.176359   -0.006034    0.000000    1.000000
    64  Na    c     2.253894    2.386392   -4.495901    0.000000    1.000000
    65  O     c    -2.257289   -2.238594   -2.245602    0.000000    0.183000
    66  O     c     6.765076   -2.238594   -2.245602    0.000000    0.183000
    67  Na    c     4.514848    6.696509    2.273513    0.000000    1.000000
    68  Na    c    -0.007061    6.696509    2.273513    0.000000    1.000000
    69  Cl    c     4.538820   -0.092797   -4.615961    0.000000    1.485000
    70  Cl    c    -0.031032   -0.092797   -4.615961    0.000000    1.485000
    71  Na    c    -2.330575    0.006983    6.402440    0.000000    1.000000
    72  Na    c     6.838362    0.006983    6.402440    0.000000    1.000000
    73  Na    c    -2.148852   -4.458907    1.884121    0.000000    1.000000
    74  Na    c     6.656639   -4.458907    1.884121    0.000000    1.000000
    75  Na    c     2.253894    6.387059    4.459400    0.000000    1.000000
    76  Na    c     2.253894   -1.987510   -4.488995    0.000000    1.000000
    77  O     c    -2.261373    2.262167    6.754008    0.000000    0.183000
    78  O     c     6.769160    2.262167    6.754008    0.000000    0.183000
    79  Cl    c     9.106174   -0.000987   -0.004617    0.000000    1.485000
    80  Cl    c    -4.598387   -0.000987   -0.004617    0.000000    1.485000
    81  Na    c     9.013792    2.308580    2.415036    0.000000    1.000000
    82  Na    c    -4.506005    2.308580    2.415036    0.000000    1.000000
    83  Na    c     2.253894   -4.459245    6.360739    0.000000    1.000000
    84  Na    c    -2.324063    4.507009   -1.900338    0.000000    1.000000
    85  Na    c     6.831850    4.507009   -1.900338    0.000000    1.000000
    86  O     c     2.253894   -6.689357    2.258995    0.000000    0.183000
    87  O     c    -2.262347   -2.254469    6.740333    0.000000    0.183000
    88  O     c     6.770135   -2.254469    6.740333    0.000000    0.183000
    89  Cl    c     9.084301    0.014637    4.500352    0.000000    1.485000
    90  Cl    c    -4.576514    0.014637    4.500352    0.000000    1.485000
    91  Na    c     9.004533   -2.305981    2.351419    0.000000    1.000000
    92  Na    c    -4.496746   -2.305981    2.351419    0.000000    1.000000
    93  O     c     2.253894    6.729098   -2.233700    0.000000    0.183000
    94  Na    c     2.253894    2.460627    9.046690    0.000000    1.000000
    95  Na    c     2.253894   -6.418361    0.005403    0.000000    1.000000
    96  Cl    c     4.507595   -0.000033    9.050365    0.000000    1.485000
    97  Cl    c     0.000192   -0.000033    9.050365    0.000000    1.485000
    98  Na    c     4.502883   -6.688820    2.255001    0.000000    1.000000
    99  Na    c     0.004905   -6.688820    2.255001    0.000000    1.000000
   100  O     c    -2.267450    6.766004    2.257700    0.000000    0.183000
   101  O     c     6.775237    6.766004    2.257700    0.000000    0.183000
   102  Na    c     2.253894   -2.553776    8.962210    0.000000    1.000000
   103  Na    c     2.253894   -7.016520    4.483819    0.000000    1.000000
   104  Na    c     4.508511    6.630161   -2.278834    0.000000    1.000000
   105  Na    c    -0.000724    6.630161   -2.278834    0.000000    1.000000
   106  Cl    c     4.550274    4.618243   -4.654170    0.000000    1.485000
   107  Cl    c    -0.042486    4.618243   -4.654170    0.000000    1.485000
   108  Na    c    -2.139939    4.503702    7.088597    0.000000    1.000000
   109  Na    c     6.647726    4.503702    7.088597    0.000000    1.000000
   110  Na    c    -2.300175   -4.491797   -1.919980    0.000000    1.000000
   111  Na    c     6.807962   -4.491797   -1.919980    0.000000    1.000000
   112  Na    c    -2.167269    7.102504    0.006045    0.000000    1.000000
   113  Na    c     6.675056    7.102504    0.006045    0.000000    1.000000
   114  Na    c     6.551444    2.585464   -4.452576    0.000000    1.000000
   115  Na    c    -2.043657    2.585464   -4.452576    0.000000    1.000000
   116  O     c     2.253894    6.753791    6.716578    0.000000    0.183000
   117  Cl    c     9.085513    4.527303    0.013761    0.000000    1.485000
   118  Cl    c    -4.577726    4.527303    0.013761    0.000000    1.485000
   119  Na    c     8.983922    2.190999   -2.393025    0.000000    1.000000
   120  Na    c    -4.476134    2.190999   -2.393025    0.000000    1.000000
   121  Na    c    -2.166135   -2.566026   -4.487529    0.000000    1.000000
   122  Na    c     6.673923   -2.566026   -4.487529    0.000000    1.000000
   123  Na    c    -2.312878    6.431840    4.512999    0.000000    1.000000
   124  Na    c     6.820665    6.431840    4.512999    0.000000    1.000000
   125  O     c     2.253894   -6.723028   -2.250336    0.000000    0.183000
   126  Cl    c     4.505961   -4.558433   -4.525671    0.000000    1.485000
   127  Cl    c     0.001826   -4.558433   -4.525671    0.000000    1.485000
   128  Na    c     4.509984    6.794360    6.648390    0.000000    1.000000
   129  Na    c    -0.002197    6.794360    6.648390    0.000000    1.000000
   130  Cl    c     9.071770    4.496041    4.502098    0.000000    1.485000
   131  Cl    c    -4.563983    4.496041    4.502098    0.000000    1.485000
   132  Na    c     9.007371   -2.167477   -2.354420    0.000000    1.000000
   133  Na    c    -4.499584   -2.167477   -2.354420    0.000000    1.000000
   134  Na    c    -2.248303   -4.484997    7.099604    0.000000    1.000000
   135  Na    c     6.756090   -4.484997    7.099604    0.000000    1.000000
   136  Na    c     2.253894    0.008413   -6.788416    0.000000    1.000000
   137  Na    c     2.253894    9.006686    2.549237    0.000000    1.000000
   138  O     c    -2.251463   -6.721934    2.239382    0.000000    0.183000
   139  O     c     6.759251   -6.721934    2.239382    0.000000    0.183000
   140  Cl    c     4.465803    4.503309    9.069088    0.000000    1.485000
   141  Cl    c     0.041984    4.503309    9.069088    0.000000    1.485000
   142  Na    c     4.510029   -6.674281   -2.205763    0.000000    1.000000
   143  Na    c    -0.002242   -6.674281   -2.205763    0.000000    1.000000
   144  Cl    c     9.052249   -4.516329    0.026393    0.000000    1.485000
   145  Cl    c    -4.544462   -4.516329    0.026393    0.000000    1.485000
   146  Na    c     9.016224    2.341325    6.658318    0.000000    1.000000
   147  Na    c    -4.508436    2.341325    6.658318    0.000000    1.000000
   148  O     c    -2.257878    6.763272   -2.240157    0.000000    0.183000
   149  O     c     6.765665    6.763272   -2.240157    0.000000    0.183000
   150  O     c     2.253894    2.252517   -6.781848    0.000000    0.183000
   151  Na    c    -2.301763    1.974435    8.998997    0.000000    1.000000
   152  Na    c     6.809550    1.974435    8.998997    0.000000    1.000000
   153  Na    c    -2.292960   -7.073882    0.009057    0.000000    1.000000
   154  Na    c     6.800748   -7.073882    0.009057    0.000000    1.000000
   155  O     c     2.253894   -6.736715    6.722891    0.000000    0.183000
   156  Cl    c     9.057842   -4.503575    4.516612    0.000000    1.485000
   157  Cl    c    -4.550055   -4.503575    4.516612    0.000000    1.485000
   158  Na    c     9.017643   -2.282758    6.671241    0.000000    1.000000
   159  Na    c    -4.509856   -2.282758    6.671241    0.000000    1.000000
   160  Na    c     2.253894    6.471044   -4.492736    0.000000    1.000000
   161  O     c     2.253894   -2.240014   -6.748794    0.000000    0.183000
   162  Na    c     6.771670   -1.957811    8.990179    0.000000    1.000000
   163  Na    c    -2.263883   -1.957811    8.990179    0.000000    1.000000
   164  Na    c    -2.238737   -6.462883    4.504131    0.000000    1.000000
   165  Na    c     6.746524   -6.462883    4.504131    0.000000    1.000000
   166  Cl    c     4.524196    9.074571    0.000532    0.000000    1.485000
   167  Cl    c    -0.016408    9.074571    0.000532    0.000000    1.485000
   168  Na    c     4.499145    2.182778   -6.769556    0.000000    1.000000
   169  Na    c     0.008642    2.182778   -6.769556    0.000000    1.000000
   170  Na    c    11.183394    0.003876    2.274293    0.000000    1.000000
   171  Na    c    -6.675606    0.003876    2.274293    0.000000    1.000000
   172  Cl    c     4.503646   -4.527823    9.059205    0.000000    1.485000
   173  Cl    c     0.004141   -4.527823    9.059205    0.000000    1.485000
   174  Na    c     4.503995   -6.691854    6.729304    0.000000    1.000000
   175  Na    c     0.003792   -6.691854    6.729304    0.000000    1.000000
   176  O     c    -2.259573    6.749909    6.774215    0.000000    0.183000
   177  O     c     6.767360    6.749909    6.774215    0.000000    0.183000
   178  O     c    11.265830    2.257090    2.251203    0.000000    0.183000
   179  O     c    -6.758043    2.257090    2.251203    0.000000    0.183000
   180  Na    c     9.021526    6.795070    2.195780    0.000000    1.000000
   181  Na    c    -4.513738    6.795070    2.195780    0.000000    1.000000
   182  Cl    c     4.519511    9.100718    4.536253    0.000000    1.485000
   183  Cl    c    -0.011724    9.100718    4.536253    0.000000    1.485000
   184  Cl    c     9.070268   -0.008435   -4.487811    0.000000    1.485000
   185  Cl    c    -4.562481   -0.008435   -4.487811    0.000000    1.485000
   186  Na    c     4.508660   -2.215545   -6.733350    0.000000    1.000000
   187  Na    c    -0.000873   -2.215545   -6.733350    0.000000    1.000000
   188  Na    c    11.138657    2.258506   -0.008281    0.000000    1.000000
   189  Na    c    -6.630870    2.258506   -0.008281    0.000000    1.000000
   190  Na    c     2.253894    4.506329   -6.872123    0.000000    1.000000
   191  Na    c     2.253894    8.986520   -2.514003    0.000000    1.000000
   192  O     c    -2.258632   -6.754082   -2.227419    0.000000    0.183000
   193  O     c     6.766420   -6.754082   -2.227419    0.000000    0.183000
   194  O     c    11.267551   -2.251363    2.247773    0.000000    0.183000
   195  O     c    -6.759764   -2.251363    2.247773    0.000000    0.183000
   196  Na    c     2.253894   -0.016765   11.088982    0.000000    1.000000
   197  Na    c     2.253894   -8.972065    2.022898    0.000000    1.000000
   198  Na    c     2.253894    6.792197    8.992104    0.000000    1.000000
   199  Na    c     2.253894   -6.939069   -4.489632    0.000000    1.000000
   200  Na    c    11.171018   -2.216535   -0.006803    0.000000    1.000000
   201  Na    c    -6.663231   -2.216535   -0.006803    0.000000    1.000000
   202  Na    c    11.376886    2.293744    4.498087    0.000000    1.000000
   203  Na    c    -6.869099    2.293744    4.498087    0.000000    1.000000
   204  Na    c     6.791046   -0.003984   -6.473136    0.000000    1.000000
   205  Na    c    -2.283259   -0.003984   -6.473136    0.000000    1.000000
   206  Na    c    -2.243223    9.008119    2.541248    0.000000    1.000000
   207  Na    c     6.751010    9.008119    2.541248    0.000000    1.000000
   208  O     c     2.253894    2.246540   11.276046    0.000000    0.183000
   209  O     c    -2.236018    2.258302   -6.714565    0.000000    0.183000
   210  O     c     6.743805    2.258302   -6.714565    0.000000    0.183000
   211  Na    c    11.350014   -2.312245    4.496885    0.000000    1.000000
   212  Na    c    -6.842226   -2.312245    4.496885    0.000000    1.000000
   213  Na    c    11.288308    0.004716   -2.260508    0.000000    1.000000
   214  Na    c    -6.780521    0.004716   -2.260508    0.000000    1.000000
   215  Na    c    11.285653    4.511875    2.217344    0.000000    1.000000
   216  Na    c    -6.777866    4.511875    2.217344    0.000000    1.000000
   217  Na    c     2.253894    9.009670    6.604891    0.000000    1.000000
   218  Na    c     2.253894   -4.502970   -6.626202    0.000000    1.000000
   219  O     c     2.253894   -2.276872   11.243066    0.000000    0.183000
   220  O     c    -2.252332   -6.727983    6.769592    0.000000    0.183000
   221  O     c     6.760119   -6.727983    6.769592    0.000000    0.183000
   222  Cl    c     4.499703   -9.038713    0.003985    0.000000    1.485000
   223  Cl    c     0.008085   -9.038713    0.003985    0.000000    1.485000
   224  Na    c     4.514182    2.265877   11.237446    0.000000    1.000000
   225  Na    c    -0.006394    2.265877   11.237446    0.000000    1.000000
   226  Cl    c     9.039346   -0.012198    9.054339    0.000000    1.485000
   227  Cl    c    -4.531559   -0.012198    9.054339    0.000000    1.485000
   228  Na    c     9.011737   -6.641154    2.274055    0.000000    1.000000
   229  Na    c    -4.503949   -6.641154    2.274055    0.000000    1.000000
   230  Na    c    -2.295135    6.546945   -4.504206    0.000000    1.000000
   231  Na    c     6.802922    6.546945   -4.504206    0.000000    1.000000
   232  O     c    11.257319    2.250908   -2.264693    0.000000    0.183000
   233  O     c    -6.749532    2.250908   -2.264693    0.000000    0.183000
   234  O     c     6.766500   -2.270135   -6.739133    0.000000    0.183000
   235  O     c    -2.258713   -2.270135   -6.739133    0.000000    0.183000
   236  Na    c     9.012573    6.812938   -2.221420    0.000000    1.000000
   237  Na    c    -4.504786    6.812938   -2.221420    0.000000    1.000000
   238  Cl    c     9.050652    4.490753   -4.498145    0.000000    1.485000
   239  Cl    c    -4.542864    4.490753   -4.498145    0.000000    1.485000
[...]
    246 y          4.507787      4.607726     0.099939    Cartesian    2.22
    246 z          4.507787      4.661087     0.153299    Cartesian    3.40
    247 x          2.253894      2.253894     0.000000    Cartesian    0.00
    247 y         -2.253894     -2.207039     0.046855    Cartesian   -2.08
    247 z          6.761681      6.700837    -0.060844    Cartesian   -0.90
    248 x          4.507787      4.494135    -0.013652    Cartesian   -0.30
    248 y         -4.507787     -4.505702     0.002085    Cartesian   -0.05
    248 z          0.000000     -0.049407    -0.049407    Cartesian    0.00
    249 x          4.507787      4.527057     0.019269    Cartesian    0.43
    249 y         -4.507787     -4.560834    -0.053046    Cartesian    1.18
    249 z          4.507787      4.511778     0.003991    Cartesian    0.09
    250 x          2.253894      2.253894     0.000000    Cartesian    0.00
    250 y          6.761681      6.770524     0.008843    Cartesian    0.13
    250 z          2.253894      2.229816    -0.024078    Cartesian   -1.07
    251 x         -2.253894     -2.215364     0.038530    Cartesian   -1.71
    251 y          2.253894      2.253433    -0.000461    Cartesian   -0.02
    251 z         -2.253894     -2.208738     0.045156    Cartesian   -2.00
    252 x         -2.253894     -2.257288    -0.003395    Cartesian    0.15
    252 y         -2.253894     -2.238593     0.015301    Cartesian   -0.68
    252 z         -2.253894     -2.245629     0.008264    Cartesian   -0.37
    253 x          4.507787      4.551374     0.043586    Cartesian    0.97
    253 y          0.000000     -0.105742    -0.105742    Cartesian    0.00
    253 z         -4.507787     -4.626908    -0.119121    Cartesian    2.64
    254 x         -2.253894     -2.261362    -0.007468    Cartesian    0.33
    254 y          2.253894      2.262192     0.008298    Cartesian    0.37
    254 z          6.761681      6.754015    -0.007665    Cartesian   -0.11
    255 x          9.015574      9.102368     0.086794    Cartesian    0.96
    255 y          0.000000     -0.001025    -0.001025    Cartesian    0.00
    255 z          0.000000     -0.005542    -0.005542    Cartesian    0.00
    256 x          2.253894      2.253894     0.000000    Cartesian    0.00
    256 y         -6.761681     -6.689420     0.072261    Cartesian   -1.07
    256 z          2.253894      2.259025     0.005132    Cartesian    0.23
    257 x         -2.253894     -2.262359    -0.008465    Cartesian    0.38
    257 y         -2.253894     -2.254503    -0.000610    Cartesian    0.03
    257 z          6.761681      6.740335    -0.021346    Cartesian   -0.32
    258 x          9.015574      9.078608     0.063033    Cartesian    0.70
    258 y          0.000000      0.016102     0.016102    Cartesian    0.00
    258 z          4.507787      4.498903    -0.008884    Cartesian   -0.20
    259 x          2.253894      2.253894     0.000000    Cartesian    0.00
    259 y          6.761681      6.729142    -0.032538    Cartesian   -0.48
    259 z         -2.253894     -2.233704     0.020189    Cartesian   -0.90
    260 x          4.507787      4.506850    -0.000937    Cartesian   -0.02
    260 y          0.000000      0.000174     0.000174    Cartesian    0.00
    260 z          9.015574      9.050881     0.035306    Cartesian    0.39
    261 x         -2.253894     -2.267465    -0.013572    Cartesian    0.60
    261 y          6.761681      6.766019     0.004338    Cartesian    0.06
    261 z          2.253894      2.257674     0.003780    Cartesian    0.17
    262 x          4.507787      4.562136     0.054349    Cartesian    1.21
    262 y          4.507787      4.629198     0.121411    Cartesian    2.69
    262 z         -4.507787     -4.667102    -0.159315    Cartesian    3.53
    263 x          2.253894      2.253894     0.000000    Cartesian    0.00
    263 y          6.761681      6.753757    -0.007923    Cartesian   -0.12
    263 z          6.761681      6.716566    -0.045114    Cartesian   -0.67
    264 x          9.015574      9.081260     0.065686    Cartesian    0.73
    264 y          4.507787      4.528899     0.021112    Cartesian    0.47
    264 z          0.000000      0.017111     0.017111    Cartesian    0.00
    265 x          2.253894      2.253894     0.000000    Cartesian    0.00
    265 y         -6.761681     -6.723003     0.038678    Cartesian   -0.57
    265 z         -2.253894     -2.250380     0.003513    Cartesian   -0.16
    266 x          4.507787      4.508810     0.001022    Cartesian    0.02
    266 y         -4.507787     -4.561187    -0.053400    Cartesian    1.18
    266 z         -4.507787     -4.526064    -0.018277    Cartesian    0.41
    267 x          9.015574      9.068616     0.053042    Cartesian    0.59
    267 y          4.507787      4.491933    -0.015854    Cartesian   -0.35
    267 z          4.507787      4.502072    -0.005715    Cartesian   -0.13
    268 x         -2.253894     -2.251459     0.002435    Cartesian   -0.11
    268 y         -6.761681     -6.721956     0.039725    Cartesian   -0.59
    268 z          2.253894      2.239347    -0.014547    Cartesian   -0.65
    269 x          4.507787      4.464965    -0.042822    Cartesian   -0.95
    269 y          4.507787      4.499567    -0.008221    Cartesian   -0.18
    269 z          9.015574      9.069879     0.054304    Cartesian    0.60
    270 x          9.015574      9.050462     0.034887    Cartesian    0.39
    270 y         -4.507787     -4.519331    -0.011543    Cartesian    0.26
    270 z          0.000000      0.028439     0.028439    Cartesian    0.00
    271 x         -2.253894     -2.257884    -0.003990    Cartesian    0.18
    271 y          6.761681      6.763308     0.001627    Cartesian    0.02
    271 z         -2.253894     -2.240148     0.013746    Cartesian   -0.61
    272 x          2.253894      2.253894     0.000000    Cartesian    0.00
    272 y          2.253894      2.252496    -0.001398    Cartesian   -0.06
    272 z         -6.761681     -6.781912    -0.020231    Cartesian    0.30
    273 x          2.253894      2.253894     0.000000    Cartesian    0.00
    273 y         -6.761681     -6.736770     0.024911    Cartesian   -0.37
    273 z          6.761681      6.722847    -0.038834    Cartesian   -0.57
    274 x          9.015574      9.055888     0.040313    Cartesian    0.45
    274 y         -4.507787     -4.503106     0.004681    Cartesian   -0.10
    274 z          4.507787      4.516558     0.008770    Cartesian    0.19
    275 x          2.253894      2.253894     0.000000    Cartesian    0.00
    275 y         -2.253894     -2.239956     0.013938    Cartesian   -0.62
    275 z         -6.761681     -6.748801     0.012880    Cartesian   -0.19
    276 x          4.507787      4.526451     0.018664    Cartesian    0.41
    276 y          9.015574      9.074051     0.058477    Cartesian    0.65
    276 z          0.000000      0.001128     0.001128    Cartesian    0.00
    277 x          4.507787      4.502916    -0.004871    Cartesian   -0.11
    277 y         -4.507787     -4.529300    -0.021513    Cartesian    0.48
    277 z          9.015574      9.062625     0.047050    Cartesian    0.52
    278 x         -2.253894     -2.259578    -0.005685    Cartesian    0.25
    278 y          6.761681      6.749911    -0.011770    Cartesian   -0.17
    278 z          6.761681      6.774261     0.012581    Cartesian    0.19
    279 x         11.269468     11.265826    -0.003642    Cartesian   -0.03
    279 y          2.253894      2.257099     0.003206    Cartesian    0.14
    279 z          2.253894      2.251232    -0.002662    Cartesian   -0.12
    280 x          4.507787      4.521098     0.013311    Cartesian    0.30
    280 y          9.015574      9.108040     0.092465    Cartesian    1.03
    280 z          4.507787      4.536884     0.029096    Cartesian    0.65
    281 x          9.015574      9.071094     0.055519    Cartesian    0.62
    281 y          0.000000     -0.008997    -0.008997    Cartesian    0.00
    281 z         -4.507787     -4.483794     0.023993    Cartesian   -0.53
    282 x         -2.253894     -2.258647    -0.004753    Cartesian    0.21
    282 y         -6.761681     -6.754124     0.007557    Cartesian   -0.11
    282 z         -2.253894     -2.227393     0.026501    Cartesian   -1.18
    283 x         11.269468     11.267561    -0.001907    Cartesian   -0.02
    283 y         -2.253894     -2.251375     0.002519    Cartesian   -0.11
    283 z          2.253894      2.247778    -0.006116    Cartesian   -0.27
    284 x          2.253894      2.253894     0.000000    Cartesian    0.00
    284 y          2.253894      2.246583    -0.007310    Cartesian   -0.32
    284 z         11.269468     11.276012     0.006544    Cartesian    0.06
    285 x         -2.253894     -2.235980     0.017913    Cartesian   -0.79
    285 y          2.253894      2.258345     0.004452    Cartesian    0.20
    285 z         -6.761681     -6.714588     0.047093    Cartesian   -0.70
    286 x          2.253894      2.253894     0.000000    Cartesian    0.00
    286 y         -2.253894     -2.276932    -0.023039    Cartesian    1.02
    286 z         11.269468     11.243075    -0.026393    Cartesian   -0.23
    287 x         -2.253894     -2.252332     0.001561    Cartesian   -0.07
    287 y         -6.761681     -6.727972     0.033709    Cartesian   -0.50
    287 z          6.761681      6.769646     0.007965    Cartesian    0.12
    288 x          4.507787      4.497025    -0.010762    Cartesian   -0.24
    288 y         -9.015574     -9.040632    -0.025057    Cartesian    0.28
    288 z          0.000000      0.005319     0.005319    Cartesian    0.00
    289 x          9.015574      9.035127     0.019553    Cartesian    0.22
    289 y          0.000000     -0.013667    -0.013667    Cartesian    0.00
    289 z          9.015574      9.060768     0.045194    Cartesian    0.50
    290 x         11.269468     11.257321    -0.012147    Cartesian   -0.11
    290 y          2.253894      2.250890    -0.003004    Cartesian   -0.13
    290 z         -2.253894     -2.264726    -0.010833    Cartesian    0.48
    291 x          6.761681      6.766502     0.004821    Cartesian    0.07
    291 y         -2.253894     -2.270190    -0.016296    Cartesian    0.72
    291 z         -6.761681     -6.739139     0.022542    Cartesian   -0.33
    292 x          9.015574      9.052579     0.037004    Cartesian    0.41
    292 y          4.507787      4.488565    -0.019222    Cartesian   -0.43
    292 z         -4.507787     -4.498780     0.009007    Cartesian   -0.20
    293 x          4.507787      4.544945     0.037158    Cartesian    0.82
    293 y         -9.015574     -9.041086    -0.025511    Cartesian    0.28
    293 z          4.507787      4.506002    -0.001785    Cartesian   -0.04
    294 x         11.269468     11.267755    -0.001713    Cartesian   -0.02
    294 y         -2.253894     -2.247650     0.006243    Cartesian   -0.28
    294 z         -2.253894     -2.259553    -0.005659    Cartesian    0.25
    295 x         11.269468     11.275636     0.006168    Cartesian    0.05
    295 y          2.253894      2.260339     0.006445    Cartesian    0.29
    295 z          6.761681      6.749072    -0.012609    Cartesian   -0.19
    296 x          9.015574      9.035921     0.020347    Cartesian    0.23
    296 y         -4.507787     -4.522590    -0.014803    Cartesian    0.33
    296 z         -4.507787     -4.524572    -0.016785    Cartesian    0.37
    297 x          2.253894      2.253894     0.000000    Cartesian    0.00
    297 y          6.761681      6.761020    -0.000661    Cartesian   -0.01
    297 z         -6.761681     -6.755798     0.005882    Cartesian   -0.09
    298 x         -2.253894     -2.262322    -0.008429    Cartesian    0.37
    298 y          2.253894      2.233661    -0.020233    Cartesian   -0.90
    298 z         11.269468     11.259092    -0.010376    Cartesian   -0.09
    299 x         11.269468     11.272050     0.002582    Cartesian    0.02
    299 y         -2.253894     -2.254306    -0.000413    Cartesian    0.02
    299 z          6.761681      6.751564    -0.010117    Cartesian   -0.15
    300 x          9.015574      9.065829     0.050255    Cartesian    0.56
    300 y          4.507787      4.516327     0.008540    Cartesian    0.19
    300 z          9.015574      9.020738     0.005164    Cartesian    0.06
    301 x          2.253894      2.253894     0.000000    Cartesian    0.00
    301 y         11.269468     11.259381    -0.010087    Cartesian   -0.09
    301 z          2.253894      2.264008     0.010115    Cartesian    0.45
    302 x          4.507787      4.522884     0.015097    Cartesian    0.33
    302 y          9.015574      9.086725     0.071150    Cartesian    0.79
    302 z         -4.507787     -4.510256    -0.002469    Cartesian    0.05
    303 x         -2.253894     -2.255951    -0.002058    Cartesian    0.09
    303 y         -2.253894     -2.231586     0.022308    Cartesian   -0.99
    303 z         11.269468     11.253572    -0.015896    Cartesian   -0.14
    304 x         11.269468     11.276047     0.006579    Cartesian    0.06
    304 y          6.761681      6.766619     0.004938    Cartesian    0.07
    304 z          2.253894      2.249540    -0.004354    Cartesian   -0.19
    305 x          4.507787      4.524945     0.017157    Cartesian    0.38
    305 y          0.000000      0.012211     0.012211    Cartesian    0.00
    305 z         -9.015574     -9.069451    -0.053877    Cartesian    0.60
    306 x          9.015574      9.070801     0.055226    Cartesian    0.61
    306 y          9.015574      9.014328    -0.001247    Cartesian   -0.01
    306 z          0.000000      0.001838     0.001838    Cartesian    0.00
    307 x          9.015574      9.052994     0.037419    Cartesian    0.42
    307 y         -4.507787     -4.532113    -0.024326    Cartesian    0.54
    307 z          9.015574      9.013693    -0.001881    Cartesian   -0.02
    308 x          2.253894      2.253894     0.000000    Cartesian    0.00
    308 y         -6.761681     -6.775792    -0.014111    Cartesian    0.21
    308 z         -6.761681     -6.743568     0.018113    Cartesian   -0.27
    309 x          9.015574      9.027529     0.011954    Cartesian    0.13
    309 y          9.015574      9.058065     0.042491    Cartesian    0.47
    309 z          4.507787      4.514420     0.006632    Cartesian    0.15
    310 x          2.253894      2.253894     0.000000    Cartesian    0.00
    310 y          6.761681      6.762084     0.000403    Cartesian    0.01
    310 z         11.269468     11.271952     0.002484    Cartesian    0.02
    311 x         13.523362     13.600771     0.077409    Cartesian    0.57
    311 y          0.000000     -0.007927    -0.007927    Cartesian    0.00
    311 z          0.000000      0.000989     0.000989    Cartesian    0.00
    312 x          4.507787      4.539595     0.031807    Cartesian    0.71
    312 y          9.015574      9.017777     0.002203    Cartesian    0.02
    312 z          9.015574      9.076104     0.060530    Cartesian    0.67
    313 x          2.253894      2.253894     0.000000    Cartesian    0.00
    313 y         11.269468     11.250911    -0.018557    Cartesian   -0.16
    313 z         -2.253894     -2.260100    -0.006206    Cartesian    0.28
    314 x          6.761681      6.772470     0.010789    Cartesian    0.16
    314 y          6.761681      6.757008    -0.004673    Cartesian   -0.07
    314 z         -6.761681     -6.771324    -0.009643    Cartesian    0.14
    315 x         11.269468     11.272533     0.003065    Cartesian    0.03
    315 y         -6.761681     -6.755990     0.005691    Cartesian   -0.08
    315 z          2.253894      2.255138     0.001244    Cartesian    0.06
    316 x          4.507787      4.516902     0.009115    Cartesian    0.20
    316 y         -9.015574     -9.057638    -0.042064    Cartesian    0.47
    316 z         -4.507787     -4.521535    -0.013748    Cartesian    0.30
    317 x         13.523362     13.551361     0.028000    Cartesian    0.21
    317 y          0.000000     -0.000752    -0.000752    Cartesian    0.00
    317 z          4.507787      4.519358     0.011570    Cartesian    0.26
    318 x          6.761681      6.765387     0.003707    Cartesian    0.05
    318 y         11.269468     11.263615    -0.005853    Cartesian   -0.05
    318 z          2.253894      2.272551     0.018657    Cartesian    0.83
    319 x         11.269468     11.273767     0.004299    Cartesian    0.04
    319 y          6.761681      6.768663     0.006982    Cartesian    0.10
    319 z         -2.253894     -2.257149    -0.003255    Cartesian    0.14
    320 x          4.507787      4.503222    -0.004565    Cartesian   -0.10
    320 y          4.507787      4.508913     0.001126    Cartesian    0.02
    320 z         -9.015574     -9.053304    -0.037729    Cartesian    0.42
    321 x          2.253894      2.253894     0.000000    Cartesian    0.00
    321 y        -11.269468    -11.253338     0.016130    Cartesian   -0.14
    321 z          2.253894      2.237157    -0.016736    Cartesian   -0.74
    322 x          9.015574      9.061724     0.046150    Cartesian    0.51
    322 y         -9.015574     -9.016059    -0.000485    Cartesian    0.01
    322 z          0.000000     -0.014768    -0.014768    Cartesian    0.00
    323 x          2.253894      2.253894     0.000000    Cartesian    0.00
    323 y         11.269468     11.281060     0.011592    Cartesian    0.10
    323 z          6.761681      6.758866    -0.002814    Cartesian   -0.04
    324 x          2.253894      2.253894     0.000000    Cartesian    0.00
    324 y         -6.761681     -6.757904     0.003777    Cartesian   -0.06
    324 z         11.269468     11.276968     0.007500    Cartesian    0.07
    325 x          9.015574      8.990660    -0.024914    Cartesian   -0.28
    325 y         -9.015574     -9.079889    -0.064315    Cartesian    0.71
    325 z          4.507787      4.520985     0.013198    Cartesian    0.29
    326 x          4.507787      4.570796     0.063009    Cartesian    1.40
    326 y          0.000000     -0.007242    -0.007242    Cartesian    0.00
    326 z         13.523362     13.579713     0.056351    Cartesian    0.42
--------------------------------------------------------------------------------


  Time to end of optimisation  =      104.2374 seconds


  Peak dynamic memory used =      97.40 MB 


  Timing analysis for GULP :

--------------------------------------------------------------------------------
  Task / Subroutine                                          Time (Seconds)
--------------------------------------------------------------------------------
  Calculation of reciprocal space energy and derivatives          0.0006
  Calculation of reciprocal space energy using symmetry           0.0010
  Calculation of real space energy and derivatives                0.0030
  Calculation of real space energy using symmetry                 0.0093
  Calculation for region 1 energy and derivatives (2-b)          57.3118
  Calculation for region 2a energy                               42.0990
  Calculation for region 2b energy                                0.0163
  Calculation and manipulation of Hessian matrix                  0.1495
  Calculation of matrix inversion                                 4.3059
  Symmetry generation of equivalent positions                     0.0042
--------------------------------------------------------------------------------
  Total CPU time                                                104.2375
--------------------------------------------------------------------------------


  Dump file written as Na3OCl.grs


  Job Finished at 22:31.12 30th November   2020                               

