********************************************************************************
*                       GENERAL UTILITY LATTICE PROGRAM                        *
*                                 Julian Gale                                  *
*                       Curtin Institute for Computation                       *
*                    School of Molecular and Life Sciences                     *
*                    Curtin University, Western Australia                      *
********************************************************************************
* Version = 5.2.0 * Last modified =  10th September 2020                       *
********************************************************************************
*  optimise     - perform optimisation run                                     *
*  conp         - constant pressure calculation                                *
*  property     - calculate properties for final geometry                      *
*  defect       - perform defect calculation after bulk run                    *
*  compare      - compare initial and final structures                         *
********************************************************************************

  Job Started  at 22:30.54 30th November   2020                               

  Number of CPUs =     1


  Total number of configurations input =      1

********************************************************************************
*  Input for Configuration =   1                                               *
********************************************************************************

  Formula = ClONa3                                                      

  Number of irreducible atoms/shells =       5


  Total number atoms/shells =       7

  Dimensionality = 3               :  Bulk   


  Symmetry :

  Crystal family                   :  Cubic       
  Crystal class  (Groth - 1921)    :  Cubic Hexakisoctahedral              

  Space group (centrosymmetric)    :  P M 3 M         

  Patterson group                  :  P m -3 m 

  Cartesian lattice vectors (Angstroms) :

        4.504000    0.000000    0.000000
        0.000000    4.504000    0.000000
        0.000000    0.000000    4.504000

  Cell parameters (Angstroms/Degrees):

  a =       4.5040    alpha =  90.0000
  b =       4.5040    beta  =  90.0000
  c =       4.5040    gamma =  90.0000

  Initial cell volume =          91.368216 Angs**3

  Temperature of configuration =   0.00     K 

  Pressure of configuration =         0.000 GPa 

  Fractional coordinates of asymmetric unit :

--------------------------------------------------------------------------------
   No.  Atomic       x           y          z         Charge      Occupancy
        Label      (Frac)      (Frac)     (Frac)        (e)         (Frac)  
--------------------------------------------------------------------------------
      1 Cl    c    0.000000    0.000000    0.000000     1.48500    1.000000    
      2 O     c    0.500000    0.500000    0.500000     0.18300    1.000000    
      3 Na    c    0.500000    0.500000    0.000000     1.00000    1.000000    
      4 Cl    s    0.000000    0.000000    0.000000    -2.48500    1.000000    
      5 O     s    0.500000    0.500000    0.500000    -2.18300    1.000000    
--------------------------------------------------------------------------------


  Constraints : 

--------------------------------------------------------------------------------
  Constraint no.      Unconstrained     Constrained    Coefficient    Offset
                         Variable         Variable
--------------------------------------------------------------------------------
           1              Strain 1        Strain 2       1.00000      0.0000
           2              Strain 1        Strain 3       1.00000      0.0000
--------------------------------------------------------------------------------


********************************************************************************
*  General input information                                                   *
********************************************************************************

  Species output for all configurations : 

--------------------------------------------------------------------------------
  Species    Type    Atomic    Atomic    Charge       Radii (Angs)     Library
                     Number     Mass       (e)     Cova   Ionic  VDW   Symbol
--------------------------------------------------------------------------------
    Na       Core       11      22.99   1.000000   0.970  0.000  2.300          
    O        Core        8      16.00   0.183000   0.730  0.000  1.360          
    O        Shell       8       0.00  -2.183000   0.730  0.000  1.360          
    Cl       Core       17      35.45   1.485000   0.990  0.000  1.650          
    Cl       Shell      17       0.00  -2.485000   0.990  0.000  1.650          
    Mg       Core       12      24.31   0.415000   1.100  0.000  0.000          
    Mg       Shell      12       0.00   1.585000   1.100  0.000  0.000          
    Ca       Core       20      40.08  -1.135000   0.990  0.000  0.000          
    Ca       Shell      20       0.00   3.135000   0.990  0.000  0.000          
    Sr       Core       38      87.62  -1.251000   1.120  0.000  0.000          
    Sr       Shell      38       0.00   3.251000   1.120  0.000  0.000          
    Ba       Core       56     137.33  -7.203000   1.340  0.000  0.000          
    Ba       Shell      56       0.00   9.203000   1.340  0.000  0.000          
--------------------------------------------------------------------------------


  Lattice summation method               =    Ewald          (3-D)
                                         =    Parry          (2-D)
                                         =    Saunders et al (1-D)
  Accuracy factor for lattice sums       =   12.000


  Analytic derivatives to be used

  Time limit = Infinity

  Maximum range for interatomic potentials =    100000.000000 Angstroms

  General interatomic potentials :

--------------------------------------------------------------------------------
Atom  Types   Potential      Parameter       Value         Units   Cutoffs(Ang)
  1     2                                                            Min /  Max 
--------------------------------------------------------------------------------
O    c O    s Spring (c-s)  Spring k 2       593.71600    eV*Ang^-2 0.000  0.800
                            Spring k 4       0.0000000    eV*Ang^-4 
--------------------------------------------------------------------------------
Cl   c Cl   s Spring (c-s)  Spring k 2       29.380000    eV*Ang^-2 0.000  0.800
                            Spring k 4       0.0000000    eV*Ang^-4 
--------------------------------------------------------------------------------
Mg   c Mg   s Spring (c-s)  Spring k 2       361.60000    eV*Ang^-2 0.000  0.800
                            Spring k 4       0.0000000    eV*Ang^-4 
--------------------------------------------------------------------------------
Ca   c Ca   s Spring (c-s)  Spring k 2       110.20000    eV*Ang^-2 0.000  0.800
                            Spring k 4       0.0000000    eV*Ang^-4 
--------------------------------------------------------------------------------
Sr   c Sr   s Spring (c-s)  Spring k 2       71.700000    eV*Ang^-2 0.000  0.800
                            Spring k 4       0.0000000    eV*Ang^-4 
--------------------------------------------------------------------------------
Ba   c Ba   s Spring (c-s)  Spring k 2       495.20000    eV*Ang^-2 0.000  0.800
                            Spring k 4       0.0000000    eV*Ang^-4 
--------------------------------------------------------------------------------
Na   c Na   c Buckingham    Buckingham A     1788.1900    eV        0.000 12.000
                            Buckingham rho  0.15900000    Ang       
                            Buckingham C     0.0000000    eV*Ang^6  
--------------------------------------------------------------------------------
Na   c O    s Buckingham    Buckingham A     1226.8400    eV        0.000 12.000
                            Buckingham rho  0.30700000    Ang       
                            Buckingham C     0.0000000    eV*Ang^6  
--------------------------------------------------------------------------------
Na   c Cl   s Buckingham    Buckingham A     2314.7000    eV        0.000 12.000
                            Buckingham rho  0.29000000    Ang       
                            Buckingham C     0.0000000    eV*Ang^6  
--------------------------------------------------------------------------------
O    s O    s Buckingham    Buckingham A     22764.300    eV        0.000 12.000
                            Buckingham rho  0.14900000    Ang       
                            Buckingham C     13.190000    eV*Ang^6  
--------------------------------------------------------------------------------
O    s Cl   s Buckingham    Buckingham A     8286.9100    eV        0.000 12.000
                            Buckingham rho  0.25900000    Ang       
                            Buckingham C     62.200000    eV*Ang^6  
--------------------------------------------------------------------------------
Cl   s Cl   s Buckingham    Buckingham A     1227.2000    eV        0.000 12.000
                            Buckingham rho  0.32100000    Ang       
                            Buckingham C     14.530000    eV*Ang^6  
--------------------------------------------------------------------------------
O    s Mg   s Buckingham    Buckingham A     1428.5000    eV        0.000 12.000
                            Buckingham rho  0.29450000    Ang       
                            Buckingham C     0.0000000    eV*Ang^6  
--------------------------------------------------------------------------------
Mg   s Cl   s Buckingham    Buckingham A     4914.5400    eV        0.000 12.000
                            Buckingham rho  0.25700000    Ang       
                            Buckingham C     0.0000000    eV*Ang^6  
--------------------------------------------------------------------------------
O    s Ca   s Buckingham    Buckingham A     1090.4000    eV        0.000 12.000
                            Buckingham rho  0.34370000    Ang       
                            Buckingham C     0.0000000    eV*Ang^6  
--------------------------------------------------------------------------------
Cl   s Ca   s Buckingham    Buckingham A     2302.0000    eV        0.000 12.000
                            Buckingham rho  0.34020000    Ang       
                            Buckingham C     0.0000000    eV*Ang^6  
--------------------------------------------------------------------------------
O    s Sr   s Buckingham    Buckingham A     959.10000    eV        0.000 12.000
                            Buckingham rho  0.37210000    Ang       
                            Buckingham C     0.0000000    eV*Ang^6  
--------------------------------------------------------------------------------
Cl   s Sr   s Buckingham    Buckingham A     2191.0900    eV        0.000 12.000
                            Buckingham rho  0.34570000    Ang       
                            Buckingham C     0.0000000    eV*Ang^6  
--------------------------------------------------------------------------------
O    s Ba   s Buckingham    Buckingham A     905.70000    eV        0.000 12.000
                            Buckingham rho  0.39760000    Ang       
                            Buckingham C     0.0000000    eV*Ang^6  
--------------------------------------------------------------------------------
Cl   s Ba   s Buckingham    Buckingham A     2704.5500    eV        0.000 12.000
                            Buckingham rho  0.35280000    Ang       
                            Buckingham C     0.0000000    eV*Ang^6  
--------------------------------------------------------------------------------

********************************************************************************
*  Output for configuration   1                                                *
********************************************************************************


  Components of energy : 

--------------------------------------------------------------------------------
  Interatomic potentials     =           5.13022605 eV    
  Monopole - monopole (real) =         -10.03624526 eV    
  Monopole - monopole (recip)=         -29.53581274 eV    
  Monopole - monopole (total)=         -39.57205800 eV    
--------------------------------------------------------------------------------
  Total lattice energy       =         -34.44183194 eV    
--------------------------------------------------------------------------------
  Total lattice energy       =           -3323.1103 kJ/(mole unit cells)
--------------------------------------------------------------------------------


  Number of variables =        1

  Maximum number of calculations  =          1000
  Maximum Hessian update interval =            10
  Maximum step size               =   1.000000000
  Maximum parameter tolerance     =   0.000010000
  Maximum function  tolerance     =   0.000010000
  Maximum gradient  tolerance     =   0.001000000
  Maximum gradient  component     =   0.010000000

  Symmetry constrained optimisation

  Symmetry used for second derivatives

  Cell parameters to be optimised using strains

  Newton-Raphson optimiser to be used

  BFGS hessian update to be used

  Lower half triangular hessian to be used

  Start of bulk optimisation :

  Cycle:      0 Energy:       -34.441832  Gnorm:      0.196570  CPU:    0.017
  ** Hessian calculated **
  Cycle:      1 Energy:       -34.441914  Gnorm:      0.000103  CPU:    0.022


  **** Optimisation achieved ****


  Final energy =     -34.44191447 eV
  Final Gnorm  =       0.00000000

  Components of energy : 

--------------------------------------------------------------------------------
  Interatomic potentials     =           5.09689708 eV    
  Monopole - monopole (real) =         -10.02781331 eV    
  Monopole - monopole (recip)=         -29.51099824 eV    
  Monopole - monopole (total)=         -39.53881155 eV    
--------------------------------------------------------------------------------
  Total lattice energy       =         -34.44191447 eV    
--------------------------------------------------------------------------------
  Total lattice energy       =           -3323.1183 kJ/(mole unit cells)
--------------------------------------------------------------------------------

  Final asymmetric unit coordinates :

--------------------------------------------------------------------------------
   No.  Atomic        x           y           z         Radius
        Label       (Frac)      (Frac)      (Frac)       (Angs) 
--------------------------------------------------------------------------------
     1  Cl    c     0.000000    0.000000    0.000000    0.000000
     2  O     c     0.500000    0.500000    0.500000    0.000000
     3  Na    c     0.500000    0.500000    0.000000    0.000000
     4  Cl    s     0.000000    0.000000    0.000000    0.000000
     5  O     s     0.500000    0.500000    0.500000    0.000000
--------------------------------------------------------------------------------

  Final Cartesian lattice vectors (Angstroms) :

        4.507787    0.000000    0.000000
        0.000000    4.507787    0.000000
        0.000000    0.000000    4.507787


  Final cell parameters and derivatives :

--------------------------------------------------------------------------------
       a            4.507787 Angstrom     dE/de1(xx)     0.000000 eV/strain
       b            4.507787 Angstrom     dE/de2(yy)     0.000000 eV/strain
       c            4.507787 Angstrom     dE/de3(zz)     0.000000 eV/strain
       alpha       90.000000 Degrees      dE/de4(yz)     0.000000 eV/strain
       beta        90.000000 Degrees      dE/de5(xz)     0.000000 eV/strain
       gamma       90.000000 Degrees      dE/de6(xy)     0.000000 eV/strain
--------------------------------------------------------------------------------

  Primitive cell volume =            91.598892 Angs**3

  Density of cell =      2.183054 g/cm**3

  Non-primitive cell volume =            91.598892 Angs**3


  Final internal derivatives :

--------------------------------------------------------------------------------
   No.  Atomic          a             b             c           Radius
        Label          (eV)          (eV)          (eV)        (eV/Angs)
--------------------------------------------------------------------------------
      1 Cl    c       0.000000      0.000000      0.000000      0.000000
      2 O     c       0.000000      0.000000      0.000000      0.000000
      3 Na    c       0.000000      0.000000      0.000000      0.000000
      4 Cl    s       0.000000      0.000000      0.000000      0.000000
      5 O     s       0.000000      0.000000      0.000000      0.000000
--------------------------------------------------------------------------------
  Maximum abs         0.000000      0.000000      0.000000      0.000000
--------------------------------------------------------------------------------

  Comparison of initial and final structures : 

--------------------------------------------------------------------------------
  Parameter   Initial value   Final value   Difference    Units      Percent
--------------------------------------------------------------------------------
    Volume        91.368216     91.598892     0.230676    Angs**3      0.25
    a              4.504000      4.507787     0.003787    Angstroms    0.08
    b              4.504000      4.507787     0.003787    Angstroms    0.08
    c              4.504000      4.507787     0.003787    Angstroms    0.08
    alpha         90.000000     90.000000     0.000000    Degrees      0.00
    beta          90.000000     90.000000     0.000000    Degrees      0.00
    gamma         90.000000     90.000000     0.000000    Degrees      0.00
      1 x          0.000000      0.000000     0.000000    Fractional   0.00
      1 y          0.000000      0.000000     0.000000    Fractional   0.00
      1 z          0.000000      0.000000     0.000000    Fractional   0.00
      2 x          0.500000      0.500000     0.000000    Fractional   0.00
      2 y          0.500000      0.500000     0.000000    Fractional   0.00
      2 z          0.500000      0.500000     0.000000    Fractional   0.00
      3 x          0.500000      0.500000     0.000000    Fractional   0.00
      3 y          0.500000      0.500000     0.000000    Fractional   0.00
      3 z          0.000000      0.000000     0.000000    Fractional   0.00
      4 x          0.000000      0.000000     0.000000    Fractional   0.00
      4 y          0.000000      0.000000     0.000000    Fractional   0.00
      4 z          0.000000      0.000000     0.000000    Fractional   0.00
      5 x          0.500000      0.500000     0.000000    Fractional   0.00
      5 y          0.500000      0.500000     0.000000    Fractional   0.00
      5 z          0.500000      0.500000     0.000000    Fractional   0.00
--------------------------------------------------------------------------------


  Born effective charge tensors : 

-------------------------------------------------------------------------------
  Atom             x           y             z
-------------------------------------------------------------------------------
    1 Cl    x      -1.0181     -0.0000      0.0000
            y      -0.0000     -1.0181      0.0000
            z       0.0000      0.0000     -1.0181
-------------------------------------------------------------------------------
    2 O     x      -2.2647      0.0000     -0.0000
            y       0.0000     -2.2647     -0.0000
            z      -0.0000     -0.0000     -2.2647
-------------------------------------------------------------------------------
    3 Na    x       1.2258     -0.0000      0.0000
            y      -0.0000      1.2258     -0.0000
            z       0.0000     -0.0000      0.8313
-------------------------------------------------------------------------------




  Elastic Constant Matrix: (Units=GPa)

-------------------------------------------------------------------------------
  Indices      1         2         3         4         5         6    
-------------------------------------------------------------------------------
       1     95.8177   20.0737   20.0737   -0.0000   -0.0000    0.0000
       2     20.0737   95.8177   20.0737   -0.0000   -0.0000    0.0000
       3     20.0737   20.0737   95.8177   -0.0000   -0.0000    0.0000
       4     -0.0000   -0.0000   -0.0000   20.0737   -0.0000    0.0000
       5     -0.0000   -0.0000   -0.0000   -0.0000   20.0737    0.0000
       6      0.0000    0.0000    0.0000    0.0000    0.0000   20.0737
-------------------------------------------------------------------------------


  Elastic Compliance Matrix: (Units=1/GPa)

-------------------------------------------------------------------------------
  Indices      1         2         3         4         5         6    
-------------------------------------------------------------------------------
       1    0.011253 -0.001949 -0.001949  0.000000  0.000000 -0.000000
       2   -0.001949  0.011253 -0.001949  0.000000  0.000000  0.000000
       3   -0.001949 -0.001949  0.011253  0.000000  0.000000 -0.000000
       4    0.000000  0.000000  0.000000  0.049816  0.000000 -0.000000
       5    0.000000  0.000000  0.000000  0.000000  0.049816 -0.000000
       6   -0.000000  0.000000 -0.000000 -0.000000 -0.000000  0.049816
-------------------------------------------------------------------------------

  Mechanical properties :

-------------------------------------------------------------------------------
  Convention :                    Reuss         Voigt         Hill
-------------------------------------------------------------------------------
  Bulk  Modulus (GPa)     =      45.32174      45.32174      45.32174
  Shear Modulus (GPa)     =      24.72085      27.19304      25.95695
-------------------------------------------------------------------------------
  Velocity S-wave (km/s)  =       3.36511       3.52937       3.44822
  Velocity P-wave (km/s)  =       5.98827       6.11304       6.05098
-------------------------------------------------------------------------------
  Compressibility (1/GPa) =    0.02206447
-------------------------------------------------------------------------------
  Stress axis :                     x             y             z
-------------------------------------------------------------------------------
  Youngs Moduli (GPa)     =      88.86373      88.86373      88.86373
-------------------------------------------------------------------------------
  Poissons Ratio (x)      =                     0.17321       0.17321
  Poissons Ratio (y)      =       0.17321                     0.17321
  Poissons Ratio (z)      =       0.17321       0.17321
-------------------------------------------------------------------------------


  Piezoelectric Strain Matrix: (Units=C/m**2)

-------------------------------------------------------------------------------
  Indices      1         2         3         4         5         6    
-------------------------------------------------------------------------------
       x    -0.00000  -0.00000  -0.00000   0.00000  -0.00000  -0.00000
       y    -0.00000  -0.00000   0.00000  -0.00000   0.00000   0.00000
       z    -0.00000  -0.00000  -0.00000  -0.00000   0.00000   0.00000
-------------------------------------------------------------------------------


  Piezoelectric Stress Matrix: (Units=10**-11 C/N)

-------------------------------------------------------------------------------
  Indices      1         2         3         4         5         6    
-------------------------------------------------------------------------------
       x    -0.00000   0.00000   0.00000   0.00000  -0.00000  -0.00000
       y    -0.00000  -0.00000   0.00000  -0.00000   0.00000   0.00000
       z     0.00000   0.00000  -0.00000  -0.00000   0.00000   0.00000
-------------------------------------------------------------------------------


  Static dielectric constant tensor : 

-------------------------------------------------------------------------------
              x         y         z
-------------------------------------------------------------------------------
       x    22.84729   0.00000   0.00000
       y     0.00000  22.84729  -0.00000
       z     0.00000  -0.00000  22.84729
--------------------------------------------------------------------------------

  High frequency dielectric constant tensor : 

-------------------------------------------------------------------------------
              x         y         z
-------------------------------------------------------------------------------
       x     1.47557   0.00000  -0.00000
       y     0.00000   1.47557  -0.00000
       z    -0.00000  -0.00000   1.47557
-------------------------------------------------------------------------------

  Static refractive indices : 

-------------------------------------------------------------------------------
    1 =    4.77988      2 =    4.77988      3 =    4.77988
-------------------------------------------------------------------------------

  High frequency refractive indices : 

-------------------------------------------------------------------------------
    1 =    1.21473      2 =    1.21473      3 =    1.21473
-------------------------------------------------------------------------------


  Time to end of optimisation =       0.0317 seconds

********************************************************************************
*  Defect calculation for configuration   1 :                                  *
********************************************************************************

  Total number of defects =      3

  Total charge on defect  =  -1.00

  Defect centre is at   0.5000   0.1600   0.3400  Frac

  Region 1 radius =  12.0000      Number of ions =    553

  Number of symmetry inequivalent region 1 ions  =    319

  Region 2 radius =  16.0000      Number of ions =    768

  Number of symmetry inequivalent region 2a ions =    420

  Region 2a mode = 4 : screened electrostatics due to region 1 
                       neglect correction to region 1 forces from 2a
                       region 2a displacements based on defects only

  Region 2a ions will only interact with defects in region 1

  Vacancies:

--------------------------------------------------------------------------------
    Specification type     Symbol/Number         x          y          z
--------------------------------------------------------------------------------
    Fractional                               0.500000   0.500000   0.000000
    Fractional                               0.500000   0.000000   0.500000
--------------------------------------------------------------------------------

  Interstitials:

--------------------------------------------------------------------------------
    Specification type     Symbol/Number         x          y          z
--------------------------------------------------------------------------------
    Atom/Fractional         Na               0.500000   0.160000   0.340000
--------------------------------------------------------------------------------


  Symmetry reduced region 1 (Relative to defect centre) :

--------------------------------------------------------------------------------
   No.   Atomic       x            y             z       Radius  Multiplicity   
         Label      (Angs)       (Angs)        (Angs)    (Angs)     
--------------------------------------------------------------------------------
     1  Na    c      0.0000       0.0000       0.0000 *  0.0000     1    Defect
     2  O     c      0.0000       1.5326 *     0.7212 *  0.0000     1          
     3  Na    c      2.2539 *     1.5326 *     0.7212 *  0.0000     2          
     4  Cl    c      2.2539 *    -0.7212 *    -1.5326 *  0.0000     2          
     5  O     c      0.0000      -2.9751 *     0.7212 *  0.0000     1          
     6  Na    c      0.0000       1.5326 *     2.9751 *  0.0000     1          
     7  Na    c      0.0000      -2.9751 *    -1.5326 *  0.0000     1          
     8  Cl    c      2.2539 *    -0.7212 *     2.9751 *  0.0000     2          
     9  Na    c      2.2539 *    -2.9751 *     0.7212 *  0.0000     2          
    10  Na    c      0.0000       3.7865 *     0.7212 *  0.0000     1          
    11  Na    c      0.0000      -0.7212 *    -3.7865 *  0.0000     1          
    12  O     c      0.0000       1.5326 *    -3.7865 *  0.0000     1          
    13  Na    c      0.0000      -2.9751 *     2.9751 *  0.0000     1          
    14  Na    c     -4.5078 *    -0.7212 *     0.7212 *  0.0000     2          
    15  Cl    c      2.2539 *     3.7865 *    -1.5326 *  0.0000     2          
    16  Na    c      2.2539 *     1.5326 *    -3.7865 *  0.0000     2          
    17  O     c     -4.5078 *     1.5326 *     0.7212 *  0.0000     2          
    18  O     c      0.0000      -2.9751 *    -3.7865 *  0.0000     1          
    19  Na    c     -4.5078 *     1.5326 *    -1.5326 *  0.0000     2          
    20  Na    c      0.0000      -0.7212 *     5.2290 *  0.0000     1          
    21  Na    c      0.0000      -5.2290 *     0.7212 *  0.0000     1          
    22  Cl    c      2.2539 *     3.7865 *     2.9751 *  0.0000     2          
    23  Na    c      2.2539 *    -2.9751 *    -3.7865 *  0.0000     2          
    24  Na    c      0.0000       3.7865 *    -3.7865 *  0.0000     1          
    25  O     c      0.0000       1.5326 *     5.2290 *  0.0000     1          
    26  O     c     -4.5078 *    -2.9751 *     0.7212 *  0.0000     2          
    27  Na    c     -4.5078 *     1.5326 *     2.9751 *  0.0000     2          
    28  Na    c     -4.5078 *    -2.9751 *    -1.5326 *  0.0000     2          
    29  Cl    c      2.2539 *    -5.2290 *    -1.5326 *  0.0000     2          
    30  Na    c      2.2539 *     1.5326 *     5.2290 *  0.0000     2          
    31  Na    c     -4.5078 *     3.7865 *     0.7212 *  0.0000     2          
    32  Na    c     -4.5078 *    -0.7212 *    -3.7865 *  0.0000     2          
    33  O     c      0.0000      -2.9751 *     5.2290 *  0.0000     1          
    34  O     c      0.0000       6.0404 *     0.7212 *  0.0000     1          
    35  O     c     -4.5078 *     1.5326 *    -3.7865 *  0.0000     2          
    36  Na    c     -4.5078 *    -2.9751 *     2.9751 *  0.0000     2          
    37  Na    c      0.0000       6.0404 *    -1.5326 *  0.0000     1          
    38  Na    c      0.0000       1.5326 *    -6.0404 *  0.0000     1          
    39  Cl    c      2.2539 *    -5.2290 *     2.9751 *  0.0000     2          
    40  Na    c      2.2539 *    -2.9751 *     5.2290 *  0.0000     2          
    41  Na    c      0.0000       3.7865 *     5.2290 *  0.0000     1          
    42  Na    c      0.0000      -5.2290 *    -3.7865 *  0.0000     1          
    43  Na    c      2.2539 *     6.0404 *     0.7212 *  0.0000     2          
    44  Cl    c      2.2539 *    -0.7212 *    -6.0404 *  0.0000     2          
    45  O     c     -4.5078 *    -2.9751 *    -3.7865 *  0.0000     2          
    46  Na    c      0.0000       6.0404 *     2.9751 *  0.0000     1          
    47  Na    c      0.0000      -2.9751 *    -6.0404 *  0.0000     1          
    48  Na    c     -4.5078 *    -0.7212 *     5.2290 *  0.0000     2          
    49  Na    c      4.5078 *    -5.2290 *     0.7212 *  0.0000     2          
    50  Cl    c      6.7617 *    -0.7212 *    -1.5326 *  0.0000     2          
    51  Na    c      6.7617 *     1.5326 *     0.7212 *  0.0000     2          
    52  Na    c     -4.5078 *     3.7865 *    -3.7865 *  0.0000     2          
    53  O     c     -4.5078 *     1.5326 *     5.2290 *  0.0000     2          
    54  O     c      0.0000       6.0404 *    -3.7865 *  0.0000     1          
    55  Na    c      0.0000      -5.2290 *     5.2290 *  0.0000     1          
    56  Cl    c      6.7617 *    -0.7212 *     2.9751 *  0.0000     2          
    57  Na    c      6.7617 *    -2.9751 *     0.7212 *  0.0000     2          
    58  Na    c      2.2539 *     6.0404 *    -3.7865 *  0.0000     2          
    59  Cl    c      2.2539 *     3.7865 *    -6.0404 *  0.0000     2          
    60  O     c      0.0000      -7.4829 *     0.7212 *  0.0000     1          
    61  O     c     -4.5078 *    -2.9751 *     5.2290 *  0.0000     2          
    62  O     c     -4.5078 *     6.0404 *     0.7212 *  0.0000     2          
    63  Na    c      0.0000       1.5326 *     7.4829 *  0.0000     1          
    64  Na    c      0.0000      -7.4829 *    -1.5326 *  0.0000     1          
    65  Na    c     -4.5078 *     6.0404 *    -1.5326 *  0.0000     2          
    66  Na    c     -4.5078 *     1.5326 *    -6.0404 *  0.0000     2          
    67  Cl    c      2.2539 *    -0.7212 *     7.4829 *  0.0000     2          
    68  Na    c      2.2539 *    -7.4829 *     0.7212 *  0.0000     2          
    69  Na    c     -4.5078 *     3.7865 *     5.2290 *  0.0000     2          
    70  Na    c      4.5078 *    -5.2290 *    -3.7865 *  0.0000     2          
    71  Cl    c      6.7617 *     3.7865 *    -1.5326 *  0.0000     2          
    72  Na    c      6.7617 *     1.5326 *    -3.7865 *  0.0000     2          
    73  O     c      0.0000       6.0404 *     5.2290 *  0.0000     1          
    74  Na    c      0.0000      -2.9751 *     7.4829 *  0.0000     1          
    75  Na    c      0.0000      -7.4829 *     2.9751 *  0.0000     1          
    76  Na    c     -4.5078 *     6.0404 *     2.9751 *  0.0000     2          
    77  Na    c     -4.5078 *    -2.9751 *    -6.0404 *  0.0000     2          
    78  Cl    c      2.2539 *    -5.2290 *    -6.0404 *  0.0000     2          
    79  Cl    c      6.7617 *     3.7865 *     2.9751 *  0.0000     2          
    80  Na    c      2.2539 *     6.0404 *     5.2290 *  0.0000     2          
    81  Na    c      6.7617 *    -2.9751 *    -3.7865 *  0.0000     2          
    82  Na    c      0.0000      -0.7212 *    -8.2943 *  0.0000     1          
    83  Na    c      0.0000       8.2943 *     0.7212 *  0.0000     1          
    84  O     c      0.0000      -7.4829 *    -3.7865 *  0.0000     1          
    85  O     c      0.0000       1.5326 *    -8.2943 *  0.0000     1          
    86  O     c     -4.5078 *     6.0404 *    -3.7865 *  0.0000     2          
    87  Na    c      0.0000       6.0404 *    -6.0404 *  0.0000     1          
    88  Na    c      4.5078 *    -5.2290 *     5.2290 *  0.0000     2          
    89  Cl    c      2.2539 *     3.7865 *     7.4829 *  0.0000     2          
    90  Cl    c      6.7617 *    -5.2290 *    -1.5326 *  0.0000     2          
    91  Na    c      2.2539 *    -7.4829 *    -3.7865 *  0.0000     2          
    92  Na    c      6.7617 *     1.5326 *     5.2290 *  0.0000     2          
    93  Cl    c      2.2539 *     8.2943 *    -1.5326 *  0.0000     2          
    94  Na    c      2.2539 *     1.5326 *    -8.2943 *  0.0000     2          
    95  O     c      4.5078 *    -7.4829 *     0.7212 *  0.0000     2          
    96  O     c      0.0000      -2.9751 *    -8.2943 *  0.0000     1          
    97  Na    c      4.5078 *     1.5326 *     7.4829 *  0.0000     2          
    98  Na    c      4.5078 *    -7.4829 *    -1.5326 *  0.0000     2          
    99  Cl    c      6.7617 *    -5.2290 *     2.9751 *  0.0000     2          
   100  Na    c      6.7617 *    -2.9751 *     5.2290 *  0.0000     2          
   101  Na    c      9.0156 *    -0.7212 *     0.7212 *  0.0000     2          
   102  Cl    c      2.2539 *     8.2943 *     2.9751 *  0.0000     2          
   103  Na    c      2.2539 *    -2.9751 *    -8.2943 *  0.0000     2          
   104  Na    c      6.7617 *     6.0404 *     0.7212 *  0.0000     2          
   105  Cl    c      6.7617 *    -0.7212 *    -6.0404 *  0.0000     2          
   106  Na    c      0.0000       3.7865 *    -8.2943 *  0.0000     1          
   107  Na    c      0.0000       8.2943 *    -3.7865 *  0.0000     1          
   108  O     c      0.0000      -7.4829 *     5.2290 *  0.0000     1          
   109  O     c      4.5078 *     6.0404 *     5.2290 *  0.0000     2          
   110  O     c      9.0156 *     1.5326 *     0.7212 *  0.0000     2          
   111  Na    c      4.5078 *    -2.9751 *     7.4829 *  0.0000     2          
   112  Na    c      4.5078 *    -7.4829 *     2.9751 *  0.0000     2          
   113  Na    c      9.0156 *     1.5326 *    -1.5326 *  0.0000     2          
   114  Cl    c      2.2539 *    -5.2290 *     7.4829 *  0.0000     2          
   115  Na    c      2.2539 *    -7.4829 *     5.2290 *  0.0000     2          
   116  Na    c     -4.5078 *     8.2943 *     0.7212 *  0.0000     2          
   117  Na    c      4.5078 *    -0.7212 *    -8.2943 *  0.0000     2          
   118  O     c      9.0156 *    -2.9751 *     0.7212 *  0.0000     2          
   119  O     c      4.5078 *    -7.4829 *    -3.7865 *  0.0000     2          
   120  O     c      4.5078 *     1.5326 *    -8.2943 *  0.0000     2          
   121  Na    c      0.0000       6.0404 *     7.4829 *  0.0000     1          
   122  Na    c      0.0000      -7.4829 *    -6.0404 *  0.0000     1          
   123  Na    c      9.0156 *     1.5326 *     2.9751 *  0.0000     2          
   124  Na    c      9.0156 *    -2.9751 *    -1.5326 *  0.0000     2          
   125  Na    c     -4.5078 *     6.0404 *    -6.0404 *  0.0000     2          
   126  Na    c      0.0000      -0.7212 *     9.7368 *  0.0000     1          
   127  Na    c      0.0000      -9.7368 *     0.7212 *  0.0000     1          
   128  Na    c      0.0000       8.2943 *     5.2290 *  0.0000     1          
   129  Na    c      0.0000      -5.2290 *    -8.2943 *  0.0000     1          
   130  Na    c      9.0156 *     3.7865 *     0.7212 *  0.0000     2          
   131  Na    c      9.0156 *    -0.7212 *    -3.7865 *  0.0000     2          
   132  Cl    c      6.7617 *     3.7865 *    -6.0404 *  0.0000     2          
   133  Na    c      6.7617 *     6.0404 *    -3.7865 *  0.0000     2          
   134  O     c      0.0000       1.5326 *     9.7368 *  0.0000     1          
   135  O     c      4.5078 *    -2.9751 *    -8.2943 *  0.0000     2          
   136  O     c      9.0156 *     1.5326 *    -3.7865 *  0.0000     2          
   137  Na    c      9.0156 *    -2.9751 *     2.9751 *  0.0000     2          
   138  Cl    c      2.2539 *    -9.7368 *    -1.5326 *  0.0000     2          
   139  Cl    c      6.7617 *    -0.7212 *     7.4829 *  0.0000     2          
   140  Na    c      2.2539 *     1.5326 *     9.7368 *  0.0000     2          
   141  Na    c      6.7617 *    -7.4829 *     0.7212 *  0.0000     2          
   142  Na    c     -4.5078 *     3.7865 *    -8.2943 *  0.0000     2          
   143  Na    c     -4.5078 *     8.2943 *    -3.7865 *  0.0000     2          
   144  O     c      0.0000      -2.9751 *     9.7368 *  0.0000     1          
   145  O     c      4.5078 *    -7.4829 *     5.2290 *  0.0000     2          
   146  O     c      9.0156 *    -2.9751 *    -3.7865 *  0.0000     2          
   147  O     c      0.0000       6.0404 *    -8.2943 *  0.0000     1          
   148  Cl    c      2.2539 *    -9.7368 *     2.9751 *  0.0000     2          
   149  Na    c      2.2539 *    -2.9751 *     9.7368 *  0.0000     2          
   150  Na    c      0.0000       3.7865 *     9.7368 *  0.0000     1          
   151  Na    c      9.0156 *    -0.7212 *     5.2290 *  0.0000     2          
   152  Na    c      9.0156 *    -5.2290 *     0.7212 *  0.0000     2          
   153  Na    c      0.0000      -9.7368 *    -3.7865 *  0.0000     1          
   154  Cl    c      6.7617 *    -5.2290 *    -6.0404 *  0.0000     2          
   155  Na    c      6.7617 *     6.0404 *     5.2290 *  0.0000     2          
   156  Na    c      9.0156 *     3.7865 *    -3.7865 *  0.0000     2          
   157  Na    c      2.2539 *     6.0404 *    -8.2943 *  0.0000     2          
   158  Cl    c      2.2539 *     8.2943 *    -6.0404 *  0.0000     2          
   159  O     c      9.0156 *     1.5326 *     5.2290 *  0.0000     2          
   160  O     c      0.0000      10.5482 *     0.7212 *  0.0000     1          
   161  Na    c      0.0000      -7.4829 *     7.4829 *  0.0000     1          
   162  Na    c     -4.5078 *     6.0404 *     7.4829 *  0.0000     2          
   163  Na    c      4.5078 *    -7.4829 *    -6.0404 *  0.0000     2          
   164  Na    c      0.0000      10.5482 *    -1.5326 *  0.0000     1          
   165  Na    c      0.0000       1.5326 *   -10.5482 *  0.0000     1          
   166  Na    c     -4.5078 *    -9.7368 *     0.7212 *  0.0000     2          
   167  Na    c      4.5078 *    -0.7212 *     9.7368 *  0.0000     2          
   168  Cl    c      6.7617 *     3.7865 *     7.4829 *  0.0000     2          
   169  Na    c      6.7617 *    -7.4829 *    -3.7865 *  0.0000     2          
   170  Na    c     -4.5078 *     8.2943 *     5.2290 *  0.0000     2          
   171  Na    c      4.5078 *    -5.2290 *    -8.2943 *  0.0000     2          
   172  Na    c      2.2539 *    10.5482 *     0.7212 *  0.0000     2          
   173  Cl    c      6.7617 *     8.2943 *    -1.5326 *  0.0000     2          
   174  Na    c      6.7617 *     1.5326 *    -8.2943 *  0.0000     2          
   175  Cl    c      2.2539 *    -0.7212 *   -10.5482 *  0.0000     2          
   176  O     c      4.5078 *     1.5326 *     9.7368 *  0.0000     2          
   177  O     c      9.0156 *    -2.9751 *     5.2290 *  0.0000     2          
   178  O     c      9.0156 *     6.0404 *     0.7212 *  0.0000     2          
   179  Na    c      0.0000      10.5482 *     2.9751 *  0.0000     1          
   180  Na    c      9.0156 *     1.5326 *    -6.0404 *  0.0000     2          
   181  Na    c      9.0156 *     6.0404 *    -1.5326 *  0.0000     2          
   182  Na    c      0.0000      -2.9751 *   -10.5482 *  0.0000     1          
   183  Na    c      0.0000      -5.2290 *     9.7368 *  0.0000     1          
   184  Na    c      0.0000      -9.7368 *     5.2290 *  0.0000     1          
   185  Na    c      9.0156 *     3.7865 *     5.2290 *  0.0000     2          
   186  Na    c      9.0156 *    -5.2290 *    -3.7865 *  0.0000     2          
   187  Cl    c      6.7617 *     8.2943 *     2.9751 *  0.0000     2          
   188  Na    c      6.7617 *    -2.9751 *    -8.2943 *  0.0000     2          
   189  O     c      4.5078 *    -2.9751 *     9.7368 *  0.0000     2          
   190  O     c      0.0000      -7.4829 *    -8.2943 *  0.0000     1          
   191  O     c      0.0000      10.5482 *    -3.7865 *  0.0000     1          
   192  O     c     -4.5078 *     6.0404 *    -8.2943 *  0.0000     2          
   193  Na    c      9.0156 *     6.0404 *     2.9751 *  0.0000     2          
   194  Na    c      9.0156 *    -2.9751 *    -6.0404 *  0.0000     2          
   195  Cl    c      6.7617 *    -5.2290 *     7.4829 *  0.0000     2          
   196  Na    c      6.7617 *    -7.4829 *     5.2290 *  0.0000     2          
   197  Na    c      4.5078 *     3.7865 *     9.7368 *  0.0000     2          
   198  Na    c     -4.5078 *    -9.7368 *    -3.7865 *  0.0000     2          
   199  Na    c     11.2695 *     1.5326 *     0.7212 *  0.0000     2          
   200  Cl    c      2.2539 *     8.2943 *     7.4829 *  0.0000     2          
   201  Cl    c     11.2695 *    -0.7212 *    -1.5326 *  0.0000     2          
   202  Na    c      2.2539 *    -7.4829 *    -8.2943 *  0.0000     2          
   203  Na    c      2.2539 *    10.5482 *    -3.7865 *  0.0000     2          
   204  Cl    c      2.2539 *     3.7865 *   -10.5482 *  0.0000     2          
   205  O     c      0.0000       6.0404 *     9.7368 *  0.0000     1          
   206  O     c      4.5078 *    10.5482 *     0.7212 *  0.0000     2          
   207  O     c      9.0156 *     6.0404 *    -3.7865 *  0.0000     2          
   208  Na    c      4.5078 *    -7.4829 *     7.4829 *  0.0000     2          
   209  Na    c      4.5078 *    10.5482 *    -1.5326 *  0.0000     2          
   210  Na    c      4.5078 *     1.5326 *   -10.5482 *  0.0000     2          
   211  Na    c      9.0156 *    -5.2290 *     5.2290 *  0.0000     2          
   212  Cl    c     11.2695 *    -0.7212 *     2.9751 *  0.0000     2          
   213  Na    c      2.2539 *     6.0404 *     9.7368 *  0.0000     2          
   214  Na    c     11.2695 *    -2.9751 *     0.7212 *  0.0000     2          
   215  Cl    c      2.2539 *    -9.7368 *    -6.0404 *  0.0000     2          
   216  Na    c      0.0000       8.2943 *    -8.2943 *  0.0000     1          
   217  O     c      9.0156 *    -7.4829 *     0.7212 *  0.0000     2          
   218  O     c      0.0000      10.5482 *     5.2290 *  0.0000     1          
   219  Na    c      9.0156 *     1.5326 *     7.4829 *  0.0000     2          
   220  Na    c      9.0156 *    -7.4829 *    -1.5326 *  0.0000     2          
   221  Na    c      4.5078 *    10.5482 *     2.9751 *  0.0000     2          
   222  Na    c     -4.5078 *    -2.9751 *   -10.5482 *  0.0000     2          
   223  Na    c     -4.5078 *    -9.7368 *     5.2290 *  0.0000     2          
   224  Na    c      4.5078 *    -5.2290 *     9.7368 *  0.0000     2          
   225  Na    c      6.7617 *     1.5326 *     9.7368 *  0.0000     2          
   226  Cl    c      6.7617 *    -9.7368 *    -1.5326 *  0.0000     2          
   227  Na    c      2.2539 *    10.5482 *     5.2290 *  0.0000     2          
   228  Na    c     11.2695 *     1.5326 *    -3.7865 *  0.0000     2          
   229  Cl    c     11.2695 *     3.7865 *    -1.5326 *  0.0000     2          
   230  Cl    c      2.2539 *    -5.2290 *   -10.5482 *  0.0000     2          
   231  O     s      0.0000       1.5326 *     0.7212 *  0.0000     1          
   232  Cl    s      2.2539 *    -0.7212 *    -1.5326 *  0.0000     2          
   233  O     s      0.0000      -2.9751 *     0.7212 *  0.0000     1          
   234  Cl    s      2.2539 *    -0.7212 *     2.9751 *  0.0000     2          
   235  O     s      0.0000       1.5326 *    -3.7865 *  0.0000     1          
   236  Cl    s      2.2539 *     3.7865 *    -1.5326 *  0.0000     2          
   237  O     s     -4.5078 *     1.5326 *     0.7212 *  0.0000     2          
   238  O     s      0.0000      -2.9751 *    -3.7865 *  0.0000     1          
   239  Cl    s      2.2539 *     3.7865 *     2.9751 *  0.0000     2          
   240  O     s      0.0000       1.5326 *     5.2290 *  0.0000     1          
   241  O     s     -4.5078 *    -2.9751 *     0.7212 *  0.0000     2          
   242  Cl    s      2.2539 *    -5.2290 *    -1.5326 *  0.0000     2          
   243  O     s      0.0000      -2.9751 *     5.2290 *  0.0000     1          
   244  O     s      0.0000       6.0404 *     0.7212 *  0.0000     1          
   245  O     s     -4.5078 *     1.5326 *    -3.7865 *  0.0000     2          
   246  Cl    s      2.2539 *    -5.2290 *     2.9751 *  0.0000     2          
   247  Cl    s      2.2539 *    -0.7212 *    -6.0404 *  0.0000     2          
   248  O     s     -4.5078 *    -2.9751 *    -3.7865 *  0.0000     2          
   249  Cl    s      6.7617 *    -0.7212 *    -1.5326 *  0.0000     2          
   250  O     s     -4.5078 *     1.5326 *     5.2290 *  0.0000     2          
   251  O     s      0.0000       6.0404 *    -3.7865 *  0.0000     1          
   252  Cl    s      6.7617 *    -0.7212 *     2.9751 *  0.0000     2          
   253  Cl    s      2.2539 *     3.7865 *    -6.0404 *  0.0000     2          
   254  O     s      0.0000      -7.4829 *     0.7212 *  0.0000     1          
   255  O     s     -4.5078 *    -2.9751 *     5.2290 *  0.0000     2          
   256  O     s     -4.5078 *     6.0404 *     0.7212 *  0.0000     2          
   257  Cl    s      2.2539 *    -0.7212 *     7.4829 *  0.0000     2          
   258  Cl    s      6.7617 *     3.7865 *    -1.5326 *  0.0000     2          
   259  O     s      0.0000       6.0404 *     5.2290 *  0.0000     1          
   260  Cl    s      2.2539 *    -5.2290 *    -6.0404 *  0.0000     2          
   261  Cl    s      6.7617 *     3.7865 *     2.9751 *  0.0000     2          
   262  O     s      0.0000      -7.4829 *    -3.7865 *  0.0000     1          
   263  O     s      0.0000       1.5326 *    -8.2943 *  0.0000     1          
   264  O     s     -4.5078 *     6.0404 *    -3.7865 *  0.0000     2          
   265  Cl    s      2.2539 *     3.7865 *     7.4829 *  0.0000     2          
   266  Cl    s      6.7617 *    -5.2290 *    -1.5326 *  0.0000     2          
   267  Cl    s      2.2539 *     8.2943 *    -1.5326 *  0.0000     2          
   268  O     s      4.5078 *    -7.4829 *     0.7212 *  0.0000     2          
   269  O     s      0.0000      -2.9751 *    -8.2943 *  0.0000     1          
   270  Cl    s      6.7617 *    -5.2290 *     2.9751 *  0.0000     2          
   271  Cl    s      2.2539 *     8.2943 *     2.9751 *  0.0000     2          
   272  Cl    s      6.7617 *    -0.7212 *    -6.0404 *  0.0000     2          
   273  O     s      0.0000      -7.4829 *     5.2290 *  0.0000     1          
   274  O     s      4.5078 *     6.0404 *     5.2290 *  0.0000     2          
   275  O     s      9.0156 *     1.5326 *     0.7212 *  0.0000     2          
   276  Cl    s      2.2539 *    -5.2290 *     7.4829 *  0.0000     2          
   277  O     s      9.0156 *    -2.9751 *     0.7212 *  0.0000     2          
   278  O     s      4.5078 *    -7.4829 *    -3.7865 *  0.0000     2          
   279  O     s      4.5078 *     1.5326 *    -8.2943 *  0.0000     2          
   280  Cl    s      6.7617 *     3.7865 *    -6.0404 *  0.0000     2          
   281  O     s      0.0000       1.5326 *     9.7368 *  0.0000     1          
   282  O     s      4.5078 *    -2.9751 *    -8.2943 *  0.0000     2          
   283  O     s      9.0156 *     1.5326 *    -3.7865 *  0.0000     2          
   284  Cl    s      2.2539 *    -9.7368 *    -1.5326 *  0.0000     2          
   285  Cl    s      6.7617 *    -0.7212 *     7.4829 *  0.0000     2          
   286  O     s      0.0000      -2.9751 *     9.7368 *  0.0000     1          
   287  O     s      4.5078 *    -7.4829 *     5.2290 *  0.0000     2          
   288  O     s      9.0156 *    -2.9751 *    -3.7865 *  0.0000     2          
   289  O     s      0.0000       6.0404 *    -8.2943 *  0.0000     1          
   290  Cl    s      2.2539 *    -9.7368 *     2.9751 *  0.0000     2          
   291  Cl    s      6.7617 *    -5.2290 *    -6.0404 *  0.0000     2          
   292  Cl    s      2.2539 *     8.2943 *    -6.0404 *  0.0000     2          
   293  O     s      9.0156 *     1.5326 *     5.2290 *  0.0000     2          
   294  O     s      0.0000      10.5482 *     0.7212 *  0.0000     1          
   295  Cl    s      6.7617 *     3.7865 *     7.4829 *  0.0000     2          
   296  Cl    s      6.7617 *     8.2943 *    -1.5326 *  0.0000     2          
   297  Cl    s      2.2539 *    -0.7212 *   -10.5482 *  0.0000     2          
   298  O     s      4.5078 *     1.5326 *     9.7368 *  0.0000     2          
   299  O     s      9.0156 *    -2.9751 *     5.2290 *  0.0000     2          
   300  O     s      9.0156 *     6.0404 *     0.7212 *  0.0000     2          
   301  Cl    s      6.7617 *     8.2943 *     2.9751 *  0.0000     2          
   302  O     s      4.5078 *    -2.9751 *     9.7368 *  0.0000     2          
   303  O     s      0.0000      -7.4829 *    -8.2943 *  0.0000     1          
   304  O     s      0.0000      10.5482 *    -3.7865 *  0.0000     1          
   305  O     s     -4.5078 *     6.0404 *    -8.2943 *  0.0000     2          
   306  Cl    s      6.7617 *    -5.2290 *     7.4829 *  0.0000     2          
   307  Cl    s      2.2539 *     8.2943 *     7.4829 *  0.0000     2          
   308  Cl    s     11.2695 *    -0.7212 *    -1.5326 *  0.0000     2          
   309  Cl    s      2.2539 *     3.7865 *   -10.5482 *  0.0000     2          
   310  O     s      0.0000       6.0404 *     9.7368 *  0.0000     1          
   311  O     s      4.5078 *    10.5482 *     0.7212 *  0.0000     2          
   312  O     s      9.0156 *     6.0404 *    -3.7865 *  0.0000     2          
   313  Cl    s     11.2695 *    -0.7212 *     2.9751 *  0.0000     2          
   314  Cl    s      2.2539 *    -9.7368 *    -6.0404 *  0.0000     2          
   315  O     s      9.0156 *    -7.4829 *     0.7212 *  0.0000     2          
   316  O     s      0.0000      10.5482 *     5.2290 *  0.0000     1          
   317  Cl    s      6.7617 *    -9.7368 *    -1.5326 *  0.0000     2          
   318  Cl    s     11.2695 *     3.7865 *    -1.5326 *  0.0000     2          
   319  Cl    s      2.2539 *    -5.2290 *   -10.5482 *  0.0000     2          
--------------------------------------------------------------------------------

  Components of defect energy : 

--------------------------------------------------------------------------------
  Region 1 - region 1                   =     -1.86089222 eV
  Region 1 - region 2a (unrelaxed)      =     11.52603004 eV
  Region 1 - 2a (relaxed - correction)  =     -0.28808386 eV
  Region 1 (Total)                      =      9.37705395 eV
  Region 2a                             =      0.14396508 eV
  Region 2b                             =     -0.43120931 eV
--------------------------------------------------------------------------------
  Total defect energy                   =      9.08980973 eV
--------------------------------------------------------------------------------

  Largest displacement in region 2 =   0.0245 Angstroms


  Number of variables =      871

  Maximum number of calculations  =        1000
  Maximum Hessian update interval =          10
  Maximum step size               =   1.0000000
  Maximum parameter tolerance     =   0.0000100
  Maximum function  tolerance     =   0.0000100
  Maximum gradient  tolerance     =   0.0010000

  Symmetry adapted optimisation

  Symmetry to be used for second derivatives

  Newton-Raphson optimiser to be used

  BFGS hessian update to be used

  Lower half triangular hessian to be used

  Start of defect optimisation :

  Cycle:      0 Defect Energy:   9.089810  Gnorm:     0.021210  CPU:    2.976
  ** Hessian calculated **
  Cycle:      1 Defect Energy:   8.408671  Gnorm:     0.018785  CPU:    9.624
  ** Hessian calculated **
  Cycle:      2 Defect Energy:   7.356079  Gnorm:     0.014472  CPU:   16.159
  ** Hessian calculated **
  Cycle:      3 Defect Energy:   6.040930  Gnorm:     0.006496  CPU:   24.627
  Cycle:      4 Defect Energy:   5.658348  Gnorm:     0.003670  CPU:   28.595
  Cycle:      5 Defect Energy:   5.608429  Gnorm:     0.002227  CPU:   29.663
  Cycle:      6 Defect Energy:   5.549977  Gnorm:     0.001677  CPU:   30.762
  Cycle:      7 Defect Energy:   5.476974  Gnorm:     0.001558  CPU:   31.862
  Cycle:      8 Defect Energy:   5.387330  Gnorm:     0.001731  CPU:   32.843
  Cycle:      9 Defect Energy:   5.297837  Gnorm:     0.001847  CPU:   33.836
  Cycle:     10 Defect Energy:   5.241183  Gnorm:     0.001997  CPU:   34.901
  Cycle:     11 Defect Energy:   5.193119  Gnorm:     0.002227  CPU:   35.893
  Cycle:     12 Defect Energy:   5.140223  Gnorm:     0.002205  CPU:   36.856
  ** Hessian calculated **
  Cycle:     13 Defect Energy:   5.072805  Gnorm:     0.001972  CPU:   39.402
  Cycle:     14 Defect Energy:   5.051994  Gnorm:     0.001855  CPU:   40.474
  ** Hessian calculated **
  Cycle:     15 Defect Energy:   4.968904  Gnorm:     0.001524  CPU:   42.958
  Cycle:     16 Defect Energy:   4.894788  Gnorm:     0.000689  CPU:   43.884
  Cycle:     17 Defect Energy:   4.884845  Gnorm:     0.000446  CPU:   44.824
  ** Hessian calculated **
  Cycle:     18 Defect Energy:   4.873234  Gnorm:     0.000357  CPU:   47.308
  Cycle:     19 Defect Energy:   4.874084  Gnorm:     0.000393  CPU:   48.210
  Cycle:     20 Defect Energy:   4.874329  Gnorm:     0.000380  CPU:   49.189
  ** Hessian calculated **
  Cycle:     21 Defect Energy:   4.871301  Gnorm:     0.000314  CPU:   54.620
  Cycle:     22 Defect Energy:   4.867424  Gnorm:     0.000240  CPU:   55.717
  Cycle:     23 Defect Energy:   4.863257  Gnorm:     0.000182  CPU:   56.853
  Cycle:     24 Defect Energy:   4.858793  Gnorm:     0.000134  CPU:   57.951
  Cycle:     25 Defect Energy:   4.854215  Gnorm:     0.000243  CPU:   59.064
  Cycle:     26 Defect Energy:   4.850290  Gnorm:     0.000561  CPU:   60.305
  Cycle:     27 Defect Energy:   4.847230  Gnorm:     0.000542  CPU:   61.386
  ** Hessian calculated **
  Cycle:     28 Defect Energy:   4.844679  Gnorm:     0.000307  CPU:   64.163
  Cycle:     29 Defect Energy:   4.843122  Gnorm:     0.000215  CPU:   65.223
  Cycle:     30 Defect Energy:   4.841437  Gnorm:     0.000200  CPU:   66.236
  Cycle:     31 Defect Energy:   4.839370  Gnorm:     0.000217  CPU:   67.240
  Cycle:     32 Defect Energy:   4.836839  Gnorm:     0.000260  CPU:   68.264
  Cycle:     33 Defect Energy:   4.834038  Gnorm:     0.000321  CPU:   69.365
  Cycle:     34 Defect Energy:   4.830568  Gnorm:     0.000398  CPU:   70.368
  Cycle:     35 Defect Energy:   4.826427  Gnorm:     0.000458  CPU:   71.316
  Cycle:     36 Defect Energy:   4.821425  Gnorm:     0.000556  CPU:   72.293
  Cycle:     37 Defect Energy:   4.817956  Gnorm:     0.000615  CPU:   73.338
  ** Hessian calculated **
  Cycle:     38 Defect Energy:   4.815739  Gnorm:     0.000562  CPU:   75.752
  Cycle:     39 Defect Energy:   4.813074  Gnorm:     0.000532  CPU:   76.695
  Cycle:     40 Defect Energy:   4.809551  Gnorm:     0.000508  CPU:   77.699
  Cycle:     41 Defect Energy:   4.805485  Gnorm:     0.000489  CPU:   78.624
  Cycle:     42 Defect Energy:   4.801067  Gnorm:     0.000468  CPU:   79.534
  Cycle:     43 Defect Energy:   4.797858  Gnorm:     0.000472  CPU:   80.393
  Cycle:     44 Defect Energy:   4.794500  Gnorm:     0.000493  CPU:   81.326
  Cycle:     45 Defect Energy:   4.790963  Gnorm:     0.000506  CPU:   82.315
  Cycle:     46 Defect Energy:   4.786827  Gnorm:     0.000540  CPU:   84.866
  Cycle:     47 Defect Energy:   4.781837  Gnorm:     0.000583  CPU:   87.939
  ** Hessian calculated **
  Cycle:     48 Defect Energy:   4.773948  Gnorm:     0.000571  CPU:   90.794
  Cycle:     49 Defect Energy:   4.760075  Gnorm:     0.000534  CPU:   92.019
  Cycle:     50 Defect Energy:   4.746438  Gnorm:     0.000450  CPU:   93.105
  ** Hessian calculated **
  Cycle:     51 Defect Energy:   4.734110  Gnorm:     0.000316  CPU:   95.977
  Cycle:     52 Defect Energy:   4.729228  Gnorm:     0.000221  CPU:   97.136
  Cycle:     53 Defect Energy:   4.727020  Gnorm:     0.000144  CPU:   98.168
  Cycle:     54 Defect Energy:   4.725952  Gnorm:     0.000102  CPU:   99.168
  Cycle:     55 Defect Energy:   4.725438  Gnorm:     0.000062  CPU:  100.179
  Cycle:     56 Defect Energy:   4.725167  Gnorm:     0.000046  CPU:  101.193
  Cycle:     57 Defect Energy:   4.725071  Gnorm:     0.000028  CPU:  102.264
  Cycle:     58 Defect Energy:   4.725055  Gnorm:     0.000017  CPU:  103.206


  **** Optimisation achieved ****


  Final defect energy  =        4.72505505
  Final defect Gnorm   =        0.00001214

  Components of defect energy : 

--------------------------------------------------------------------------------
  Region 1 - region 1                   =     -5.05230043 eV
  Region 1 - region 2a (unrelaxed)      =     10.31508317 eV
  Region 1 - 2a (relaxed - correction)  =     -0.21502748 eV
  Region 1 (Total)                      =      5.04775526 eV
  Region 2a                             =      0.10750541 eV
  Region 2b                             =     -0.43020562 eV
--------------------------------------------------------------------------------
  Total defect energy                   =      4.72505505 eV
--------------------------------------------------------------------------------

  Largest displacement in region 2 =   0.0232 Angstroms

  Final coordinates of region 1 :

--------------------------------------------------------------------------------
   No.  Atomic        x           y           z          Radius      Charge
        Label       (Angs)      (Angs)      (Angs)       (Angs)       (e) 
--------------------------------------------------------------------------------
     1  Na    c     2.253894    0.721246    0.722682    0.000000    1.000000
     2  O     c     2.253894    2.276843    2.271925    0.000000    0.183000
     3  Na    c     4.480099    2.156589    2.169064    0.000000    1.000000
     4  Na    c     0.027688    2.156589    2.169064    0.000000    1.000000
     5  Cl    c     4.752229   -0.054370   -0.046007    0.000000    1.485000
     6  Cl    c    -0.244441   -0.054370   -0.046007    0.000000    1.485000
     7  O     c     2.253894   -2.258854    2.222579    0.000000    0.183000
     8  Na    c     2.253894    1.980859    4.469636    0.000000    1.000000
     9  Na    c     2.253894   -2.574184    0.021589    0.000000    1.000000
    10  Cl    c     4.647722    0.002203    4.637983    0.000000    1.485000
    11  Cl    c    -0.139935    0.002203    4.637983    0.000000    1.485000
    12  Na    c     4.448878   -1.825382    2.226547    0.000000    1.000000
    13  Na    c     0.058909   -1.825382    2.226547    0.000000    1.000000
    14  Na    c     2.253894    4.456903    1.874635    0.000000    1.000000
    15  Na    c     2.253894    0.022428   -2.566078    0.000000    1.000000
    16  O     c     2.253894    2.216663   -2.249769    0.000000    0.183000
    17  Na    c     2.253894   -1.695606    4.412362    0.000000    1.000000
    18  Na    c    -2.509240    0.012778    2.205234    0.000000    1.000000
    19  Na    c     7.017027    0.012778    2.205234    0.000000    1.000000
    20  Cl    c     4.634245    4.641936   -0.010173    0.000000    1.485000
    21  Cl    c    -0.126458    4.641936   -0.010173    0.000000    1.485000
    22  Na    c     4.453360    2.216108   -1.822666    0.000000    1.000000
    23  Na    c     0.054427    2.216108   -1.822666    0.000000    1.000000
    24  O     c    -2.263867    2.269170    2.260018    0.000000    0.183000
    25  O     c     6.771655    2.269170    2.260018    0.000000    0.183000
    26  O     c     2.253894   -2.243653   -2.243828    0.000000    0.183000
    27  Na    c    -2.523937    2.202854    0.012047    0.000000    1.000000
    28  Na    c     7.031724    2.202854    0.012047    0.000000    1.000000
    29  Na    c     2.253894   -0.016457    7.111920    0.000000    1.000000
    30  Na    c     2.253894   -4.469478    2.613754    0.000000    1.000000
    31  Cl    c     4.612677    4.583521    4.589099    0.000000    1.485000
    32  Cl    c    -0.104889    4.583521    4.589099    0.000000    1.485000
    33  Na    c     4.501767   -2.121060   -2.173788    0.000000    1.000000
    34  Na    c     0.006021   -2.121060   -2.173788    0.000000    1.000000
    35  Na    c     2.253894    4.413507   -1.727345    0.000000    1.000000
    36  O     c     2.253894    2.212347    6.777330    0.000000    0.183000
    37  O     c    -2.225719   -2.243417    2.263776    0.000000    0.183000
    38  O     c     6.733507   -2.243417    2.263776    0.000000    0.183000
    39  Na    c    -2.054830    2.249314    4.512697    0.000000    1.000000
    40  Na    c     6.562617    2.249314    4.512697    0.000000    1.000000
    41  Na    c    -2.263387   -2.309175    0.004928    0.000000    1.000000
    42  Na    c     6.771174   -2.309175    0.004928    0.000000    1.000000
    43  Cl    c     4.534904   -4.578923   -0.104323    0.000000    1.485000
    44  Cl    c    -0.027117   -4.578923   -0.104323    0.000000    1.485000
    45  Na    c     4.505221    2.155746    6.812541    0.000000    1.000000
    46  Na    c     0.002566    2.155746    6.812541    0.000000    1.000000
    47  Na    c    -2.078033    4.515781    2.121531    0.000000    1.000000
    48  Na    c     6.585820    4.515781    2.121531    0.000000    1.000000
    49  Na    c    -2.342978   -0.001289   -2.211909    0.000000    1.000000
    50  Na    c     6.850765   -0.001289   -2.211909    0.000000    1.000000
    51  O     c     2.253894   -2.230367    6.700772    0.000000    0.183000
    52  O     c     2.253894    6.757550    2.229237    0.000000    0.183000
    53  O     c    -2.230756    2.259823   -2.233731    0.000000    0.183000
    54  O     c     6.738543    2.259823   -2.233731    0.000000    0.183000
    55  Na    c    -2.237179   -2.094824    4.505675    0.000000    1.000000
    56  Na    c     6.744966   -2.094824    4.505675    0.000000    1.000000
    57  Na    c     2.253894    7.112368   -0.000598    0.000000    1.000000
    58  Na    c     2.253894    2.581633   -4.462773    0.000000    1.000000
    59  Cl    c     4.558106   -4.612949    4.583730    0.000000    1.485000
    60  Cl    c    -0.050319   -4.612949    4.583730    0.000000    1.485000
    61  Na    c     4.507844   -2.227125    6.675896    0.000000    1.000000
    62  Na    c    -0.000056   -2.227125    6.675896    0.000000    1.000000
    63  Na    c     2.253894    4.461904    6.667443    0.000000    1.000000
    64  Na    c     2.253894   -4.514110   -2.404816    0.000000    1.000000
    65  Na    c     4.507100    6.800671    2.240725    0.000000    1.000000
    66  Na    c     0.000688    6.800671    2.240725    0.000000    1.000000
    67  Cl    c     4.517332   -0.113763   -4.566871    0.000000    1.485000
    68  Cl    c    -0.009545   -0.113763   -4.566871    0.000000    1.485000
    69  O     c    -2.248141   -2.269249   -2.263029    0.000000    0.183000
    70  O     c     6.755928   -2.269249   -2.263029    0.000000    0.183000
    71  Na    c     2.253894    6.444314    4.455848    0.000000    1.000000
    72  Na    c     2.253894   -2.379773   -4.510911    0.000000    1.000000
    73  Na    c    -2.308102    0.000891    6.816726    0.000000    1.000000
    74  Na    c     6.815890    0.000891    6.816726    0.000000    1.000000
    75  Na    c     6.378834   -4.473735    2.368270    0.000000    1.000000
    76  Na    c    -1.871046   -4.473735    2.368270    0.000000    1.000000
    77  Cl    c     9.029915   -0.020806   -0.016095    0.000000    1.485000
    78  Cl    c    -4.522128   -0.020806   -0.016095    0.000000    1.485000
    79  Na    c     9.005267    2.522581    2.529250    0.000000    1.000000
    80  Na    c    -4.497480    2.522581    2.529250    0.000000    1.000000
    81  Na    c    -2.215362    4.511262   -2.116390    0.000000    1.000000
    82  Na    c     6.723149    4.511262   -2.116390    0.000000    1.000000
    83  O     c    -2.257287    2.258947    6.769492    0.000000    0.183000
    84  O     c     6.765074    2.258947    6.769492    0.000000    0.183000
    85  O     c     2.253894    6.702100   -2.226992    0.000000    0.183000
    86  Na    c     2.253894   -4.479156    6.382023    0.000000    1.000000
    87  Cl    c     9.032964    0.014950    4.510272    0.000000    1.485000
    88  Cl    c    -4.525177    0.014950    4.510272    0.000000    1.485000
    89  Na    c     8.982335   -2.572769    2.288949    0.000000    1.000000
    90  Na    c    -4.474548   -2.572769    2.288949    0.000000    1.000000
    91  Na    c     4.501138    6.672319   -2.244675    0.000000    1.000000
    92  Na    c     0.006649    6.672319   -2.244675    0.000000    1.000000
    93  Cl    c     4.557422    4.574045   -4.617630    0.000000    1.485000
    94  Cl    c    -0.049635    4.574045   -4.617630    0.000000    1.485000
    95  O     c     2.253894   -6.756033    2.257816    0.000000    0.183000
    96  O     c    -2.263753   -2.261839    6.757002    0.000000    0.183000
    97  O     c     6.771540   -2.261839    6.757002    0.000000    0.183000
    98  O     c    -2.261062    6.765571    2.258481    0.000000    0.183000
    99  O     c     6.768849    6.765571    2.258481    0.000000    0.183000
   100  Na    c     2.253894    2.462963    9.026896    0.000000    1.000000
   101  Na    c     2.253894   -6.476020    0.017032    0.000000    1.000000
   102  Na    c    -2.225980    6.912223   -0.000375    0.000000    1.000000
   103  Na    c     6.733767    6.912223   -0.000375    0.000000    1.000000
   104  Na    c    -1.883107    2.278636   -4.469634    0.000000    1.000000
   105  Na    c     6.390895    2.278636   -4.469634    0.000000    1.000000
   106  Cl    c     4.519747    0.003915    9.039280    0.000000    1.485000
   107  Cl    c    -0.011960    0.003915    9.039280    0.000000    1.485000
   108  Na    c     4.496359   -6.886287    2.178947    0.000000    1.000000
   109  Na    c     0.011428   -6.886287    2.178947    0.000000    1.000000
   110  Na    c    -2.132196    4.506671    6.815046    0.000000    1.000000
   111  Na    c     6.639983    4.506671    6.815046    0.000000    1.000000
   112  Na    c     6.550915   -4.508730   -2.357296    0.000000    1.000000
   113  Na    c    -2.043128   -4.508730   -2.357296    0.000000    1.000000
   114  Cl    c     9.033269    4.507600    0.014936    0.000000    1.485000
   115  Cl    c    -4.525482    4.507600    0.014936    0.000000    1.485000
   116  Na    c     8.980049    2.332257   -2.579613    0.000000    1.000000
   117  Na    c    -4.472262    2.332257   -2.579613    0.000000    1.000000
   118  O     c     2.253894    6.731017    6.710685    0.000000    0.183000
   119  Na    c     2.253894   -2.533119    8.972036    0.000000    1.000000
   120  Na    c     2.253894   -7.014020    4.503771    0.000000    1.000000
   121  Na    c    -2.289065    6.588231    4.509492    0.000000    1.000000
   122  Na    c     6.796853    6.588231    4.509492    0.000000    1.000000
   123  Na    c    -2.165309   -2.182744   -4.508702    0.000000    1.000000
   124  Na    c     6.673096   -2.182744   -4.508702    0.000000    1.000000
   125  Cl    c     4.483069   -4.519064   -4.531581    0.000000    1.485000
   126  Cl    c     0.024718   -4.519064   -4.531581    0.000000    1.485000
   127  Cl    c     9.065956    4.557752    4.541723    0.000000    1.485000
   128  Cl    c    -4.558169    4.557752    4.541723    0.000000    1.485000
   129  Na    c     4.508861    6.796635    6.684277    0.000000    1.000000
   130  Na    c    -0.001074    6.796635    6.684277    0.000000    1.000000
   131  Na    c     9.000461   -2.414711   -2.311088    0.000000    1.000000
   132  Na    c    -4.492674   -2.414711   -2.311088    0.000000    1.000000
   133  Na    c     2.253894    0.010355   -6.519842    0.000000    1.000000
   134  Na    c     2.253894    9.008527    2.540179    0.000000    1.000000
   135  O     c     2.253894   -6.766375   -2.236589    0.000000    0.183000
   136  O     c     2.253894    2.258686   -6.752814    0.000000    0.183000
   137  O     c    -2.254736    6.767108   -2.260528    0.000000    0.183000
   138  O     c     6.762523    6.767108   -2.260528    0.000000    0.183000
   139  Na    c     2.253894    6.426093   -4.484026    0.000000    1.000000
   140  Na    c     6.757378   -4.510234    6.612736    0.000000    1.000000
   141  Na    c    -2.249591   -4.510234    6.612736    0.000000    1.000000
   142  Cl    c     4.493178    4.498287    9.038489    0.000000    1.485000
   143  Cl    c     0.014609    4.498287    9.038489    0.000000    1.485000
   144  Cl    c     9.078857   -4.519549   -0.011581    0.000000    1.485000
   145  Cl    c    -4.571069   -4.519549   -0.011581    0.000000    1.485000
   146  Na    c     4.506072   -6.839484   -2.140388    0.000000    1.000000
   147  Na    c     0.001715   -6.839484   -2.140388    0.000000    1.000000
   148  Na    c     9.013623    2.330424    6.589514    0.000000    1.000000
   149  Na    c    -4.505836    2.330424    6.589514    0.000000    1.000000
   150  Cl    c     4.522773    9.038281   -0.003357    0.000000    1.485000
   151  Cl    c    -0.014986    9.038281   -0.003357    0.000000    1.485000
   152  Na    c     4.492072    2.226321   -6.875990    0.000000    1.000000
   153  Na    c     0.015715    2.226321   -6.875990    0.000000    1.000000
   154  O     c     6.746481   -6.727247    2.247401    0.000000    0.183000
   155  O     c    -2.238694   -6.727247    2.247401    0.000000    0.183000
   156  O     c     2.253894   -2.250093   -6.760428    0.000000    0.183000
   157  Na    c     6.861031    2.262109    9.014560    0.000000    1.000000
   158  Na    c    -2.353244    2.262109    9.014560    0.000000    1.000000
   159  Na    c     6.888422   -6.581129   -0.000936    0.000000    1.000000
   160  Na    c    -2.380635   -6.581129   -0.000936    0.000000    1.000000
   161  Cl    c     9.066664   -4.506849    4.545187    0.000000    1.485000
   162  Cl    c    -4.558877   -4.506849    4.545187    0.000000    1.485000
   163  Na    c     9.017459   -2.308524    6.775429    0.000000    1.000000
   164  Na    c    -4.509672   -2.308524    6.775429    0.000000    1.000000
   165  Na    c    10.971774   -0.002314    2.254116    0.000000    1.000000
   166  Na    c    -6.463987   -0.002314    2.254116    0.000000    1.000000
   167  Cl    c     4.507222    9.062537    4.518320    0.000000    1.485000
   168  Cl    c     0.000566    9.062537    4.518320    0.000000    1.485000
   169  Na    c     4.507257   -2.204683   -6.772219    0.000000    1.000000
   170  Na    c     0.000530   -2.204683   -6.772219    0.000000    1.000000
   171  Na    c     9.019983    6.642015    2.214013    0.000000    1.000000
   172  Na    c    -4.512195    6.642015    2.214013    0.000000    1.000000
   173  Cl    c     9.040755   -0.019691   -4.508465    0.000000    1.485000
   174  Cl    c    -4.532968   -0.019691   -4.508465    0.000000    1.485000
   175  Na    c     2.253894    4.498301   -6.957304    0.000000    1.000000
   176  Na    c     2.253894    8.971253   -2.495678    0.000000    1.000000
   177  O     c     2.253894   -6.742601    6.748768    0.000000    0.183000
   178  O     c     6.767309    6.761984    6.766425    0.000000    0.183000
   179  O     c    -2.259522    6.761984    6.766425    0.000000    0.183000
   180  O     c    11.238971    2.249517    2.248774    0.000000    0.183000
   181  O     c    -6.731184    2.249517    2.248774    0.000000    0.183000
   182  Na    c     6.734550   -2.338124    9.007025    0.000000    1.000000
   183  Na    c    -2.226763   -2.338124    9.007025    0.000000    1.000000
   184  Na    c     6.659564   -6.855757    4.502762    0.000000    1.000000
   185  Na    c    -2.151777   -6.855757    4.502762    0.000000    1.000000
   186  Na    c    10.976413    2.238172   -0.008265    0.000000    1.000000
   187  Na    c    -6.468625    2.238172   -0.008265    0.000000    1.000000
   188  Cl    c     4.516793   -4.514584    9.079495    0.000000    1.485000
   189  Cl    c    -0.009006   -4.514584    9.079495    0.000000    1.485000
   190  Na    c     4.501541   -6.695973    6.786533    0.000000    1.000000
   191  Na    c     0.006246   -6.695973    6.786533    0.000000    1.000000
   192  Na    c    -2.324202    9.009009    2.415527    0.000000    1.000000
   193  Na    c     6.831989    9.009009    2.415527    0.000000    1.000000
   194  Na    c     6.828319    0.005106   -6.734340    0.000000    1.000000
   195  Na    c    -2.320531    0.005106   -6.734340    0.000000    1.000000
   196  O     c    11.239994   -2.252530    2.249580    0.000000    0.183000
   197  O     c    -6.732207   -2.252530    2.249580    0.000000    0.183000
   198  O     c     6.763182   -6.757411   -2.256830    0.000000    0.183000
   199  O     c    -2.255395   -6.757411   -2.256830    0.000000    0.183000
   200  O     c     6.738247    2.249706   -6.733030    0.000000    0.183000
   201  O     c    -2.230460    2.249706   -6.733030    0.000000    0.183000
   202  Na    c     2.253894    6.732864    8.981594    0.000000    1.000000
   203  Na    c     2.253894   -6.825942   -4.500630    0.000000    1.000000
   204  Na    c    11.449221    2.192042    4.491254    0.000000    1.000000
   205  Na    c    -6.941434    2.192042    4.491254    0.000000    1.000000
   206  Na    c    11.192638   -2.208413   -0.001685    0.000000    1.000000
   207  Na    c    -6.684851   -2.208413   -0.001685    0.000000    1.000000
   208  Na    c    -2.261848    6.677575   -4.510450    0.000000    1.000000
   209  Na    c     6.769635    6.677575   -4.510450    0.000000    1.000000
   210  Na    c     2.253894   -0.004766   11.149765    0.000000    1.000000
   211  Na    c     2.253894   -9.020532    2.103686    0.000000    1.000000
   212  Na    c     2.253894    8.992490    6.613375    0.000000    1.000000
   213  Na    c     2.253894   -4.505932   -6.809870    0.000000    1.000000
   214  Na    c    11.425842    4.498506    2.223232    0.000000    1.000000
   215  Na    c    -6.918055    4.498506    2.223232    0.000000    1.000000
   216  Na    c    11.141191   -0.007062   -2.291705    0.000000    1.000000
   217  Na    c    -6.633404   -0.007062   -2.291705    0.000000    1.000000
   218  Cl    c     9.072915    4.534584   -4.519527    0.000000    1.485000
   219  Cl    c    -4.565128    4.534584   -4.519527    0.000000    1.485000
   220  Na    c     9.013163    6.765454   -2.266133    0.000000    1.000000
   221  Na    c    -4.505375    6.765454   -2.266133    0.000000    1.000000
   222  O     c     2.253894    2.261143   11.265481    0.000000    0.183000
   223  O     c     6.765813   -2.251169   -6.761609    0.000000    0.183000
   224  O     c    -2.258026   -2.251169   -6.761609    0.000000    0.183000
   225  O     c    11.235041    2.250598   -2.264163    0.000000    0.183000
   226  O     c    -6.727254    2.250598   -2.264163    0.000000    0.183000
   227  Na    c    11.259974   -2.228243    4.505734    0.000000    1.000000
   228  Na    c    -6.752187   -2.228243    4.505734    0.000000    1.000000
   229  Cl    c     4.481127   -9.070363    0.005878    0.000000    1.485000
   230  Cl    c     0.026660   -9.070363    0.005878    0.000000    1.485000
   231  Cl    c     9.032638   -0.006552    9.033211    0.000000    1.485000
   232  Cl    c    -4.524851   -0.006552    9.033211    0.000000    1.485000
   233  Na    c     4.513776    2.213940   11.243058    0.000000    1.000000
   234  Na    c    -0.005989    2.213940   11.243058    0.000000    1.000000
   235  Na    c     9.003065   -6.553325    2.368240    0.000000    1.000000
   236  Na    c    -4.495278   -6.553325    2.368240    0.000000    1.000000
   237  Na    c    -2.215056    4.504450   -6.757782    0.000000    1.000000
   238  Na    c     6.722843    4.504450   -6.757782    0.000000    1.000000
   239  Na    c    -2.207533    9.013758   -2.359756    0.000000    1.000000
   240  Na    c     6.715320    9.013758   -2.359756    0.000000    1.000000
   241  O     c     2.253894   -2.269234   11.247128    0.000000    0.183000
   242  O     c     6.760261   -6.762467    6.758845    0.000000    0.183000
   243  O     c    -2.252474   -6.762467    6.758845    0.000000    0.183000
   244  O     c    11.263938   -2.262882   -2.252567    0.000000    0.183000
   245  O     c    -6.756151   -2.262882   -2.252567    0.000000    0.183000
[...]
    239 y          4.507787      4.598133     0.090346    Cartesian    2.00
    239 z          4.507787      4.600872     0.093085    Cartesian    2.06
    240 x          2.253894      2.253894     0.000000    Cartesian    0.00
    240 y          2.253894      2.212344    -0.041549    Cartesian   -1.84
    240 z          6.761681      6.777447     0.015766    Cartesian    0.23
    241 x         -2.253894     -2.225771     0.028123    Cartesian   -1.25
    241 y         -2.253894     -2.243415     0.010479    Cartesian   -0.46
    241 z          2.253894      2.263801     0.009907    Cartesian    0.44
    242 x          4.507787      4.535611     0.027823    Cartesian    0.62
    242 y         -4.507787     -4.588454    -0.080667    Cartesian    1.79
    242 z         -0.000000     -0.114110    -0.114110    Cartesian *******
    243 x          2.253894      2.253894     0.000000    Cartesian    0.00
    243 y         -2.253894     -2.230325     0.023569    Cartesian   -1.05
    243 z          6.761681      6.700850    -0.060831    Cartesian   -0.90
    244 x          2.253894      2.253894     0.000000    Cartesian    0.00
    244 y          6.761681      6.757634    -0.004047    Cartesian   -0.06
    244 z          2.253894      2.229259    -0.024635    Cartesian   -1.09
    245 x         -2.253894     -2.230823     0.023070    Cartesian   -1.02
    245 y          2.253894      2.259835     0.005942    Cartesian    0.26
    245 z         -2.253894     -2.233710     0.020184    Cartesian   -0.90
    246 x          4.507787      4.564905     0.057118    Cartesian    1.27
    246 y         -4.507787     -4.622433    -0.114646    Cartesian    2.54
    246 z          4.507787      4.589031     0.081244    Cartesian    1.80
    247 x          4.507787      4.517327     0.009540    Cartesian    0.21
    247 y          0.000000     -0.125653    -0.125653    Cartesian    0.00
    247 z         -4.507787     -4.573296    -0.065509    Cartesian    1.45
    248 x         -2.253894     -2.248123     0.005771    Cartesian   -0.26
    248 y         -2.253894     -2.269265    -0.015371    Cartesian    0.68
    248 z         -2.253894     -2.263055    -0.009161    Cartesian    0.41
    249 x          9.015574      9.032181     0.016607    Cartesian    0.18
    249 y          0.000000     -0.013177    -0.013177    Cartesian    0.00
    249 z         -0.000000     -0.010414    -0.010414    Cartesian *******
    250 x         -2.253894     -2.257263    -0.003369    Cartesian    0.15
    250 y          2.253894      2.258950     0.005056    Cartesian    0.22
    250 z          6.761681      6.769509     0.007828    Cartesian    0.12
    251 x          2.253894      2.253894     0.000000    Cartesian    0.00
    251 y          6.761681      6.702180    -0.059501    Cartesian   -0.88
    251 z         -2.253894     -2.226969     0.026925    Cartesian   -1.19
    252 x          9.015574      9.035560     0.019986    Cartesian    0.22
    252 y          0.000000      0.015316     0.015316    Cartesian    0.00
    252 z          4.507787      4.504930    -0.002857    Cartesian   -0.06
    253 x          4.507787      4.561837     0.054050    Cartesian    1.20
    253 y          4.507787      4.579912     0.072124    Cartesian    1.60
    253 z         -4.507787     -4.628647    -0.120859    Cartesian    2.68
    254 x          2.253894      2.253894     0.000000    Cartesian    0.00
    254 y         -6.761681     -6.756130     0.005551    Cartesian   -0.08
    254 z          2.253894      2.257810     0.003916    Cartesian    0.17
    255 x         -2.253894     -2.263772    -0.009878    Cartesian    0.44
    255 y         -2.253894     -2.261839    -0.007946    Cartesian    0.35
    255 z          6.761681      6.756984    -0.004697    Cartesian   -0.07
    256 x         -2.253894     -2.261049    -0.007155    Cartesian    0.32
    256 y          6.761681      6.765566     0.003885    Cartesian    0.06
    256 z          2.253894      2.258482     0.004588    Cartesian    0.20
    257 x          4.507787      4.515068     0.007281    Cartesian    0.16
    257 y          0.000000      0.006587     0.006587    Cartesian    0.00
    257 z          9.015574      9.038268     0.022694    Cartesian    0.25
    258 x          9.015574      9.035540     0.019966    Cartesian    0.22
    258 y          4.507787      4.502133    -0.005654    Cartesian   -0.13
    258 z         -0.000000      0.017311     0.017311    Cartesian *******
    259 x          2.253894      2.253894     0.000000    Cartesian    0.00
    259 y          6.761681      6.731000    -0.030681    Cartesian   -0.45
    259 z          6.761681      6.710658    -0.051023    Cartesian   -0.75
    260 x          4.507787      4.483207    -0.024580    Cartesian   -0.55
    260 y         -4.507787     -4.517899    -0.010112    Cartesian    0.22
    260 z         -4.507787     -4.529051    -0.021264    Cartesian    0.47
    261 x          9.015574      9.068719     0.053145    Cartesian    0.59
    261 y          4.507787      4.554957     0.047170    Cartesian    1.05
    261 z          4.507787      4.538713     0.030926    Cartesian    0.69
    262 x          2.253894      2.253894     0.000000    Cartesian    0.00
    262 y         -6.761681     -6.766376    -0.004695    Cartesian    0.07
    262 z         -2.253894     -2.236579     0.017314    Cartesian   -0.77
    263 x          2.253894      2.253894     0.000000    Cartesian    0.00
    263 y          2.253894      2.258711     0.004817    Cartesian    0.21
    263 z         -6.761681     -6.752906     0.008775    Cartesian   -0.13
    264 x         -2.253894     -2.254734    -0.000840    Cartesian    0.04
    264 y          6.761681      6.767116     0.005435    Cartesian    0.08
    264 z         -2.253894     -2.260536    -0.006643    Cartesian    0.29
    265 x          4.507787      4.491065    -0.016722    Cartesian   -0.37
    265 y          4.507787      4.495084    -0.012704    Cartesian   -0.28
    265 z          9.015574      9.040581     0.025006    Cartesian    0.28
    266 x          9.015574      9.082898     0.067324    Cartesian    0.75
    266 y         -4.507787     -4.521183    -0.013396    Cartesian    0.30
    266 z         -0.000000     -0.010047    -0.010047    Cartesian *******
    267 x          4.507787      4.520512     0.012725    Cartesian    0.28
    267 y          9.015574      9.037369     0.021795    Cartesian    0.24
    267 z         -0.000000     -0.002886    -0.002886    Cartesian *******
    268 x          6.761681      6.746440    -0.015241    Cartesian   -0.23
    268 y         -6.761681     -6.727263     0.034418    Cartesian   -0.51
    268 z          2.253894      2.247414    -0.006479    Cartesian   -0.29
    269 x          2.253894      2.253894     0.000000    Cartesian    0.00
    269 y         -2.253894     -2.250108     0.003786    Cartesian   -0.17
    269 z         -6.761681     -6.760406     0.001275    Cartesian   -0.02
    270 x          9.015574      9.071599     0.056025    Cartesian    0.62
    270 y         -4.507787     -4.506608     0.001179    Cartesian   -0.03
    270 z          4.507787      4.543495     0.035707    Cartesian    0.79
    271 x          4.507787      4.503101    -0.004686    Cartesian   -0.10
    271 y          9.015574      9.067488     0.051913    Cartesian    0.58
    271 z          4.507787      4.518225     0.010438    Cartesian    0.23
    272 x          9.015574      9.044521     0.028947    Cartesian    0.32
    272 y          0.000000     -0.018246    -0.018246    Cartesian    0.00
    272 z         -4.507787     -4.506571     0.001216    Cartesian   -0.03
    273 x          2.253894      2.253894     0.000000    Cartesian    0.00
    273 y         -6.761681     -6.742648     0.019033    Cartesian   -0.28
    273 z          6.761681      6.748751    -0.012930    Cartesian   -0.19
    274 x          6.761681      6.767314     0.005633    Cartesian    0.08
    274 y          6.761681      6.761974     0.000293    Cartesian    0.00
    274 z          6.761681      6.766432     0.004751    Cartesian    0.07
    275 x         11.269468     11.238953    -0.030515    Cartesian   -0.27
    275 y          2.253894      2.249545    -0.004348    Cartesian   -0.19
    275 z          2.253894      2.248820    -0.005073    Cartesian   -0.23
    276 x          4.507787      4.514855     0.007067    Cartesian    0.16
    276 y         -4.507787     -4.514659    -0.006872    Cartesian    0.15
    276 z          9.015574      9.087224     0.071649    Cartesian    0.79
    277 x         11.269468     11.239997    -0.029471    Cartesian   -0.26
    277 y         -2.253894     -2.252560     0.001334    Cartesian   -0.06
    277 z          2.253894      2.249573    -0.004321    Cartesian   -0.19
    278 x          6.761681      6.763176     0.001495    Cartesian    0.02
    278 y         -6.761681     -6.757402     0.004279    Cartesian   -0.06
    278 z         -2.253894     -2.256849    -0.002956    Cartesian    0.13
    279 x          6.761681      6.738200    -0.023481    Cartesian   -0.35
    279 y          2.253894      2.249701    -0.004193    Cartesian   -0.19
    279 z         -6.761681     -6.733066     0.028615    Cartesian   -0.42
    280 x          9.015574      9.078113     0.062539    Cartesian    0.69
    280 y          4.507787      4.530782     0.022995    Cartesian    0.51
    280 z         -4.507787     -4.518005    -0.010218    Cartesian    0.23
    281 x          2.253894      2.253894     0.000000    Cartesian    0.00
    281 y          2.253894      2.261183     0.007289    Cartesian    0.32
    281 z         11.269468     11.265454    -0.004014    Cartesian   -0.04
    282 x          6.761681      6.765819     0.004138    Cartesian    0.06
    282 y         -2.253894     -2.251158     0.002735    Cartesian   -0.12
    282 z         -6.761681     -6.761602     0.000078    Cartesian   -0.00
    283 x         11.269468     11.235036    -0.034432    Cartesian   -0.31
    283 y          2.253894      2.250608    -0.003286    Cartesian   -0.15
    283 z         -2.253894     -2.264214    -0.010320    Cartesian    0.46
    284 x          4.507787      4.474487    -0.033300    Cartesian   -0.74
    284 y         -9.015574     -9.073866    -0.058292    Cartesian    0.65
    284 z         -0.000000      0.007069     0.007069    Cartesian *******
    285 x          9.015574      9.034059     0.018485    Cartesian    0.21
    285 y          0.000000     -0.006317    -0.006317    Cartesian    0.00
    285 z          9.015574      9.034524     0.018949    Cartesian    0.21
    286 x          2.253894      2.253894     0.000000    Cartesian    0.00
    286 y         -2.253894     -2.269281    -0.015387    Cartesian    0.68
    286 z         11.269468     11.247147    -0.022321    Cartesian   -0.20
    287 x          6.761681      6.760255    -0.001425    Cartesian   -0.02
    287 y         -6.761681     -6.762472    -0.000792    Cartesian    0.01
    287 z          6.761681      6.758839    -0.002842    Cartesian   -0.04
    288 x         11.269468     11.263932    -0.005536    Cartesian   -0.05
    288 y         -2.253894     -2.262908    -0.009014    Cartesian    0.40
    288 z         -2.253894     -2.252573     0.001321    Cartesian   -0.06
    289 x          2.253894      2.253894     0.000000    Cartesian    0.00
    289 y          6.761681      6.737515    -0.024166    Cartesian   -0.36
    289 z         -6.761681     -6.752774     0.008907    Cartesian   -0.13
    290 x          4.507787      4.511899     0.004111    Cartesian    0.09
    290 y         -9.015574     -9.013768     0.001806    Cartesian   -0.02
    290 z          4.507787      4.496604    -0.011183    Cartesian   -0.25
    291 x          9.015574      9.059193     0.043618    Cartesian    0.48
    291 y         -4.507787     -4.523947    -0.016159    Cartesian    0.36
    291 z         -4.507787     -4.520956    -0.013169    Cartesian    0.29
    292 x          4.507787      4.514606     0.006819    Cartesian    0.15
    292 y          9.015574      9.066798     0.051224    Cartesian    0.57
    292 z         -4.507787     -4.509989    -0.002202    Cartesian    0.05
    293 x         11.269468     11.274321     0.004853    Cartesian    0.04
    293 y          2.253894      2.255930     0.002036    Cartesian    0.09
    293 z          6.761681      6.737517    -0.024164    Cartesian   -0.36
    294 x          2.253894      2.253894     0.000000    Cartesian    0.00
    294 y         11.269468     11.256690    -0.012778    Cartesian   -0.11
    294 z          2.253894      2.266649     0.012756    Cartesian    0.57
    295 x          9.015574      9.043888     0.028313    Cartesian    0.31
    295 y          4.507787      4.506482    -0.001305    Cartesian   -0.03
    295 z          9.015574      9.046736     0.031161    Cartesian    0.35
    296 x          9.015574      9.060198     0.044623    Cartesian    0.49
    296 y          9.015574      9.026226     0.010652    Cartesian    0.12
    296 z         -0.000000     -0.008213    -0.008213    Cartesian *******
    297 x          4.507787      4.488537    -0.019251    Cartesian   -0.43
    297 y          0.000000      0.017291     0.017291    Cartesian    0.00
    297 z         -9.015574     -9.064083    -0.048508    Cartesian    0.54
    298 x          6.761681      6.773631     0.011950    Cartesian    0.18
    298 y          2.253894      2.251652    -0.002242    Cartesian   -0.10
    298 z         11.269468     11.268700    -0.000768    Cartesian   -0.01
    299 x         11.269468     11.270631     0.001163    Cartesian    0.01
    299 y         -2.253894     -2.250413     0.003481    Cartesian   -0.15
    299 z          6.761681      6.763904     0.002223    Cartesian    0.03
    300 x         11.269468     11.278851     0.009383    Cartesian    0.08
    300 y          6.761681      6.753114    -0.008567    Cartesian   -0.13
    300 z          2.253894      2.245701    -0.008193    Cartesian   -0.36
    301 x          9.015574      9.030780     0.015206    Cartesian    0.17
    301 y          9.015574      9.057353     0.041779    Cartesian    0.46
    301 z          4.507787      4.522235     0.014448    Cartesian    0.32
    302 x          6.761681      6.761939     0.000258    Cartesian    0.00
    302 y         -2.253894     -2.257135    -0.003241    Cartesian    0.14
    302 z         11.269468     11.269502     0.000034    Cartesian    0.00
    303 x          2.253894      2.253894     0.000000    Cartesian    0.00
    303 y         -6.761681     -6.763620    -0.001939    Cartesian    0.03
    303 z         -6.761681     -6.766636    -0.004955    Cartesian    0.07
    304 x          2.253894      2.253894     0.000000    Cartesian    0.00
    304 y         11.269468     11.243180    -0.026288    Cartesian   -0.23
    304 z         -2.253894     -2.262522    -0.008628    Cartesian    0.38
    305 x         -2.253894     -2.260261    -0.006367    Cartesian    0.28
    305 y          6.761681      6.764021     0.002340    Cartesian    0.03
    305 z         -6.761681     -6.767128    -0.005448    Cartesian    0.08
    306 x          9.015574      9.039208     0.023634    Cartesian    0.26
    306 y         -4.507787     -4.511140    -0.003353    Cartesian    0.07
    306 z          9.015574      9.032541     0.016966    Cartesian    0.19
    307 x          4.507787      4.531825     0.024037    Cartesian    0.53
    307 y          9.015574      9.023493     0.007918    Cartesian    0.09
    307 z          9.015574      9.051037     0.035462    Cartesian    0.39
    308 x         13.523362     13.638682     0.115321    Cartesian    0.85
    308 y          0.000000      0.007193     0.007193    Cartesian    0.00
    308 z         -0.000000      0.011784     0.011784    Cartesian *******
    309 x          4.507787      4.495218    -0.012569    Cartesian   -0.28
    309 y          4.507787      4.499381    -0.008406    Cartesian   -0.19
    309 z         -9.015574     -9.034832    -0.019258    Cartesian    0.21
    310 x          2.253894      2.253894     0.000000    Cartesian    0.00
    310 y          6.761681      6.762592     0.000912    Cartesian    0.01
    310 z         11.269468     11.264582    -0.004886    Cartesian   -0.04
    311 x          6.761681      6.766979     0.005299    Cartesian    0.08
    311 y         11.269468     11.266035    -0.003433    Cartesian   -0.03
    311 z          2.253894      2.262225     0.008332    Cartesian    0.37
    312 x         11.269468     11.274606     0.005138    Cartesian    0.05
    312 y          6.761681      6.765261     0.003580    Cartesian    0.05
    312 z         -2.253894     -2.253131     0.000763    Cartesian   -0.03
    313 x         13.523362     13.566826     0.043464    Cartesian    0.32
    313 y          0.000000      0.010755     0.010755    Cartesian    0.00
    313 z          4.507787      4.497867    -0.009920    Cartesian   -0.22
    314 x          4.507787      4.523179     0.015392    Cartesian    0.34
    314 y         -9.015574     -9.019188    -0.003614    Cartesian    0.04
    314 z         -4.507787     -4.548015    -0.040228    Cartesian    0.89
    315 x         11.269468     11.270416     0.000948    Cartesian    0.01
    315 y         -6.761681     -6.749920     0.011761    Cartesian   -0.17
    315 z          2.253894      2.258996     0.005103    Cartesian    0.23
    316 x          2.253894      2.253894     0.000000    Cartesian    0.00
    316 y         11.269468     11.263714    -0.005754    Cartesian   -0.05
    316 z          6.761681      6.762006     0.000325    Cartesian    0.00
    317 x          9.015574      9.009417    -0.006158    Cartesian   -0.07
    317 y         -9.015574     -9.095952    -0.080377    Cartesian    0.89
    317 z         -0.000000     -0.009967    -0.009967    Cartesian *******
    318 x         13.523362     13.561903     0.038541    Cartesian    0.28
    318 y          4.507787      4.517464     0.009677    Cartesian    0.21
    318 z         -0.000000      0.001798     0.001798    Cartesian *******
    319 x          4.507787      4.518469     0.010682    Cartesian    0.24
    319 y         -4.507787     -4.534892    -0.027105    Cartesian    0.60
    319 z         -9.015574     -9.038995    -0.023420    Cartesian    0.26
--------------------------------------------------------------------------------


  Time to end of optimisation  =      104.1679 seconds


  Peak dynamic memory used =      94.26 MB 


  Timing analysis for GULP :

--------------------------------------------------------------------------------
  Task / Subroutine                                          Time (Seconds)
--------------------------------------------------------------------------------
  Calculation of reciprocal space energy and derivatives          0.0008
  Calculation of reciprocal space energy using symmetry           0.0011
  Calculation of real space energy and derivatives                0.0040
  Calculation of real space energy using symmetry                 0.0099
  Calculation for region 1 energy and derivatives (2-b)          56.3780
  Calculation for region 2a energy                               41.5402
  Calculation for region 2b energy                                0.0160
  Calculation and manipulation of Hessian matrix                  0.1810
  Calculation of matrix inversion                                 5.6507
  Symmetry generation of equivalent positions                     0.0051
--------------------------------------------------------------------------------
  Total CPU time                                                104.1680
--------------------------------------------------------------------------------


  Dump file written as Na3OCl.grs


  Job Finished at 22:32.50 30th November   2020                               

