********************************************************************************
*                       GENERAL UTILITY LATTICE PROGRAM                        *
*                                 Julian Gale                                  *
*                       Curtin Institute for Computation                       *
*                    School of Molecular and Life Sciences                     *
*                    Curtin University, Western Australia                      *
********************************************************************************
* Version = 5.2.0 * Last modified =  10th September 2020                       *
********************************************************************************
*  optimise     - perform optimisation run                                     *
*  conp         - constant pressure calculation                                *
*  property     - calculate properties for final geometry                      *
*  defect       - perform defect calculation after bulk run                    *
*  compare      - compare initial and final structures                         *
********************************************************************************

  Job Started  at 22:31.06 30th November   2020                               

  Number of CPUs =     1


  Total number of configurations input =      1

********************************************************************************
*  Input for Configuration =   1                                               *
********************************************************************************

  Formula = ClONa3                                                      

  Number of irreducible atoms/shells =       5


  Total number atoms/shells =       7

  Dimensionality = 3               :  Bulk   


  Symmetry :

  Crystal family                   :  Cubic       
  Crystal class  (Groth - 1921)    :  Cubic Hexakisoctahedral              

  Space group (centrosymmetric)    :  P M 3 M         

  Patterson group                  :  P m -3 m 

  Cartesian lattice vectors (Angstroms) :

        4.504000    0.000000    0.000000
        0.000000    4.504000    0.000000
        0.000000    0.000000    4.504000

  Cell parameters (Angstroms/Degrees):

  a =       4.5040    alpha =  90.0000
  b =       4.5040    beta  =  90.0000
  c =       4.5040    gamma =  90.0000

  Initial cell volume =          91.368216 Angs**3

  Temperature of configuration =   0.00     K 

  Pressure of configuration =         0.000 GPa 

  Fractional coordinates of asymmetric unit :

--------------------------------------------------------------------------------
   No.  Atomic       x           y          z         Charge      Occupancy
        Label      (Frac)      (Frac)     (Frac)        (e)         (Frac)  
--------------------------------------------------------------------------------
      1 Cl    c    0.000000    0.000000    0.000000     1.48500    1.000000    
      2 O     c    0.500000    0.500000    0.500000     0.18300    1.000000    
      3 Na    c    0.500000    0.500000    0.000000     1.00000    1.000000    
      4 Cl    s    0.000000    0.000000    0.000000    -2.48500    1.000000    
      5 O     s    0.500000    0.500000    0.500000    -2.18300    1.000000    
--------------------------------------------------------------------------------


  Constraints : 

--------------------------------------------------------------------------------
  Constraint no.      Unconstrained     Constrained    Coefficient    Offset
                         Variable         Variable
--------------------------------------------------------------------------------
           1              Strain 1        Strain 2       1.00000      0.0000
           2              Strain 1        Strain 3       1.00000      0.0000
--------------------------------------------------------------------------------


********************************************************************************
*  General input information                                                   *
********************************************************************************

  Species output for all configurations : 

--------------------------------------------------------------------------------
  Species    Type    Atomic    Atomic    Charge       Radii (Angs)     Library
                     Number     Mass       (e)     Cova   Ionic  VDW   Symbol
--------------------------------------------------------------------------------
    Na       Core       11      22.99   1.000000   0.970  0.000  2.300          
    O        Core        8      16.00   0.183000   0.730  0.000  1.360          
    O        Shell       8       0.00  -2.183000   0.730  0.000  1.360          
    Cl       Core       17      35.45   1.485000   0.990  0.000  1.650          
    Cl       Shell      17       0.00  -2.485000   0.990  0.000  1.650          
    Mg       Core       12      24.31   0.415000   1.100  0.000  0.000          
    Mg       Shell      12       0.00   1.585000   1.100  0.000  0.000          
    Ca       Core       20      40.08  -1.135000   0.990  0.000  0.000          
    Ca       Shell      20       0.00   3.135000   0.990  0.000  0.000          
    Sr       Core       38      87.62  -1.251000   1.120  0.000  0.000          
    Sr       Shell      38       0.00   3.251000   1.120  0.000  0.000          
    Ba       Core       56     137.33  -7.203000   1.340  0.000  0.000          
    Ba       Shell      56       0.00   9.203000   1.340  0.000  0.000          
--------------------------------------------------------------------------------


  Lattice summation method               =    Ewald          (3-D)
                                         =    Parry          (2-D)
                                         =    Saunders et al (1-D)
  Accuracy factor for lattice sums       =   12.000


  Analytic derivatives to be used

  Time limit = Infinity

  Maximum range for interatomic potentials =    100000.000000 Angstroms

  General interatomic potentials :

--------------------------------------------------------------------------------
Atom  Types   Potential      Parameter       Value         Units   Cutoffs(Ang)
  1     2                                                            Min /  Max 
--------------------------------------------------------------------------------
O    c O    s Spring (c-s)  Spring k 2       593.71600    eV*Ang^-2 0.000  0.800
                            Spring k 4       0.0000000    eV*Ang^-4 
--------------------------------------------------------------------------------
Cl   c Cl   s Spring (c-s)  Spring k 2       29.380000    eV*Ang^-2 0.000  0.800
                            Spring k 4       0.0000000    eV*Ang^-4 
--------------------------------------------------------------------------------
Mg   c Mg   s Spring (c-s)  Spring k 2       361.60000    eV*Ang^-2 0.000  0.800
                            Spring k 4       0.0000000    eV*Ang^-4 
--------------------------------------------------------------------------------
Ca   c Ca   s Spring (c-s)  Spring k 2       110.20000    eV*Ang^-2 0.000  0.800
                            Spring k 4       0.0000000    eV*Ang^-4 
--------------------------------------------------------------------------------
Sr   c Sr   s Spring (c-s)  Spring k 2       71.700000    eV*Ang^-2 0.000  0.800
                            Spring k 4       0.0000000    eV*Ang^-4 
--------------------------------------------------------------------------------
Ba   c Ba   s Spring (c-s)  Spring k 2       495.20000    eV*Ang^-2 0.000  0.800
                            Spring k 4       0.0000000    eV*Ang^-4 
--------------------------------------------------------------------------------
Na   c Na   c Buckingham    Buckingham A     1788.1900    eV        0.000 12.000
                            Buckingham rho  0.15900000    Ang       
                            Buckingham C     0.0000000    eV*Ang^6  
--------------------------------------------------------------------------------
Na   c O    s Buckingham    Buckingham A     1226.8400    eV        0.000 12.000
                            Buckingham rho  0.30700000    Ang       
                            Buckingham C     0.0000000    eV*Ang^6  
--------------------------------------------------------------------------------
Na   c Cl   s Buckingham    Buckingham A     2314.7000    eV        0.000 12.000
                            Buckingham rho  0.29000000    Ang       
                            Buckingham C     0.0000000    eV*Ang^6  
--------------------------------------------------------------------------------
O    s O    s Buckingham    Buckingham A     22764.300    eV        0.000 12.000
                            Buckingham rho  0.14900000    Ang       
                            Buckingham C     13.190000    eV*Ang^6  
--------------------------------------------------------------------------------
O    s Cl   s Buckingham    Buckingham A     8286.9100    eV        0.000 12.000
                            Buckingham rho  0.25900000    Ang       
                            Buckingham C     62.200000    eV*Ang^6  
--------------------------------------------------------------------------------
Cl   s Cl   s Buckingham    Buckingham A     1227.2000    eV        0.000 12.000
                            Buckingham rho  0.32100000    Ang       
                            Buckingham C     14.530000    eV*Ang^6  
--------------------------------------------------------------------------------
O    s Mg   s Buckingham    Buckingham A     1428.5000    eV        0.000 12.000
                            Buckingham rho  0.29450000    Ang       
                            Buckingham C     0.0000000    eV*Ang^6  
--------------------------------------------------------------------------------
Mg   s Cl   s Buckingham    Buckingham A     4914.5400    eV        0.000 12.000
                            Buckingham rho  0.25700000    Ang       
                            Buckingham C     0.0000000    eV*Ang^6  
--------------------------------------------------------------------------------
O    s Ca   s Buckingham    Buckingham A     1090.4000    eV        0.000 12.000
                            Buckingham rho  0.34370000    Ang       
                            Buckingham C     0.0000000    eV*Ang^6  
--------------------------------------------------------------------------------
Cl   s Ca   s Buckingham    Buckingham A     2302.0000    eV        0.000 12.000
                            Buckingham rho  0.34020000    Ang       
                            Buckingham C     0.0000000    eV*Ang^6  
--------------------------------------------------------------------------------
O    s Sr   s Buckingham    Buckingham A     959.10000    eV        0.000 12.000
                            Buckingham rho  0.37210000    Ang       
                            Buckingham C     0.0000000    eV*Ang^6  
--------------------------------------------------------------------------------
Cl   s Sr   s Buckingham    Buckingham A     2191.0900    eV        0.000 12.000
                            Buckingham rho  0.34570000    Ang       
                            Buckingham C     0.0000000    eV*Ang^6  
--------------------------------------------------------------------------------
O    s Ba   s Buckingham    Buckingham A     905.70000    eV        0.000 12.000
                            Buckingham rho  0.39760000    Ang       
                            Buckingham C     0.0000000    eV*Ang^6  
--------------------------------------------------------------------------------
Cl   s Ba   s Buckingham    Buckingham A     2704.5500    eV        0.000 12.000
                            Buckingham rho  0.35280000    Ang       
                            Buckingham C     0.0000000    eV*Ang^6  
--------------------------------------------------------------------------------

********************************************************************************
*  Output for configuration   1                                                *
********************************************************************************


  Components of energy : 

--------------------------------------------------------------------------------
  Interatomic potentials     =           5.13022605 eV    
  Monopole - monopole (real) =         -10.03624526 eV    
  Monopole - monopole (recip)=         -29.53581274 eV    
  Monopole - monopole (total)=         -39.57205800 eV    
--------------------------------------------------------------------------------
  Total lattice energy       =         -34.44183194 eV    
--------------------------------------------------------------------------------
  Total lattice energy       =           -3323.1103 kJ/(mole unit cells)
--------------------------------------------------------------------------------


  Number of variables =        1

  Maximum number of calculations  =          1000
  Maximum Hessian update interval =            10
  Maximum step size               =   1.000000000
  Maximum parameter tolerance     =   0.000010000
  Maximum function  tolerance     =   0.000010000
  Maximum gradient  tolerance     =   0.001000000
  Maximum gradient  component     =   0.010000000

  Symmetry constrained optimisation

  Symmetry used for second derivatives

  Cell parameters to be optimised using strains

  Newton-Raphson optimiser to be used

  BFGS hessian update to be used

  Lower half triangular hessian to be used

  Start of bulk optimisation :

  Cycle:      0 Energy:       -34.441832  Gnorm:      0.196570  CPU:    0.014
  ** Hessian calculated **
  Cycle:      1 Energy:       -34.441914  Gnorm:      0.000103  CPU:    0.018


  **** Optimisation achieved ****


  Final energy =     -34.44191447 eV
  Final Gnorm  =       0.00000000

  Components of energy : 

--------------------------------------------------------------------------------
  Interatomic potentials     =           5.09689708 eV    
  Monopole - monopole (real) =         -10.02781331 eV    
  Monopole - monopole (recip)=         -29.51099824 eV    
  Monopole - monopole (total)=         -39.53881155 eV    
--------------------------------------------------------------------------------
  Total lattice energy       =         -34.44191447 eV    
--------------------------------------------------------------------------------
  Total lattice energy       =           -3323.1183 kJ/(mole unit cells)
--------------------------------------------------------------------------------

  Final asymmetric unit coordinates :

--------------------------------------------------------------------------------
   No.  Atomic        x           y           z         Radius
        Label       (Frac)      (Frac)      (Frac)       (Angs) 
--------------------------------------------------------------------------------
     1  Cl    c     0.000000    0.000000    0.000000    0.000000
     2  O     c     0.500000    0.500000    0.500000    0.000000
     3  Na    c     0.500000    0.500000    0.000000    0.000000
     4  Cl    s     0.000000    0.000000    0.000000    0.000000
     5  O     s     0.500000    0.500000    0.500000    0.000000
--------------------------------------------------------------------------------

  Final Cartesian lattice vectors (Angstroms) :

        4.507787    0.000000    0.000000
        0.000000    4.507787    0.000000
        0.000000    0.000000    4.507787


  Final cell parameters and derivatives :

--------------------------------------------------------------------------------
       a            4.507787 Angstrom     dE/de1(xx)     0.000000 eV/strain
       b            4.507787 Angstrom     dE/de2(yy)     0.000000 eV/strain
       c            4.507787 Angstrom     dE/de3(zz)     0.000000 eV/strain
       alpha       90.000000 Degrees      dE/de4(yz)     0.000000 eV/strain
       beta        90.000000 Degrees      dE/de5(xz)     0.000000 eV/strain
       gamma       90.000000 Degrees      dE/de6(xy)     0.000000 eV/strain
--------------------------------------------------------------------------------

  Primitive cell volume =            91.598892 Angs**3

  Density of cell =      2.183054 g/cm**3

  Non-primitive cell volume =            91.598892 Angs**3


  Final internal derivatives :

--------------------------------------------------------------------------------
   No.  Atomic          a             b             c           Radius
        Label          (eV)          (eV)          (eV)        (eV/Angs)
--------------------------------------------------------------------------------
      1 Cl    c       0.000000      0.000000      0.000000      0.000000
      2 O     c       0.000000      0.000000      0.000000      0.000000
      3 Na    c       0.000000      0.000000      0.000000      0.000000
      4 Cl    s       0.000000      0.000000      0.000000      0.000000
      5 O     s       0.000000      0.000000      0.000000      0.000000
--------------------------------------------------------------------------------
  Maximum abs         0.000000      0.000000      0.000000      0.000000
--------------------------------------------------------------------------------

  Comparison of initial and final structures : 

--------------------------------------------------------------------------------
  Parameter   Initial value   Final value   Difference    Units      Percent
--------------------------------------------------------------------------------
    Volume        91.368216     91.598892     0.230676    Angs**3      0.25
    a              4.504000      4.507787     0.003787    Angstroms    0.08
    b              4.504000      4.507787     0.003787    Angstroms    0.08
    c              4.504000      4.507787     0.003787    Angstroms    0.08
    alpha         90.000000     90.000000     0.000000    Degrees      0.00
    beta          90.000000     90.000000     0.000000    Degrees      0.00
    gamma         90.000000     90.000000     0.000000    Degrees      0.00
      1 x          0.000000      0.000000     0.000000    Fractional   0.00
      1 y          0.000000      0.000000     0.000000    Fractional   0.00
      1 z          0.000000      0.000000     0.000000    Fractional   0.00
      2 x          0.500000      0.500000     0.000000    Fractional   0.00
      2 y          0.500000      0.500000     0.000000    Fractional   0.00
      2 z          0.500000      0.500000     0.000000    Fractional   0.00
      3 x          0.500000      0.500000     0.000000    Fractional   0.00
      3 y          0.500000      0.500000     0.000000    Fractional   0.00
      3 z          0.000000      0.000000     0.000000    Fractional   0.00
      4 x          0.000000      0.000000     0.000000    Fractional   0.00
      4 y          0.000000      0.000000     0.000000    Fractional   0.00
      4 z          0.000000      0.000000     0.000000    Fractional   0.00
      5 x          0.500000      0.500000     0.000000    Fractional   0.00
      5 y          0.500000      0.500000     0.000000    Fractional   0.00
      5 z          0.500000      0.500000     0.000000    Fractional   0.00
--------------------------------------------------------------------------------


  Born effective charge tensors : 

-------------------------------------------------------------------------------
  Atom             x           y             z
-------------------------------------------------------------------------------
    1 Cl    x      -1.0181     -0.0000      0.0000
            y      -0.0000     -1.0181      0.0000
            z       0.0000      0.0000     -1.0181
-------------------------------------------------------------------------------
    2 O     x      -2.2647      0.0000     -0.0000
            y       0.0000     -2.2647     -0.0000
            z      -0.0000     -0.0000     -2.2647
-------------------------------------------------------------------------------
    3 Na    x       1.2258     -0.0000      0.0000
            y      -0.0000      1.2258     -0.0000
            z       0.0000     -0.0000      0.8313
-------------------------------------------------------------------------------




  Elastic Constant Matrix: (Units=GPa)

-------------------------------------------------------------------------------
  Indices      1         2         3         4         5         6    
-------------------------------------------------------------------------------
       1     95.8177   20.0737   20.0737   -0.0000   -0.0000    0.0000
       2     20.0737   95.8177   20.0737   -0.0000   -0.0000    0.0000
       3     20.0737   20.0737   95.8177   -0.0000   -0.0000    0.0000
       4     -0.0000   -0.0000   -0.0000   20.0737   -0.0000    0.0000
       5     -0.0000   -0.0000   -0.0000   -0.0000   20.0737    0.0000
       6      0.0000    0.0000    0.0000    0.0000    0.0000   20.0737
-------------------------------------------------------------------------------


  Elastic Compliance Matrix: (Units=1/GPa)

-------------------------------------------------------------------------------
  Indices      1         2         3         4         5         6    
-------------------------------------------------------------------------------
       1    0.011253 -0.001949 -0.001949  0.000000  0.000000 -0.000000
       2   -0.001949  0.011253 -0.001949  0.000000  0.000000  0.000000
       3   -0.001949 -0.001949  0.011253  0.000000  0.000000 -0.000000
       4    0.000000  0.000000  0.000000  0.049816  0.000000 -0.000000
       5    0.000000  0.000000  0.000000  0.000000  0.049816 -0.000000
       6   -0.000000  0.000000 -0.000000 -0.000000 -0.000000  0.049816
-------------------------------------------------------------------------------

  Mechanical properties :

-------------------------------------------------------------------------------
  Convention :                    Reuss         Voigt         Hill
-------------------------------------------------------------------------------
  Bulk  Modulus (GPa)     =      45.32174      45.32174      45.32174
  Shear Modulus (GPa)     =      24.72085      27.19304      25.95695
-------------------------------------------------------------------------------
  Velocity S-wave (km/s)  =       3.36511       3.52937       3.44822
  Velocity P-wave (km/s)  =       5.98827       6.11304       6.05098
-------------------------------------------------------------------------------
  Compressibility (1/GPa) =    0.02206447
-------------------------------------------------------------------------------
  Stress axis :                     x             y             z
-------------------------------------------------------------------------------
  Youngs Moduli (GPa)     =      88.86373      88.86373      88.86373
-------------------------------------------------------------------------------
  Poissons Ratio (x)      =                     0.17321       0.17321
  Poissons Ratio (y)      =       0.17321                     0.17321
  Poissons Ratio (z)      =       0.17321       0.17321
-------------------------------------------------------------------------------


  Piezoelectric Strain Matrix: (Units=C/m**2)

-------------------------------------------------------------------------------
  Indices      1         2         3         4         5         6    
-------------------------------------------------------------------------------
       x    -0.00000  -0.00000  -0.00000   0.00000  -0.00000  -0.00000
       y    -0.00000  -0.00000   0.00000  -0.00000   0.00000   0.00000
       z    -0.00000  -0.00000  -0.00000  -0.00000   0.00000   0.00000
-------------------------------------------------------------------------------


  Piezoelectric Stress Matrix: (Units=10**-11 C/N)

-------------------------------------------------------------------------------
  Indices      1         2         3         4         5         6    
-------------------------------------------------------------------------------
       x    -0.00000   0.00000   0.00000   0.00000  -0.00000  -0.00000
       y    -0.00000  -0.00000   0.00000  -0.00000   0.00000   0.00000
       z     0.00000   0.00000  -0.00000  -0.00000   0.00000   0.00000
-------------------------------------------------------------------------------


  Static dielectric constant tensor : 

-------------------------------------------------------------------------------
              x         y         z
-------------------------------------------------------------------------------
       x    22.84729   0.00000   0.00000
       y     0.00000  22.84729  -0.00000
       z     0.00000  -0.00000  22.84729
--------------------------------------------------------------------------------

  High frequency dielectric constant tensor : 

-------------------------------------------------------------------------------
              x         y         z
-------------------------------------------------------------------------------
       x     1.47557   0.00000  -0.00000
       y     0.00000   1.47557  -0.00000
       z    -0.00000  -0.00000   1.47557
-------------------------------------------------------------------------------

  Static refractive indices : 

-------------------------------------------------------------------------------
    1 =    4.77988      2 =    4.77988      3 =    4.77988
-------------------------------------------------------------------------------

  High frequency refractive indices : 

-------------------------------------------------------------------------------
    1 =    1.21473      2 =    1.21473      3 =    1.21473
-------------------------------------------------------------------------------


  Time to end of optimisation =       0.0262 seconds

********************************************************************************
*  Defect calculation for configuration   1 :                                  *
********************************************************************************

  Total number of defects =      3

  Total charge on defect  =  -1.00

  Defect centre is at   0.5000   0.1800   0.3200  Frac

  Region 1 radius =  12.0000      Number of ions =    547

  Number of symmetry inequivalent region 1 ions  =    316

  Region 2 radius =  16.0000      Number of ions =    774

  Number of symmetry inequivalent region 2a ions =    423

  Region 2a mode = 4 : screened electrostatics due to region 1 
                       neglect correction to region 1 forces from 2a
                       region 2a displacements based on defects only

  Region 2a ions will only interact with defects in region 1

  Vacancies:

--------------------------------------------------------------------------------
    Specification type     Symbol/Number         x          y          z
--------------------------------------------------------------------------------
    Fractional                               0.500000   0.500000   0.000000
    Fractional                               0.500000   0.000000   0.500000
--------------------------------------------------------------------------------

  Interstitials:

--------------------------------------------------------------------------------
    Specification type     Symbol/Number         x          y          z
--------------------------------------------------------------------------------
    Atom/Fractional         Na               0.500000   0.180000   0.320000
--------------------------------------------------------------------------------


  Symmetry reduced region 1 (Relative to defect centre) :

--------------------------------------------------------------------------------
   No.   Atomic       x            y             z       Radius  Multiplicity   
         Label      (Angs)       (Angs)        (Angs)    (Angs)     
--------------------------------------------------------------------------------
     1  Na    c      0.0000       0.0000       0.0000 *  0.0000     1    Defect
     2  O     c      0.0000       1.4425 *     0.8114 *  0.0000     1          
     3  Na    c      2.2539 *     1.4425 *     0.8114 *  0.0000     2          
     4  Cl    c      2.2539 *    -0.8114 *    -1.4425 *  0.0000     2          
     5  O     c      0.0000      -3.0653 *     0.8114 *  0.0000     1          
     6  Na    c      0.0000       1.4425 *     3.0653 *  0.0000     1          
     7  Na    c      0.0000      -3.0653 *    -1.4425 *  0.0000     1          
     8  Na    c      0.0000      -0.8114 *    -3.6964 *  0.0000     1          
     9  Na    c      0.0000       3.6964 *     0.8114 *  0.0000     1          
    10  Cl    c      2.2539 *    -0.8114 *     3.0653 *  0.0000     2          
    11  Na    c      2.2539 *    -3.0653 *     0.8114 *  0.0000     2          
    12  O     c      0.0000       1.4425 *    -3.6964 *  0.0000     1          
    13  Na    c      0.0000      -3.0653 *     3.0653 *  0.0000     1          
    14  Cl    c      2.2539 *     3.6964 *    -1.4425 *  0.0000     2          
    15  Na    c      2.2539 *     1.4425 *    -3.6964 *  0.0000     2          
    16  Na    c     -4.5078 *    -0.8114 *     0.8114 *  0.0000     2          
    17  O     c      0.0000      -3.0653 *    -3.6964 *  0.0000     1          
    18  O     c     -4.5078 *     1.4425 *     0.8114 *  0.0000     2          
    19  Na    c     -4.5078 *     1.4425 *    -1.4425 *  0.0000     2          
    20  Na    c      0.0000       3.6964 *    -3.6964 *  0.0000     1          
    21  Cl    c      2.2539 *     3.6964 *     3.0653 *  0.0000     2          
    22  Na    c      2.2539 *    -3.0653 *    -3.6964 *  0.0000     2          
    23  Na    c      0.0000      -0.8114 *     5.3192 *  0.0000     1          
    24  Na    c      0.0000      -5.3192 *     0.8114 *  0.0000     1          
    25  O     c      0.0000       1.4425 *     5.3192 *  0.0000     1          
    26  O     c     -4.5078 *    -3.0653 *     0.8114 *  0.0000     2          
    27  Na    c     -4.5078 *     1.4425 *     3.0653 *  0.0000     2          
    28  Na    c     -4.5078 *    -3.0653 *    -1.4425 *  0.0000     2          
    29  Na    c     -4.5078 *    -0.8114 *    -3.6964 *  0.0000     2          
    30  Na    c     -4.5078 *     3.6964 *     0.8114 *  0.0000     2          
    31  Cl    c      2.2539 *    -5.3192 *    -1.4425 *  0.0000     2          
    32  Na    c      2.2539 *     1.4425 *     5.3192 *  0.0000     2          
    33  O     c      0.0000       5.9503 *     0.8114 *  0.0000     1          
    34  O     c      4.5078 *     1.4425 *    -3.6964 *  0.0000     2          
    35  Na    c      0.0000       1.4425 *    -5.9503 *  0.0000     1          
    36  Na    c      0.0000       5.9503 *    -1.4425 *  0.0000     1          
    37  O     c      0.0000      -3.0653 *     5.3192 *  0.0000     1          
    38  Na    c     -4.5078 *    -3.0653 *     3.0653 *  0.0000     2          
    39  Cl    c      2.2539 *    -0.8114 *    -5.9503 *  0.0000     2          
    40  Na    c      2.2539 *     5.9503 *     0.8114 *  0.0000     2          
    41  Na    c      0.0000       3.6964 *     5.3192 *  0.0000     1          
    42  Na    c      0.0000      -5.3192 *    -3.6964 *  0.0000     1          
    43  Cl    c      2.2539 *    -5.3192 *     3.0653 *  0.0000     2          
    44  Na    c      2.2539 *    -3.0653 *     5.3192 *  0.0000     2          
    45  O     c      4.5078 *    -3.0653 *    -3.6964 *  0.0000     2          
    46  Na    c      0.0000       5.9503 *     3.0653 *  0.0000     1          
    47  Na    c      0.0000      -3.0653 *    -5.9503 *  0.0000     1          
    48  Na    c      4.5078 *     3.6964 *    -3.6964 *  0.0000     2          
    49  Cl    c      6.7617 *    -0.8114 *    -1.4425 *  0.0000     2          
    50  Na    c      6.7617 *     1.4425 *     0.8114 *  0.0000     2          
    51  O     c      0.0000       5.9503 *    -3.6964 *  0.0000     1          
    52  Na    c     -4.5078 *    -0.8114 *     5.3192 *  0.0000     2          
    53  Na    c     -4.5078 *    -5.3192 *     0.8114 *  0.0000     2          
    54  O     c      4.5078 *     1.4425 *     5.3192 *  0.0000     2          
    55  Cl    c      2.2539 *     3.6964 *    -5.9503 *  0.0000     2          
    56  Na    c      2.2539 *     5.9503 *    -3.6964 *  0.0000     2          
    57  Cl    c      6.7617 *    -0.8114 *     3.0653 *  0.0000     2          
    58  Na    c      6.7617 *    -3.0653 *     0.8114 *  0.0000     2          
    59  O     c      4.5078 *     5.9503 *     0.8114 *  0.0000     2          
    60  Na    c      0.0000      -5.3192 *     5.3192 *  0.0000     1          
    61  Na    c      4.5078 *     5.9503 *    -1.4425 *  0.0000     2          
    62  Na    c     -4.5078 *     1.4425 *    -5.9503 *  0.0000     2          
    63  O     c      0.0000      -7.5731 *     0.8114 *  0.0000     1          
    64  O     c      4.5078 *    -3.0653 *     5.3192 *  0.0000     2          
    65  Na    c      0.0000       1.4425 *     7.5731 *  0.0000     1          
    66  Na    c      0.0000      -7.5731 *    -1.4425 *  0.0000     1          
    67  Na    c      6.7617 *     1.4425 *    -3.6964 *  0.0000     2          
    68  Cl    c      6.7617 *     3.6964 *    -1.4425 *  0.0000     2          
    69  Na    c      4.5078 *     3.6964 *     5.3192 *  0.0000     2          
    70  Na    c      4.5078 *    -5.3192 *    -3.6964 *  0.0000     2          
    71  Cl    c      2.2539 *    -0.8114 *     7.5731 *  0.0000     2          
    72  Na    c      2.2539 *    -7.5731 *     0.8114 *  0.0000     2          
    73  O     c      0.0000       5.9503 *     5.3192 *  0.0000     1          
    74  Na    c      4.5078 *     5.9503 *     3.0653 *  0.0000     2          
    75  Na    c     -4.5078 *    -3.0653 *    -5.9503 *  0.0000     2          
    76  Na    c      0.0000      -3.0653 *     7.5731 *  0.0000     1          
    77  Na    c      0.0000      -7.5731 *     3.0653 *  0.0000     1          
    78  Na    c      0.0000      -0.8114 *    -8.2042 *  0.0000     1          
    79  Na    c      0.0000       8.2042 *     0.8114 *  0.0000     1          
    80  Cl    c      6.7617 *     3.6964 *     3.0653 *  0.0000     2          
    81  Na    c      2.2539 *     5.9503 *     5.3192 *  0.0000     2          
    82  Na    c      6.7617 *    -3.0653 *    -3.6964 *  0.0000     2          
    83  Cl    c      2.2539 *    -5.3192 *    -5.9503 *  0.0000     2          
    84  O     c      0.0000       1.4425 *    -8.2042 *  0.0000     1          
    85  O     c      4.5078 *     5.9503 *    -3.6964 *  0.0000     2          
    86  Na    c      0.0000       5.9503 *    -5.9503 *  0.0000     1          
    87  O     c      0.0000      -7.5731 *    -3.6964 *  0.0000     1          
    88  Cl    c      2.2539 *     8.2042 *    -1.4425 *  0.0000     2          
    89  Na    c      2.2539 *     1.4425 *    -8.2042 *  0.0000     2          
    90  Cl    c      2.2539 *     3.6964 *     7.5731 *  0.0000     2          
    91  Na    c      2.2539 *    -7.5731 *    -3.6964 *  0.0000     2          
    92  Na    c      6.7617 *     1.4425 *     5.3192 *  0.0000     2          
    93  Cl    c      6.7617 *    -5.3192 *    -1.4425 *  0.0000     2          
    94  O     c      0.0000      -3.0653 *    -8.2042 *  0.0000     1          
    95  Na    c      4.5078 *    -5.3192 *     5.3192 *  0.0000     2          
    96  O     c      4.5078 *    -7.5731 *     0.8114 *  0.0000     2          
    97  Na    c      4.5078 *     1.4425 *     7.5731 *  0.0000     2          
    98  Na    c      4.5078 *    -7.5731 *    -1.4425 *  0.0000     2          
    99  Na    c      0.0000       3.6964 *    -8.2042 *  0.0000     1          
   100  Na    c      0.0000       8.2042 *    -3.6964 *  0.0000     1          
   101  Cl    c      2.2539 *     8.2042 *     3.0653 *  0.0000     2          
   102  Na    c      2.2539 *    -3.0653 *    -8.2042 *  0.0000     2          
   103  Cl    c      6.7617 *    -0.8114 *    -5.9503 *  0.0000     2          
   104  Na    c      6.7617 *     5.9503 *     0.8114 *  0.0000     2          
   105  Na    c      9.0156 *    -0.8114 *     0.8114 *  0.0000     2          
   106  Cl    c      6.7617 *    -5.3192 *     3.0653 *  0.0000     2          
   107  Na    c      6.7617 *    -3.0653 *     5.3192 *  0.0000     2          
   108  O     c      4.5078 *     5.9503 *     5.3192 *  0.0000     2          
   109  O     c      9.0156 *     1.4425 *     0.8114 *  0.0000     2          
   110  Na    c      9.0156 *     1.4425 *    -1.4425 *  0.0000     2          
   111  O     c      0.0000      -7.5731 *     5.3192 *  0.0000     1          
   112  Na    c      4.5078 *    -3.0653 *     7.5731 *  0.0000     2          
   113  Na    c      4.5078 *    -7.5731 *     3.0653 *  0.0000     2          
   114  Na    c      4.5078 *    -0.8114 *    -8.2042 *  0.0000     2          
   115  Na    c     -4.5078 *     8.2042 *     0.8114 *  0.0000     2          
   116  O     c     -4.5078 *     1.4425 *    -8.2042 *  0.0000     2          
   117  Cl    c      2.2539 *    -5.3192 *     7.5731 *  0.0000     2          
   118  Na    c      2.2539 *    -7.5731 *     5.3192 *  0.0000     2          
   119  Na    c      4.5078 *     5.9503 *    -5.9503 *  0.0000     2          
   120  O     c      4.5078 *    -7.5731 *    -3.6964 *  0.0000     2          
   121  O     c      9.0156 *    -3.0653 *     0.8114 *  0.0000     2          
   122  Na    c      0.0000       5.9503 *     7.5731 *  0.0000     1          
   123  Na    c      9.0156 *     1.4425 *     3.0653 *  0.0000     2          
   124  Na    c      0.0000      -7.5731 *    -5.9503 *  0.0000     1          
   125  Na    c      9.0156 *    -3.0653 *    -1.4425 *  0.0000     2          
   126  Cl    c      6.7617 *     3.6964 *    -5.9503 *  0.0000     2          
   127  Na    c      6.7617 *     5.9503 *    -3.6964 *  0.0000     2          
   128  Na    c      0.0000       8.2042 *     5.3192 *  0.0000     1          
   129  Na    c      0.0000      -5.3192 *    -8.2042 *  0.0000     1          
   130  Na    c      9.0156 *    -0.8114 *    -3.6964 *  0.0000     2          
   131  Na    c      9.0156 *     3.6964 *     0.8114 *  0.0000     2          
   132  O     c     -4.5078 *    -3.0653 *    -8.2042 *  0.0000     2          
   133  O     c      9.0156 *     1.4425 *    -3.6964 *  0.0000     2          
   134  Na    c      0.0000      -0.8114 *     9.8270 *  0.0000     1          
   135  Na    c      0.0000      -9.8270 *     0.8114 *  0.0000     1          
   136  O     c      0.0000       1.4425 *     9.8270 *  0.0000     1          
   137  Na    c      9.0156 *    -3.0653 *     3.0653 *  0.0000     2          
   138  Na    c      4.5078 *     3.6964 *    -8.2042 *  0.0000     2          
   139  Na    c     -4.5078 *     8.2042 *    -3.6964 *  0.0000     2          
   140  O     c      0.0000       5.9503 *    -8.2042 *  0.0000     1          
   141  Cl    c      2.2539 *    -9.8270 *    -1.4425 *  0.0000     2          
   142  Cl    c      6.7617 *    -0.8114 *     7.5731 *  0.0000     2          
   143  Na    c      2.2539 *     1.4425 *     9.8270 *  0.0000     2          
   144  Na    c      6.7617 *    -7.5731 *     0.8114 *  0.0000     2          
   145  O     c      9.0156 *    -3.0653 *    -3.6964 *  0.0000     2          
   146  O     c      0.0000      -3.0653 *     9.8270 *  0.0000     1          
   147  O     c      4.5078 *    -7.5731 *     5.3192 *  0.0000     2          
   148  Cl    c      2.2539 *     8.2042 *    -5.9503 *  0.0000     2          
   149  Na    c      2.2539 *     5.9503 *    -8.2042 *  0.0000     2          
   150  Na    c      9.0156 *     3.6964 *    -3.6964 *  0.0000     2          
   151  Cl    c      6.7617 *    -5.3192 *    -5.9503 *  0.0000     2          
   152  Na    c      6.7617 *     5.9503 *     5.3192 *  0.0000     2          
   153  O     c      0.0000      10.4581 *     0.8114 *  0.0000     1          
   154  Na    c      0.0000       3.6964 *     9.8270 *  0.0000     1          
   155  Na    c      0.0000      -9.8270 *    -3.6964 *  0.0000     1          
   156  Na    c      9.0156 *    -0.8114 *     5.3192 *  0.0000     2          
   157  Na    c      9.0156 *    -5.3192 *     0.8114 *  0.0000     2          
   158  Cl    c      2.2539 *    -9.8270 *     3.0653 *  0.0000     2          
   159  Na    c      2.2539 *    -3.0653 *     9.8270 *  0.0000     2          
   160  Na    c      0.0000       1.4425 *   -10.4581 *  0.0000     1          
   161  Na    c      0.0000      10.4581 *    -1.4425 *  0.0000     1          
   162  O     c      9.0156 *     1.4425 *     5.3192 *  0.0000     2          
   163  Na    c      4.5078 *     5.9503 *     7.5731 *  0.0000     2          
   164  Na    c      4.5078 *    -7.5731 *    -5.9503 *  0.0000     2          
   165  Na    c      0.0000      -7.5731 *     7.5731 *  0.0000     1          
   166  Cl    c      6.7617 *     8.2042 *    -1.4425 *  0.0000     2          
   167  Na    c      6.7617 *     1.4425 *    -8.2042 *  0.0000     2          
   168  Cl    c      2.2539 *    -0.8114 *   -10.4581 *  0.0000     2          
   169  Na    c      2.2539 *    10.4581 *     0.8114 *  0.0000     2          
   170  Na    c      4.5078 *    -5.3192 *    -8.2042 *  0.0000     2          
   171  Na    c     -4.5078 *     8.2042 *     5.3192 *  0.0000     2          
   172  Cl    c      6.7617 *     3.6964 *     7.5731 *  0.0000     2          
   173  Na    c      6.7617 *    -7.5731 *    -3.6964 *  0.0000     2          
   174  O     c      9.0156 *     5.9503 *     0.8114 *  0.0000     2          
   175  Na    c      4.5078 *    -0.8114 *     9.8270 *  0.0000     2          
   176  Na    c     -4.5078 *    -9.8270 *     0.8114 *  0.0000     2          
   177  Na    c      0.0000      10.4581 *     3.0653 *  0.0000     1          
   178  Na    c      9.0156 *     1.4425 *    -5.9503 *  0.0000     2          
   179  Na    c      9.0156 *     5.9503 *    -1.4425 *  0.0000     2          
   180  Na    c      0.0000      -3.0653 *   -10.4581 *  0.0000     1          
   181  O     c     -4.5078 *     1.4425 *     9.8270 *  0.0000     2          
   182  O     c      9.0156 *    -3.0653 *     5.3192 *  0.0000     2          
   183  Cl    c      6.7617 *     8.2042 *     3.0653 *  0.0000     2          
   184  Na    c      6.7617 *    -3.0653 *    -8.2042 *  0.0000     2          
   185  O     c      4.5078 *     5.9503 *    -8.2042 *  0.0000     2          
   186  O     c      0.0000      10.4581 *    -3.6964 *  0.0000     1          
   187  Na    c      9.0156 *     3.6964 *     5.3192 *  0.0000     2          
   188  Na    c      9.0156 *    -5.3192 *    -3.6964 *  0.0000     2          
   189  O     c      0.0000      -7.5731 *    -8.2042 *  0.0000     1          
   190  Na    c      0.0000      -5.3192 *     9.8270 *  0.0000     1          
   191  Na    c      0.0000      -9.8270 *     5.3192 *  0.0000     1          
   192  Na    c      9.0156 *     5.9503 *     3.0653 *  0.0000     2          
   193  Na    c      9.0156 *    -3.0653 *    -5.9503 *  0.0000     2          
   194  O     c     -4.5078 *    -3.0653 *     9.8270 *  0.0000     2          
   195  Cl    c      2.2539 *     3.6964 *   -10.4581 *  0.0000     2          
   196  Na    c      2.2539 *    10.4581 *    -3.6964 *  0.0000     2          
   197  Cl    c      2.2539 *     8.2042 *     7.5731 *  0.0000     2          
   198  Cl    c     11.2695 *    -0.8114 *    -1.4425 *  0.0000     2          
   199  Na    c     11.2695 *     1.4425 *     0.8114 *  0.0000     2          
   200  Na    c      2.2539 *    -7.5731 *    -8.2042 *  0.0000     2          
   201  O     c      9.0156 *     5.9503 *    -3.6964 *  0.0000     2          
   202  O     c      4.5078 *    10.4581 *     0.8114 *  0.0000     2          
   203  Na    c      4.5078 *     3.6964 *     9.8270 *  0.0000     2          
   204  Na    c      4.5078 *    -9.8270 *    -3.6964 *  0.0000     2          
   205  Cl    c      6.7617 *    -5.3192 *     7.5731 *  0.0000     2          
   206  Na    c      6.7617 *    -7.5731 *     5.3192 *  0.0000     2          
   207  Na    c      4.5078 *     1.4425 *   -10.4581 *  0.0000     2          
   208  Na    c      4.5078 *    10.4581 *    -1.4425 *  0.0000     2          
   209  O     c      0.0000       5.9503 *     9.8270 *  0.0000     1          
   210  Na    c      0.0000       8.2042 *    -8.2042 *  0.0000     1          
   211  Na    c      4.5078 *    -7.5731 *     7.5731 *  0.0000     2          
   212  Cl    c     11.2695 *    -0.8114 *     3.0653 *  0.0000     2          
   213  Na    c     11.2695 *    -3.0653 *     0.8114 *  0.0000     2          
   214  Cl    c      2.2539 *    -9.8270 *    -5.9503 *  0.0000     2          
   215  Na    c      2.2539 *     5.9503 *     9.8270 *  0.0000     2          
   216  O     c      0.0000      10.4581 *     5.3192 *  0.0000     1          
   217  Na    c      9.0156 *    -5.3192 *     5.3192 *  0.0000     2          
   218  Na    c     -4.5078 *    -3.0653 *   -10.4581 *  0.0000     2          
   219  Na    c      4.5078 *    10.4581 *     3.0653 *  0.0000     2          
   220  O     c      9.0156 *    -7.5731 *     0.8114 *  0.0000     2          
   221  Na    c      9.0156 *     1.4425 *     7.5731 *  0.0000     2          
   222  Na    c      9.0156 *    -7.5731 *    -1.4425 *  0.0000     2          
   223  Cl    c     11.2695 *     3.6964 *    -1.4425 *  0.0000     2          
   224  Na    c     11.2695 *     1.4425 *    -3.6964 *  0.0000     2          
   225  Cl    c      2.2539 *    -5.3192 *   -10.4581 *  0.0000     2          
   226  Na    c      2.2539 *    10.4581 *     5.3192 *  0.0000     2          
   227  O     c      4.5078 *    10.4581 *    -3.6964 *  0.0000     2          
   228  O     s      0.0000       1.4425 *     0.8114 *  0.0000     1          
   229  Cl    s      2.2539 *    -0.8114 *    -1.4425 *  0.0000     2          
   230  O     s      0.0000      -3.0653 *     0.8114 *  0.0000     1          
   231  Cl    s      2.2539 *    -0.8114 *     3.0653 *  0.0000     2          
   232  O     s      0.0000       1.4425 *    -3.6964 *  0.0000     1          
   233  Cl    s      2.2539 *     3.6964 *    -1.4425 *  0.0000     2          
   234  O     s      0.0000      -3.0653 *    -3.6964 *  0.0000     1          
   235  O     s     -4.5078 *     1.4425 *     0.8114 *  0.0000     2          
   236  Cl    s      2.2539 *     3.6964 *     3.0653 *  0.0000     2          
   237  O     s      0.0000       1.4425 *     5.3192 *  0.0000     1          
   238  O     s     -4.5078 *    -3.0653 *     0.8114 *  0.0000     2          
   239  Cl    s      2.2539 *    -5.3192 *    -1.4425 *  0.0000     2          
   240  O     s      0.0000       5.9503 *     0.8114 *  0.0000     1          
   241  O     s      4.5078 *     1.4425 *    -3.6964 *  0.0000     2          
   242  O     s      0.0000      -3.0653 *     5.3192 *  0.0000     1          
   243  Cl    s      2.2539 *    -0.8114 *    -5.9503 *  0.0000     2          
   244  Cl    s      2.2539 *    -5.3192 *     3.0653 *  0.0000     2          
   245  O     s      4.5078 *    -3.0653 *    -3.6964 *  0.0000     2          
   246  Cl    s      6.7617 *    -0.8114 *    -1.4425 *  0.0000     2          
   247  O     s      0.0000       5.9503 *    -3.6964 *  0.0000     1          
   248  O     s      4.5078 *     1.4425 *     5.3192 *  0.0000     2          
   249  Cl    s      2.2539 *     3.6964 *    -5.9503 *  0.0000     2          
   250  Cl    s      6.7617 *    -0.8114 *     3.0653 *  0.0000     2          
   251  O     s      4.5078 *     5.9503 *     0.8114 *  0.0000     2          
   252  O     s      0.0000      -7.5731 *     0.8114 *  0.0000     1          
   253  O     s      4.5078 *    -3.0653 *     5.3192 *  0.0000     2          
   254  Cl    s      6.7617 *     3.6964 *    -1.4425 *  0.0000     2          
   255  Cl    s      2.2539 *    -0.8114 *     7.5731 *  0.0000     2          
   256  O     s      0.0000       5.9503 *     5.3192 *  0.0000     1          
   257  Cl    s      6.7617 *     3.6964 *     3.0653 *  0.0000     2          
   258  Cl    s      2.2539 *    -5.3192 *    -5.9503 *  0.0000     2          
   259  O     s      0.0000       1.4425 *    -8.2042 *  0.0000     1          
   260  O     s      4.5078 *     5.9503 *    -3.6964 *  0.0000     2          
   261  O     s      0.0000      -7.5731 *    -3.6964 *  0.0000     1          
   262  Cl    s      2.2539 *     8.2042 *    -1.4425 *  0.0000     2          
   263  Cl    s      2.2539 *     3.6964 *     7.5731 *  0.0000     2          
   264  Cl    s      6.7617 *    -5.3192 *    -1.4425 *  0.0000     2          
   265  O     s      0.0000      -3.0653 *    -8.2042 *  0.0000     1          
   266  O     s      4.5078 *    -7.5731 *     0.8114 *  0.0000     2          
   267  Cl    s      2.2539 *     8.2042 *     3.0653 *  0.0000     2          
   268  Cl    s      6.7617 *    -0.8114 *    -5.9503 *  0.0000     2          
   269  Cl    s      6.7617 *    -5.3192 *     3.0653 *  0.0000     2          
   270  O     s      4.5078 *     5.9503 *     5.3192 *  0.0000     2          
   271  O     s      9.0156 *     1.4425 *     0.8114 *  0.0000     2          
   272  O     s      0.0000      -7.5731 *     5.3192 *  0.0000     1          
   273  O     s     -4.5078 *     1.4425 *    -8.2042 *  0.0000     2          
   274  Cl    s      2.2539 *    -5.3192 *     7.5731 *  0.0000     2          
   275  O     s      4.5078 *    -7.5731 *    -3.6964 *  0.0000     2          
   276  O     s      9.0156 *    -3.0653 *     0.8114 *  0.0000     2          
   277  Cl    s      6.7617 *     3.6964 *    -5.9503 *  0.0000     2          
   278  O     s     -4.5078 *    -3.0653 *    -8.2042 *  0.0000     2          
   279  O     s      9.0156 *     1.4425 *    -3.6964 *  0.0000     2          
   280  O     s      0.0000       1.4425 *     9.8270 *  0.0000     1          
   281  O     s      0.0000       5.9503 *    -8.2042 *  0.0000     1          
   282  Cl    s      2.2539 *    -9.8270 *    -1.4425 *  0.0000     2          
   283  Cl    s      6.7617 *    -0.8114 *     7.5731 *  0.0000     2          
   284  O     s      9.0156 *    -3.0653 *    -3.6964 *  0.0000     2          
   285  O     s      0.0000      -3.0653 *     9.8270 *  0.0000     1          
   286  O     s      4.5078 *    -7.5731 *     5.3192 *  0.0000     2          
   287  Cl    s      2.2539 *     8.2042 *    -5.9503 *  0.0000     2          
   288  Cl    s      6.7617 *    -5.3192 *    -5.9503 *  0.0000     2          
   289  O     s      0.0000      10.4581 *     0.8114 *  0.0000     1          
   290  Cl    s      2.2539 *    -9.8270 *     3.0653 *  0.0000     2          
   291  O     s      9.0156 *     1.4425 *     5.3192 *  0.0000     2          
   292  Cl    s      6.7617 *     8.2042 *    -1.4425 *  0.0000     2          
   293  Cl    s      2.2539 *    -0.8114 *   -10.4581 *  0.0000     2          
   294  Cl    s      6.7617 *     3.6964 *     7.5731 *  0.0000     2          
   295  O     s      9.0156 *     5.9503 *     0.8114 *  0.0000     2          
   296  O     s     -4.5078 *     1.4425 *     9.8270 *  0.0000     2          
   297  O     s      9.0156 *    -3.0653 *     5.3192 *  0.0000     2          
   298  Cl    s      6.7617 *     8.2042 *     3.0653 *  0.0000     2          
   299  O     s      4.5078 *     5.9503 *    -8.2042 *  0.0000     2          
   300  O     s      0.0000      10.4581 *    -3.6964 *  0.0000     1          
   301  O     s      0.0000      -7.5731 *    -8.2042 *  0.0000     1          
   302  O     s     -4.5078 *    -3.0653 *     9.8270 *  0.0000     2          
   303  Cl    s      2.2539 *     3.6964 *   -10.4581 *  0.0000     2          
   304  Cl    s      2.2539 *     8.2042 *     7.5731 *  0.0000     2          
   305  Cl    s     11.2695 *    -0.8114 *    -1.4425 *  0.0000     2          
   306  O     s      9.0156 *     5.9503 *    -3.6964 *  0.0000     2          
   307  O     s      4.5078 *    10.4581 *     0.8114 *  0.0000     2          
   308  Cl    s      6.7617 *    -5.3192 *     7.5731 *  0.0000     2          
   309  O     s      0.0000       5.9503 *     9.8270 *  0.0000     1          
   310  Cl    s     11.2695 *    -0.8114 *     3.0653 *  0.0000     2          
   311  Cl    s      2.2539 *    -9.8270 *    -5.9503 *  0.0000     2          
   312  O     s      0.0000      10.4581 *     5.3192 *  0.0000     1          
   313  O     s      9.0156 *    -7.5731 *     0.8114 *  0.0000     2          
   314  Cl    s     11.2695 *     3.6964 *    -1.4425 *  0.0000     2          
   315  Cl    s      2.2539 *    -5.3192 *   -10.4581 *  0.0000     2          
   316  O     s      4.5078 *    10.4581 *    -3.6964 *  0.0000     2          
--------------------------------------------------------------------------------

  Components of defect energy : 

--------------------------------------------------------------------------------
  Region 1 - region 1                   =      8.25206380 eV
  Region 1 - region 2a (unrelaxed)      =      1.78417109 eV
  Region 1 - 2a (relaxed - correction)  =     -0.29404276 eV
  Region 1 (Total)                      =      9.74219213 eV
  Region 2a                             =      0.14694244 eV
  Region 2b                             =     -0.43095283 eV
--------------------------------------------------------------------------------
  Total defect energy                   =      9.45818174 eV
--------------------------------------------------------------------------------

  Largest displacement in region 2 =   0.0242 Angstroms


  Number of variables =      862

  Maximum number of calculations  =        1000
  Maximum Hessian update interval =          10
  Maximum step size               =   1.0000000
  Maximum parameter tolerance     =   0.0000100
  Maximum function  tolerance     =   0.0000100
  Maximum gradient  tolerance     =   0.0010000

  Symmetry adapted optimisation

  Symmetry to be used for second derivatives

  Newton-Raphson optimiser to be used

  BFGS hessian update to be used

  Lower half triangular hessian to be used

  Start of defect optimisation :

  Cycle:      0 Defect Energy:   9.458182  Gnorm:     0.022832  CPU:    2.716
  ** Hessian calculated **
  Cycle:      1 Defect Energy:   6.996723  Gnorm:     0.008773  CPU:   11.422
  Cycle:      2 Defect Energy:   5.868168  Gnorm:     0.006080  CPU:   16.479
  Cycle:      3 Defect Energy:   5.690842  Gnorm:     0.005023  CPU:   20.469
  Cycle:      4 Defect Energy:   5.538152  Gnorm:     0.003802  CPU:   25.104
  Cycle:      5 Defect Energy:   5.481028  Gnorm:     0.002679  CPU:   26.111
  Cycle:      6 Defect Energy:   5.401168  Gnorm:     0.002235  CPU:   27.094
  Cycle:      7 Defect Energy:   5.289923  Gnorm:     0.002119  CPU:   28.080
  Cycle:      8 Defect Energy:   5.200024  Gnorm:     0.002500  CPU:   29.077
  Cycle:      9 Defect Energy:   5.134227  Gnorm:     0.002420  CPU:   30.079
  Cycle:     10 Defect Energy:   5.079547  Gnorm:     0.002254  CPU:   31.180
  ** Hessian calculated **
  Cycle:     11 Defect Energy:   5.064406  Gnorm:     0.001576  CPU:   33.755
  Cycle:     12 Defect Energy:   5.045066  Gnorm:     0.001433  CPU:   34.731
  Cycle:     13 Defect Energy:   5.020184  Gnorm:     0.001378  CPU:   35.777
  Cycle:     14 Defect Energy:   4.988413  Gnorm:     0.001319  CPU:   36.736
  Cycle:     15 Defect Energy:   4.964252  Gnorm:     0.001358  CPU:   37.644
  Cycle:     16 Defect Energy:   4.943487  Gnorm:     0.001236  CPU:   38.575
  Cycle:     17 Defect Energy:   4.923789  Gnorm:     0.001327  CPU:   39.633
  Cycle:     18 Defect Energy:   4.905153  Gnorm:     0.001280  CPU:   40.295
  Cycle:     19 Defect Energy:   4.887295  Gnorm:     0.001191  CPU:   43.107
  Cycle:     20 Defect Energy:   4.870177  Gnorm:     0.001197  CPU:   45.849
  ** Hessian calculated **
  Cycle:     21 Defect Energy:   4.856529  Gnorm:     0.001134  CPU:   48.692
  Cycle:     22 Defect Energy:   4.850001  Gnorm:     0.001089  CPU:   49.875
  ** Hessian calculated **
  Cycle:     23 Defect Energy:   4.804822  Gnorm:     0.000928  CPU:   52.626
  Cycle:     24 Defect Energy:   4.754009  Gnorm:     0.000631  CPU:   53.705
  ** Hessian calculated **
  Cycle:     25 Defect Energy:   4.736578  Gnorm:     0.000478  CPU:   56.488
  ** Hessian calculated **
  Cycle:     26 Defect Energy:   4.725253  Gnorm:     0.000337  CPU:   59.192
  Cycle:     27 Defect Energy:   4.719726  Gnorm:     0.000240  CPU:   60.215
  Cycle:     28 Defect Energy:   4.716927  Gnorm:     0.000168  CPU:   61.186
  Cycle:     29 Defect Energy:   4.715389  Gnorm:     0.000122  CPU:   62.150
  Cycle:     30 Defect Energy:   4.714385  Gnorm:     0.000083  CPU:   63.137
  Cycle:     31 Defect Energy:   4.713535  Gnorm:     0.000078  CPU:   64.185
  Cycle:     32 Defect Energy:   4.712637  Gnorm:     0.000055  CPU:   65.118
  Cycle:     33 Defect Energy:   4.712000  Gnorm:     0.000077  CPU:   66.054
  Cycle:     34 Defect Energy:   4.711489  Gnorm:     0.000070  CPU:   66.996
  Cycle:     35 Defect Energy:   4.711056  Gnorm:     0.000072  CPU:   68.024
  ** Hessian calculated **
  Cycle:     36 Defect Energy:   4.710440  Gnorm:     0.000052  CPU:   70.407
  Cycle:     37 Defect Energy:   4.710108  Gnorm:     0.000038  CPU:   71.301
  Cycle:     38 Defect Energy:   4.709929  Gnorm:     0.000027  CPU:   72.220
  Cycle:     39 Defect Energy:   4.709827  Gnorm:     0.000019  CPU:   73.219
  Cycle:     40 Defect Energy:   4.709766  Gnorm:     0.000013  CPU:   76.513
  Cycle:     41 Defect Energy:   4.709728  Gnorm:     0.000009  CPU:   78.450
  Cycle:     42 Defect Energy:   4.709704  Gnorm:     0.000006  CPU:   79.555
  Cycle:     43 Defect Energy:   4.709689  Gnorm:     0.000005  CPU:   80.687
  Cycle:     44 Defect Energy:   4.709678  Gnorm:     0.000003  CPU:   81.803


  **** Optimisation achieved ****


  Final defect energy  =        4.70967149
  Final defect Gnorm   =        0.00000224

  Components of defect energy : 

--------------------------------------------------------------------------------
  Region 1 - region 1                   =      4.06580457 eV
  Region 1 - region 2a (unrelaxed)      =      1.18624415 eV
  Region 1 - 2a (relaxed - correction)  =     -0.22395332 eV
  Region 1 (Total)                      =      5.02809540 eV
  Region 2a                             =      0.11196848 eV
  Region 2b                             =     -0.43039238 eV
--------------------------------------------------------------------------------
  Total defect energy                   =      4.70967149 eV
--------------------------------------------------------------------------------

  Largest displacement in region 2 =   0.0226 Angstroms

  Final coordinates of region 1 :

--------------------------------------------------------------------------------
   No.  Atomic        x           y           z          Radius      Charge
        Label       (Angs)      (Angs)      (Angs)       (Angs)       (e) 
--------------------------------------------------------------------------------
     1  Na    c     2.253894    0.811402    0.454427    0.000000    1.000000
     2  O     c     2.253894    2.215619    2.205913    0.000000    0.183000
     3  Na    c     4.471658    2.008937    2.154573    0.000000    1.000000
     4  Na    c     0.036129    2.008937    2.154573    0.000000    1.000000
     5  Cl    c     4.778725   -0.071344   -0.052868    0.000000    1.485000
     6  Cl    c    -0.270938   -0.071344   -0.052868    0.000000    1.485000
     7  O     c     2.253894   -2.323552    2.239971    0.000000    0.183000
     8  Na    c     2.253894    1.951688    4.425206    0.000000    1.000000
     9  Na    c     2.253894   -2.585864    0.034240    0.000000    1.000000
    10  Na    c     2.253894   -0.014023   -2.651630    0.000000    1.000000
    11  Na    c     2.253894    4.417386    1.877779    0.000000    1.000000
    12  Cl    c     4.648763   -0.001593    4.626355    0.000000    1.485000
    13  Cl    c    -0.140975   -0.001593    4.626355    0.000000    1.485000
    14  Na    c     4.432376   -1.815421    2.212928    0.000000    1.000000
    15  Na    c     0.075411   -1.815421    2.212928    0.000000    1.000000
    16  O     c     2.253894    2.156183   -2.184952    0.000000    0.183000
    17  Na    c     2.253894   -1.735096    4.415861    0.000000    1.000000
    18  Cl    c     4.638857    4.634663   -0.038101    0.000000    1.485000
    19  Cl    c    -0.131070    4.634663   -0.038101    0.000000    1.485000
    20  Na    c     4.471523    2.185552   -1.841470    0.000000    1.000000
    21  Na    c     0.036265    2.185552   -1.841470    0.000000    1.000000
    22  Na    c    -2.537891   -0.000084    2.236598    0.000000    1.000000
    23  Na    c     7.045678   -0.000084    2.236598    0.000000    1.000000
    24  O     c     2.253894   -2.253131   -2.241165    0.000000    0.183000
    25  O     c    -2.255005    2.258261    2.260827    0.000000    0.183000
    26  O     c     6.762793    2.258261    2.260827    0.000000    0.183000
    27  Na    c    -2.507732    2.246850    0.012805    0.000000    1.000000
    28  Na    c     7.015519    2.246850    0.012805    0.000000    1.000000
    29  Na    c     2.253894    4.389675   -1.715334    0.000000    1.000000
    30  Cl    c     4.609056    4.576074    4.588385    0.000000    1.485000
    31  Cl    c    -0.101269    4.576074    4.588385    0.000000    1.485000
    32  Na    c     4.506793   -2.118041   -2.158405    0.000000    1.000000
    33  Na    c     0.000994   -2.118041   -2.158405    0.000000    1.000000
    34  Na    c     2.253894   -0.018947    7.096453    0.000000    1.000000
    35  Na    c     2.253894   -4.508249    2.634731    0.000000    1.000000
    36  O     c     2.253894    2.203381    6.751848    0.000000    0.183000
    37  O     c    -2.218331   -2.255312    2.260343    0.000000    0.183000
    38  O     c     6.726118   -2.255312    2.260343    0.000000    0.183000
    39  Na    c    -2.068236    2.272760    4.509220    0.000000    1.000000
    40  Na    c     6.576024    2.272760    4.509220    0.000000    1.000000
    41  Na    c    -2.288034   -2.298810    0.003969    0.000000    1.000000
    42  Na    c     6.795821   -2.298810    0.003969    0.000000    1.000000
    43  Na    c    -2.394966   -0.006094   -2.162649    0.000000    1.000000
    44  Na    c     6.902753   -0.006094   -2.162649    0.000000    1.000000
    45  Na    c    -1.969767    4.497059    2.175506    0.000000    1.000000
    46  Na    c     6.477554    4.497059    2.175506    0.000000    1.000000
    47  Cl    c     4.532470   -4.588432   -0.120824    0.000000    1.485000
    48  Cl    c    -0.024683   -4.588432   -0.120824    0.000000    1.485000
    49  Na    c     4.503648    2.138565    6.778936    0.000000    1.000000
    50  Na    c     0.004139    2.138565    6.778936    0.000000    1.000000
    51  O     c     2.253894    6.742437    2.226505    0.000000    0.183000
    52  O     c     6.747009    2.250897   -2.239733    0.000000    0.183000
    53  O     c    -2.239222    2.250897   -2.239733    0.000000    0.183000
    54  Na    c     2.253894    2.559114   -4.429473    0.000000    1.000000
    55  Na    c     2.253894    7.083304    0.001091    0.000000    1.000000
    56  O     c     2.253894   -2.233681    6.708560    0.000000    0.183000
    57  Na    c    -2.164301   -2.206632    4.503430    0.000000    1.000000
    58  Na    c     6.672088   -2.206632    4.503430    0.000000    1.000000
    59  Cl    c     4.498463   -0.101174   -4.566228    0.000000    1.485000
    60  Cl    c     0.009324   -0.101174   -4.566228    0.000000    1.485000
    61  Na    c     4.504834    6.836001    2.230804    0.000000    1.000000
    62  Na    c     0.002953    6.836001    2.230804    0.000000    1.000000
    63  Na    c     2.253894    4.454336    6.662060    0.000000    1.000000
    64  Na    c     2.253894   -4.519645   -2.376564    0.000000    1.000000
    65  Cl    c     4.579658   -4.611370    4.593928    0.000000    1.485000
    66  Cl    c    -0.071870   -4.611370    4.593928    0.000000    1.485000
    67  Na    c     4.507054   -2.207635    6.723666    0.000000    1.000000
    68  Na    c     0.000733   -2.207635    6.723666    0.000000    1.000000
    69  O     c     6.762604   -2.269815   -2.265992    0.000000    0.183000
    70  O     c    -2.254816   -2.269815   -2.265992    0.000000    0.183000
    71  Na    c     2.253894    6.435746    4.451835    0.000000    1.000000
    72  Na    c     2.253894   -2.434737   -4.512183    0.000000    1.000000
    73  Na    c     6.664010    4.501961   -2.221120    0.000000    1.000000
    74  Na    c    -2.156223    4.501961   -2.221120    0.000000    1.000000
    75  Cl    c     9.033951   -0.017215   -0.016307    0.000000    1.485000
    76  Cl    c    -4.526164   -0.017215   -0.016307    0.000000    1.485000
    77  Na    c     8.998291    2.560065    2.490308    0.000000    1.000000
    78  Na    c    -4.490504    2.560065    2.490308    0.000000    1.000000
    79  O     c     2.253894    6.691008   -2.223885    0.000000    0.183000
    80  Na    c    -2.351368   -0.001411    6.720939    0.000000    1.000000
    81  Na    c     6.859156   -0.001411    6.720939    0.000000    1.000000
    82  Na    c    -1.827595   -4.479739    2.296132    0.000000    1.000000
    83  Na    c     6.335382   -4.479739    2.296132    0.000000    1.000000
    84  O     c     6.763473    2.256686    6.763713    0.000000    0.183000
    85  O     c    -2.255685    2.256686    6.763713    0.000000    0.183000
    86  Cl    c     4.556904    4.539519   -4.590802    0.000000    1.485000
    87  Cl    c    -0.049117    4.539519   -4.590802    0.000000    1.485000
    88  Na    c     4.501031    6.694705   -2.217346    0.000000    1.000000
    89  Na    c     0.006756    6.694705   -2.217346    0.000000    1.000000
    90  Cl    c     9.043181    0.007714    4.525222    0.000000    1.485000
    91  Cl    c    -4.535394    0.007714    4.525222    0.000000    1.485000
    92  Na    c     8.975920   -2.595533    2.325281    0.000000    1.000000
    93  Na    c    -4.468133   -2.595533    2.325281    0.000000    1.000000
    94  O     c     6.765147    6.744108    2.259078    0.000000    0.183000
    95  O     c    -2.257360    6.744108    2.259078    0.000000    0.183000
    96  Na    c     2.253894   -4.484462    6.387854    0.000000    1.000000
    97  Na    c     6.764630    6.806935   -0.002709    0.000000    1.000000
    98  Na    c    -2.256843    6.806935   -0.002709    0.000000    1.000000
    99  Na    c    -1.919702    2.190586   -4.476688    0.000000    1.000000
   100  Na    c     6.427490    2.190586   -4.476688    0.000000    1.000000
   101  O     c     2.253894   -6.780298    2.264698    0.000000    0.183000
   102  O     c     6.770906   -2.261950    6.759058    0.000000    0.183000
   103  O     c    -2.263119   -2.261950    6.759058    0.000000    0.183000
   104  Na    c     2.253894    2.444732    9.013245    0.000000    1.000000
   105  Na    c     2.253894   -6.485860    0.023898    0.000000    1.000000
   106  Na    c     8.987808    2.373166   -2.552372    0.000000    1.000000
   107  Na    c    -4.480021    2.373166   -2.552372    0.000000    1.000000
   108  Cl    c     9.053283    4.505281    0.005702    0.000000    1.485000
   109  Cl    c    -4.545496    4.505281    0.005702    0.000000    1.485000
   110  Na    c     6.619364    4.504967    6.844144    0.000000    1.000000
   111  Na    c    -2.111577    4.504967    6.844144    0.000000    1.000000
   112  Na    c     6.540357   -4.509029   -2.356830    0.000000    1.000000
   113  Na    c    -2.032570   -4.509029   -2.356830    0.000000    1.000000
   114  Cl    c     4.514637   -0.000342    9.034773    0.000000    1.485000
   115  Cl    c    -0.006849   -0.000342    9.034773    0.000000    1.485000
   116  Na    c     4.497876   -6.920967    2.194104    0.000000    1.000000
   117  Na    c     0.009912   -6.920967    2.194104    0.000000    1.000000
   118  O     c     2.253894    6.727527    6.707451    0.000000    0.183000
   119  Na    c     6.795350    6.604150    4.513007    0.000000    1.000000
   120  Na    c    -2.287563    6.604150    4.513007    0.000000    1.000000
   121  Na    c    -2.167633   -2.128632   -4.509842    0.000000    1.000000
   122  Na    c     6.675420   -2.128632   -4.509842    0.000000    1.000000
   123  Na    c     2.253894   -2.538805    8.976489    0.000000    1.000000
   124  Na    c     2.253894   -7.052567    4.507401    0.000000    1.000000
   125  Na    c     2.253894    0.005081   -6.526220    0.000000    1.000000
   126  Na    c     2.253894    9.002429    2.536007    0.000000    1.000000
   127  Cl    c     9.068429    4.554679    4.544716    0.000000    1.485000
   128  Cl    c    -4.560642    4.554679    4.544716    0.000000    1.485000
   129  Na    c     4.506275    6.801298    6.679247    0.000000    1.000000
   130  Na    c     0.001512    6.801298    6.679247    0.000000    1.000000
   131  Na    c     9.002587   -2.455679   -2.335301    0.000000    1.000000
   132  Na    c    -4.494800   -2.455679   -2.335301    0.000000    1.000000
   133  Cl    c     4.472338   -4.529748   -4.538913    0.000000    1.485000
   134  Cl    c     0.035450   -4.529748   -4.538913    0.000000    1.485000
   135  O     c     2.253894    2.257662   -6.733627    0.000000    0.183000
   136  O     c     6.764850    6.760337   -2.265140    0.000000    0.183000
   137  O     c    -2.257063    6.760337   -2.265140    0.000000    0.183000
   138  Na    c     2.253894    6.419014   -4.477748    0.000000    1.000000
   139  O     c     2.253894   -6.770526   -2.233137    0.000000    0.183000
   140  Cl    c     4.518227    9.025546   -0.005882    0.000000    1.485000
   141  Cl    c    -0.010440    9.025546   -0.005882    0.000000    1.485000
   142  Na    c     4.492349    2.236701   -6.845838    0.000000    1.000000
   143  Na    c     0.015438    2.236701   -6.845838    0.000000    1.000000
   144  Cl    c     4.484808    4.495705    9.039083    0.000000    1.485000
   145  Cl    c     0.022979    4.495705    9.039083    0.000000    1.485000
   146  Na    c     4.504930   -6.834720   -2.135735    0.000000    1.000000
   147  Na    c     0.002857   -6.834720   -2.135735    0.000000    1.000000
   148  Na    c     9.012086    2.369404    6.623161    0.000000    1.000000
   149  Na    c    -4.504299    2.369404    6.623161    0.000000    1.000000
   150  Cl    c     9.078548   -4.518391   -0.016372    0.000000    1.485000
   151  Cl    c    -4.570761   -4.518391   -0.016372    0.000000    1.485000
   152  O     c     2.253894   -2.257621   -6.759704    0.000000    0.183000
   153  Na    c     6.722393   -4.511343    6.723960    0.000000    1.000000
   154  Na    c    -2.214606   -4.511343    6.723960    0.000000    1.000000
   155  O     c     6.743098   -6.724860    2.245516    0.000000    0.183000
   156  O     c    -2.235311   -6.724860    2.245516    0.000000    0.183000
   157  Na    c     6.823846    2.194022    9.009952    0.000000    1.000000
   158  Na    c    -2.316059    2.194022    9.009952    0.000000    1.000000
   159  Na    c     6.902905   -6.622714   -0.005244    0.000000    1.000000
   160  Na    c    -2.395118   -6.622714   -0.005244    0.000000    1.000000
   161  Na    c     2.253894    4.491772   -6.947919    0.000000    1.000000
   162  Na    c     2.253894    8.964393   -2.486258    0.000000    1.000000
   163  Cl    c     4.499715    9.053546    4.511187    0.000000    1.485000
   164  Cl    c     0.008072    9.053546    4.511187    0.000000    1.485000
   165  Na    c     4.505770   -2.208712   -6.771336    0.000000    1.000000
   166  Na    c     0.002017   -2.208712   -6.771336    0.000000    1.000000
   167  Cl    c     9.031835   -0.016939   -4.511916    0.000000    1.485000
   168  Cl    c    -4.524048   -0.016939   -4.511916    0.000000    1.485000
   169  Na    c     9.016938    6.581715    2.233529    0.000000    1.000000
   170  Na    c    -4.509151    6.581715    2.233529    0.000000    1.000000
   171  Na    c    10.952625   -0.003421    2.261977    0.000000    1.000000
   172  Na    c    -6.444837   -0.003421    2.261977    0.000000    1.000000
   173  Cl    c     9.065849   -4.519262    4.558132    0.000000    1.485000
   174  Cl    c    -4.558062   -4.519262    4.558132    0.000000    1.485000
   175  Na    c     9.017529   -2.336592    6.721380    0.000000    1.000000
   176  Na    c    -4.509741   -2.336592    6.721380    0.000000    1.000000
   177  O     c     6.764068    6.761151    6.770402    0.000000    0.183000
   178  O     c    -2.256281    6.761151    6.770402    0.000000    0.183000
   179  O     c    11.235288    2.247661    2.249352    0.000000    0.183000
   180  O     c    -6.727501    2.247661    2.249352    0.000000    0.183000
   181  Na    c    10.996375    2.223818   -0.007323    0.000000    1.000000
   182  Na    c    -6.488588    2.223818   -0.007323    0.000000    1.000000
   183  O     c     2.253894   -6.752945    6.744434    0.000000    0.183000
   184  Na    c     6.773051   -2.251909    9.009910    0.000000    1.000000
   185  Na    c    -2.265263   -2.251909    9.009910    0.000000    1.000000
   186  Na    c     6.686874   -6.762305    4.507225    0.000000    1.000000
   187  Na    c    -2.179087   -6.762305    4.507225    0.000000    1.000000
   188  Na    c     6.826092    0.003062   -6.824021    0.000000    1.000000
   189  Na    c    -2.318305    0.003062   -6.824021    0.000000    1.000000
   190  Na    c    -2.358326    8.995908    2.355090    0.000000    1.000000
   191  Na    c     6.866113    8.995908    2.355090    0.000000    1.000000
   192  O     c    -2.233761    2.245758   -6.737892    0.000000    0.183000
   193  O     c     6.741548    2.245758   -6.737892    0.000000    0.183000
   194  Cl    c     4.512841   -4.514245    9.063105    0.000000    1.485000
   195  Cl    c    -0.005054   -4.514245    9.063105    0.000000    1.485000
   196  Na    c     4.502404   -6.717701    6.772138    0.000000    1.000000
   197  Na    c     0.005383   -6.717701    6.772138    0.000000    1.000000
   198  Na    c     6.749564    6.756435   -4.509734    0.000000    1.000000
   199  Na    c    -2.241777    6.756435   -4.509734    0.000000    1.000000
   200  O     c     6.760806   -6.759097   -2.262741    0.000000    0.183000
   201  O     c    -2.253018   -6.759097   -2.262741    0.000000    0.183000
   202  O     c    11.233943   -2.253199    2.249781    0.000000    0.183000
   203  O     c    -6.726156   -2.253199    2.249781    0.000000    0.183000
   204  Na    c     2.253894    6.728179    8.979434    0.000000    1.000000
   205  Na    c    11.411153    2.184233    4.494621    0.000000    1.000000
   206  Na    c    -6.903366    2.184233    4.494621    0.000000    1.000000
   207  Na    c     2.253894   -6.804759   -4.499541    0.000000    1.000000
   208  Na    c    11.161747   -2.196673   -0.002348    0.000000    1.000000
   209  Na    c    -6.653960   -2.196673   -0.002348    0.000000    1.000000
   210  Cl    c     9.067004    4.535764   -4.527463    0.000000    1.485000
   211  Cl    c    -4.559216    4.535764   -4.527463    0.000000    1.485000
   212  Na    c     9.015685    6.715256   -2.288404    0.000000    1.000000
   213  Na    c    -4.507897    6.715256   -2.288404    0.000000    1.000000
   214  Na    c     2.253894    8.990861    6.604889    0.000000    1.000000
   215  Na    c     2.253894   -4.510540   -6.826934    0.000000    1.000000
   216  Na    c    11.115885   -0.010267   -2.305060    0.000000    1.000000
   217  Na    c    -6.608098   -0.010267   -2.305060    0.000000    1.000000
   218  Na    c    11.454494    4.494530    2.219897    0.000000    1.000000
   219  Na    c    -6.946707    4.494530    2.219897    0.000000    1.000000
   220  O     c    -2.255764   -2.249925   -6.763841    0.000000    0.183000
   221  O     c     6.763552   -2.249925   -6.763841    0.000000    0.183000
   222  O     c    11.240888    2.248576   -2.263471    0.000000    0.183000
   223  O     c    -6.733101    2.248576   -2.263471    0.000000    0.183000
   224  Na    c     2.253894   -0.009486   11.151655    0.000000    1.000000
   225  Na    c     2.253894   -9.032388    2.089694    0.000000    1.000000
   226  O     c     2.253894    2.260327   11.260714    0.000000    0.183000
   227  Na    c    11.289440   -2.220508    4.503612    0.000000    1.000000
   228  Na    c    -6.781653   -2.220508    4.503612    0.000000    1.000000
   229  Na    c     6.743698    4.504132   -6.695338    0.000000    1.000000
   230  Na    c    -2.235911    4.504132   -6.695338    0.000000    1.000000
   231  Na    c    -2.248878    9.010466   -2.289394    0.000000    1.000000
   232  Na    c     6.756665    9.010466   -2.289394    0.000000    1.000000
   233  O     c     2.253894    6.729655   -6.749919    0.000000    0.183000
   234  Cl    c     4.481455   -9.077855    0.004940    0.000000    1.485000
   235  Cl    c     0.026332   -9.077855    0.004940    0.000000    1.485000
   236  Cl    c     9.024490   -0.006678    9.046385    0.000000    1.485000
   237  Cl    c    -4.516703   -0.006678    9.046385    0.000000    1.485000
   238  Na    c     4.509399    2.231381   11.245984    0.000000    1.000000
   239  Na    c    -0.001612    2.231381   11.245984    0.000000    1.000000
   240  Na    c     9.003237   -6.557491    2.352408    0.000000    1.000000
   241  Na    c    -4.495449   -6.557491    2.352408    0.000000    1.000000
   242  O     c    11.261916   -2.266723   -2.255094    0.000000    0.183000
   243  O     c    -6.754128   -2.266723   -2.255094    0.000000    0.183000
   244  O     c     2.253894   -2.277211   11.248049    0.000000    0.183000
   245  O     c     6.760850   -6.766066    6.766897    0.000000    0.183000
   246  O     c    -2.253063   -6.766066    6.766897    0.000000    0.183000
   247  Cl    c     4.516357    9.049018   -4.514525    0.000000    1.485000
   248  Cl    c    -0.008570    9.049018   -4.514525    0.000000    1.485000
   249  Na    c     4.505360    6.760397   -6.723811    0.000000    1.000000
   250  Na    c     0.002427    6.760397   -6.723811    0.000000    1.000000
   251  Na    c    11.321942    4.504557   -2.198278    0.000000    1.000000
   252  Na    c    -6.814155    4.504557   -2.198278    0.000000    1.000000
   253  Cl    c     9.054505   -4.524190   -4.534160    0.000000    1.485000
   254  Cl    c    -4.546718   -4.524190   -4.534160    0.000000    1.485000
   255  Na    c     9.013135    6.683771    6.807048    0.000000    1.000000
   256  Na    c    -4.505348    6.683771    6.807048    0.000000    1.000000
   257  O     c     2.253894   11.252594    2.266964    0.000000    0.183000
   258  Na    c     2.253894    4.512714   11.314614    0.000000    1.000000
   259  Na    c     2.253894   -9.014918   -2.148820    0.000000    1.000000
   260  Na    c    11.181129    0.004407    6.814359    0.000000    1.000000
   261  Na    c    -6.673342    0.004407    6.814359    0.000000    1.000000
   262  Na    c    11.461442   -4.496471    2.206324    0.000000    1.000000
   263  Na    c    -6.953654   -4.496471    2.206324    0.000000    1.000000
   264  Cl    c     4.520191   -9.028712    4.491332    0.000000    1.485000
[...]
    236 y          4.507787      4.589665     0.081877    Cartesian    1.82
    236 z          4.507787      4.598239     0.090452    Cartesian    2.01
    237 x          2.253894      2.253894     0.000000    Cartesian    0.00
    237 y          2.253894      2.203365    -0.050529    Cartesian   -2.24
    237 z          6.761681      6.751975    -0.009705    Cartesian   -0.14
    238 x         -2.253894     -2.218384     0.035510    Cartesian   -1.58
    238 y         -2.253894     -2.255330    -0.001437    Cartesian    0.06
    238 z          2.253894      2.260367     0.006474    Cartesian    0.29
    239 x          4.507787      4.533552     0.025765    Cartesian    0.57
    239 y         -4.507787     -4.597751    -0.089964    Cartesian    2.00
    239 z         -0.000000     -0.130806    -0.130806    Cartesian *******
    240 x          2.253894      2.253894     0.000000    Cartesian    0.00
    240 y          6.761681      6.742549    -0.019132    Cartesian   -0.28
    240 z          2.253894      2.226521    -0.027373    Cartesian   -1.21
    241 x          6.761681      6.747064    -0.014617    Cartesian   -0.22
    241 y          2.253894      2.250913    -0.002981    Cartesian   -0.13
    241 z         -2.253894     -2.239721     0.014172    Cartesian   -0.63
    242 x          2.253894      2.253894     0.000000    Cartesian    0.00
    242 y         -2.253894     -2.233627     0.020266    Cartesian   -0.90
    242 z          6.761681      6.708647    -0.053034    Cartesian   -0.78
    243 x          4.507787      4.495798    -0.011990    Cartesian   -0.27
    243 y          0.000000     -0.110453    -0.110453    Cartesian    0.00
    243 z         -4.507787     -4.570553    -0.062766    Cartesian    1.39
    244 x          4.507787      4.588556     0.080769    Cartesian    1.79
    244 y         -4.507787     -4.621111    -0.113324    Cartesian    2.51
    244 z          4.507787      4.598746     0.090959    Cartesian    2.02
    245 x          6.761681      6.762596     0.000915    Cartesian    0.01
    245 y         -2.253894     -2.269824    -0.015931    Cartesian    0.71
    245 z         -2.253894     -2.266010    -0.012116    Cartesian    0.54
    246 x          9.015574      9.037037     0.021462    Cartesian    0.24
    246 y          0.000000     -0.011577    -0.011577    Cartesian    0.00
    246 z         -0.000000     -0.012339    -0.012339    Cartesian *******
    247 x          2.253894      2.253894     0.000000    Cartesian    0.00
    247 y          6.761681      6.691108    -0.070573    Cartesian   -1.04
    247 z         -2.253894     -2.223851     0.030042    Cartesian   -1.33
    248 x          6.761681      6.763451     0.001770    Cartesian    0.03
    248 y          2.253894      2.256684     0.002790    Cartesian    0.12
    248 z          6.761681      6.763717     0.002036    Cartesian    0.03
    249 x          4.507787      4.560310     0.052523    Cartesian    1.17
    249 y          4.507787      4.543428     0.035641    Cartesian    0.79
    249 z         -4.507787     -4.600025    -0.092238    Cartesian    2.05
    250 x          9.015574      9.047134     0.031559    Cartesian    0.35
    250 y          0.000000      0.008077     0.008077    Cartesian    0.00
    250 z          4.507787      4.521381     0.013594    Cartesian    0.30
    251 x          6.761681      6.765127     0.003446    Cartesian    0.05
    251 y          6.761681      6.744098    -0.017583    Cartesian   -0.26
    251 z          2.253894      2.259076     0.005183    Cartesian    0.23
    252 x          2.253894      2.253894     0.000000    Cartesian    0.00
    252 y         -6.761681     -6.780399    -0.018718    Cartesian    0.28
    252 z          2.253894      2.264699     0.010805    Cartesian    0.48
    253 x          6.761681      6.770917     0.009236    Cartesian    0.14
    253 y         -2.253894     -2.261959    -0.008066    Cartesian    0.36
    253 z          6.761681      6.759042    -0.002638    Cartesian   -0.04
    254 x          9.015574      9.057878     0.042303    Cartesian    0.47
    254 y          4.507787      4.500845    -0.006942    Cartesian   -0.15
    254 z         -0.000000      0.009021     0.009021    Cartesian *******
    255 x          4.507787      4.509834     0.002046    Cartesian    0.05
    255 y          0.000000      0.001621     0.001621    Cartesian    0.00
    255 z          9.015574      9.033452     0.017878    Cartesian    0.20
    256 x          2.253894      2.253894     0.000000    Cartesian    0.00
    256 y          6.761681      6.727516    -0.034165    Cartesian   -0.51
    256 z          6.761681      6.707423    -0.054258    Cartesian   -0.80
    257 x          9.015574      9.071833     0.056258    Cartesian    0.62
    257 y          4.507787      4.552407     0.044620    Cartesian    0.99
    257 z          4.507787      4.540900     0.033113    Cartesian    0.73
    258 x          4.507787      4.470732    -0.037055    Cartesian   -0.82
    258 y         -4.507787     -4.529390    -0.021603    Cartesian    0.48
    258 z         -4.507787     -4.537574    -0.029787    Cartesian    0.66
    259 x          2.253894      2.253894     0.000000    Cartesian    0.00
    259 y          2.253894      2.257696     0.003803    Cartesian    0.17
    259 z         -6.761681     -6.733722     0.027959    Cartesian   -0.41
    260 x          6.761681      6.764846     0.003165    Cartesian    0.05
    260 y          6.761681      6.760339    -0.001342    Cartesian   -0.02
    260 z         -2.253894     -2.265157    -0.011263    Cartesian    0.50
    261 x          2.253894      2.253894     0.000000    Cartesian    0.00
    261 y         -6.761681     -6.770521    -0.008841    Cartesian    0.13
    261 z         -2.253894     -2.233126     0.020768    Cartesian   -0.92
    262 x          4.507787      4.514211     0.006424    Cartesian    0.14
    262 y          9.015574      9.024373     0.008798    Cartesian    0.10
    262 z         -0.000000     -0.005595    -0.005595    Cartesian *******
    263 x          4.507787      4.482645    -0.025142    Cartesian   -0.56
    263 y          4.507787      4.492983    -0.014804    Cartesian   -0.33
    263 z          9.015574      9.041337     0.025763    Cartesian    0.29
    264 x          9.015574      9.083407     0.067833    Cartesian    0.75
    264 y         -4.507787     -4.519634    -0.011847    Cartesian    0.26
    264 z         -0.000000     -0.015760    -0.015760    Cartesian *******
    265 x          2.253894      2.253894     0.000000    Cartesian    0.00
    265 y         -2.253894     -2.257645    -0.003752    Cartesian    0.17
    265 z         -6.761681     -6.759688     0.001993    Cartesian   -0.03
    266 x          6.761681      6.743053    -0.018628    Cartesian   -0.28
    266 y         -6.761681     -6.724876     0.036805    Cartesian   -0.54
    266 z          2.253894      2.245526    -0.008368    Cartesian   -0.37
    267 x          4.507787      4.493631    -0.014156    Cartesian   -0.31
    267 y          9.015574      9.057767     0.042192    Cartesian    0.47
    267 z          4.507787      4.510944     0.003156    Cartesian    0.07
    268 x          9.015574      9.035497     0.019922    Cartesian    0.22
    268 y          0.000000     -0.016598    -0.016598    Cartesian    0.00
    268 z         -4.507787     -4.509905    -0.002118    Cartesian    0.05
    269 x          9.015574      9.071416     0.055842    Cartesian    0.62
    269 y         -4.507787     -4.518188    -0.010400    Cartesian    0.23
    269 z          4.507787      4.556691     0.048904    Cartesian    1.08
    270 x          6.761681      6.764068     0.002387    Cartesian    0.04
    270 y          6.761681      6.761147    -0.000534    Cartesian   -0.01
    270 z          6.761681      6.770413     0.008732    Cartesian    0.13
    271 x         11.269468     11.235273    -0.034195    Cartesian   -0.30
    271 y          2.253894      2.247689    -0.006204    Cartesian   -0.28
    271 z          2.253894      2.249392    -0.004502    Cartesian   -0.20
    272 x          2.253894      2.253894     0.000000    Cartesian    0.00
    272 y         -6.761681     -6.753007     0.008674    Cartesian   -0.13
    272 z          6.761681      6.744411    -0.017270    Cartesian   -0.26
    273 x         -2.253894     -2.233721     0.020172    Cartesian   -0.90
    273 y          2.253894      2.245744    -0.008149    Cartesian   -0.36
    273 z         -6.761681     -6.737922     0.023759    Cartesian   -0.35
    274 x          4.507787      4.508867     0.001080    Cartesian    0.02
    274 y         -4.507787     -4.514378    -0.006591    Cartesian    0.15
    274 z          9.015574      9.068603     0.053029    Cartesian    0.59
    275 x          6.761681      6.760797    -0.000884    Cartesian   -0.01
    275 y         -6.761681     -6.759101     0.002580    Cartesian   -0.04
    275 z         -2.253894     -2.262763    -0.008870    Cartesian    0.39
    276 x         11.269468     11.233950    -0.035518    Cartesian   -0.32
    276 y         -2.253894     -2.253228     0.000666    Cartesian   -0.03
    276 z          2.253894      2.249781    -0.004112    Cartesian   -0.18
    277 x          9.015574      9.071365     0.055790    Cartesian    0.62
    277 y          4.507787      4.531959     0.024172    Cartesian    0.54
    277 z         -4.507787     -4.526016    -0.018229    Cartesian    0.40
    278 x         -2.253894     -2.255769    -0.001875    Cartesian    0.08
    278 y         -2.253894     -2.249909     0.003985    Cartesian   -0.18
    278 z         -6.761681     -6.763845    -0.002165    Cartesian    0.03
    279 x         11.269468     11.240884    -0.028584    Cartesian   -0.25
    279 y          2.253894      2.248591    -0.005303    Cartesian   -0.24
    279 z         -2.253894     -2.263516    -0.009623    Cartesian    0.43
    280 x          2.253894      2.253894     0.000000    Cartesian    0.00
    280 y          2.253894      2.260373     0.006480    Cartesian    0.29
    280 z         11.269468     11.260692    -0.008776    Cartesian   -0.08
    281 x          2.253894      2.253894     0.000000    Cartesian    0.00
    281 y          6.761681      6.729605    -0.032076    Cartesian   -0.47
    281 z         -6.761681     -6.749969     0.011712    Cartesian   -0.17
    282 x          4.507787      4.474173    -0.033614    Cartesian   -0.75
    282 y         -9.015574     -9.081587    -0.066013    Cartesian    0.73
    282 z         -0.000000      0.006440     0.006440    Cartesian *******
    283 x          9.015574      9.025089     0.009514    Cartesian    0.11
    283 y          0.000000     -0.006258    -0.006258    Cartesian    0.00
    283 z          9.015574      9.049375     0.033801    Cartesian    0.37
    284 x         11.269468     11.261904    -0.007564    Cartesian   -0.07
    284 y         -2.253894     -2.266756    -0.012862    Cartesian    0.57
    284 z         -2.253894     -2.255107    -0.001214    Cartesian    0.05
    285 x          2.253894      2.253894     0.000000    Cartesian    0.00
    285 y         -2.253894     -2.277272    -0.023378    Cartesian    1.04
    285 z         11.269468     11.248063    -0.021405    Cartesian   -0.19
    286 x          6.761681      6.760843    -0.000837    Cartesian   -0.01
    286 y         -6.761681     -6.766058    -0.004377    Cartesian    0.06
    286 z          6.761681      6.766903     0.005223    Cartesian    0.08
    287 x          4.507787      4.515127     0.007339    Cartesian    0.16
    287 y          9.015574      9.054231     0.038656    Cartesian    0.43
    287 z         -4.507787     -4.514064    -0.006277    Cartesian    0.14
    288 x          9.015574      9.059393     0.043819    Cartesian    0.49
    288 y         -4.507787     -4.524086    -0.016299    Cartesian    0.36
    288 z         -4.507787     -4.532742    -0.024955    Cartesian    0.55
    289 x          2.253894      2.253894     0.000000    Cartesian    0.00
    289 y         11.269468     11.252581    -0.016887    Cartesian   -0.15
    289 z          2.253894      2.267010     0.013117    Cartesian    0.58
    290 x          4.507787      4.518683     0.010896    Cartesian    0.24
    290 y         -9.015574     -9.024018    -0.008443    Cartesian    0.09
    290 z          4.507787      4.489556    -0.018231    Cartesian   -0.40
    291 x         11.269468     11.273138     0.003670    Cartesian    0.03
    291 y          2.253894      2.258182     0.004289    Cartesian    0.19
    291 z          6.761681      6.742925    -0.018755    Cartesian   -0.28
    292 x          9.015574      9.044459     0.028885    Cartesian    0.32
    292 y          9.015574      9.038594     0.023019    Cartesian    0.26
    292 z         -0.000000     -0.010217    -0.010217    Cartesian *******
    293 x          4.507787      4.483681    -0.024107    Cartesian   -0.53
    293 y          0.000000      0.012893     0.012893    Cartesian    0.00
    293 z         -9.015574     -9.053743    -0.038168    Cartesian    0.42
    294 x          9.015574      9.049268     0.033693    Cartesian    0.37
    294 y          4.507787      4.507046    -0.000741    Cartesian   -0.02
    294 z          9.015574      9.037586     0.022012    Cartesian    0.24
    295 x         11.269468     11.276697     0.007229    Cartesian    0.06
    295 y          6.761681      6.749685    -0.011995    Cartesian   -0.18
    295 z          2.253894      2.247341    -0.006552    Cartesian   -0.29
    296 x         -2.253894     -2.260035    -0.006141    Cartesian    0.27
    296 y          2.253894      2.245941    -0.007953    Cartesian   -0.35
    296 z         11.269468     11.267722    -0.001746    Cartesian   -0.02
    297 x         11.269468     11.271487     0.002019    Cartesian    0.02
    297 y         -2.253894     -2.252183     0.001711    Cartesian   -0.08
    297 z          6.761681      6.761729     0.000048    Cartesian    0.00
    298 x          9.015574      9.027141     0.011567    Cartesian    0.13
    298 y          9.015574      9.060403     0.044828    Cartesian    0.50
    298 z          4.507787      4.523126     0.015339    Cartesian    0.34
    299 x          6.761681      6.765328     0.003647    Cartesian    0.05
    299 y          6.761681      6.766083     0.004402    Cartesian    0.07
    299 z         -6.761681     -6.763907    -0.002226    Cartesian    0.03
    300 x          2.253894      2.253894     0.000000    Cartesian    0.00
    300 y         11.269468     11.238329    -0.031139    Cartesian   -0.28
    300 z         -2.253894     -2.265145    -0.011252    Cartesian    0.50
    301 x          2.253894      2.253894     0.000000    Cartesian    0.00
    301 y         -6.761681     -6.766025    -0.004344    Cartesian    0.06
    301 z         -6.761681     -6.768059    -0.006378    Cartesian    0.09
    302 x         -2.253894     -2.256901    -0.003008    Cartesian    0.13
    302 y         -2.253894     -2.254645    -0.000751    Cartesian    0.03
    302 z         11.269468     11.272778     0.003310    Cartesian    0.03
    303 x          4.507787      4.489941    -0.017846    Cartesian   -0.40
    303 y          4.507787      4.498739    -0.009048    Cartesian   -0.20
    303 z         -9.015574     -9.036356    -0.020782    Cartesian    0.23
    304 x          4.507787      4.538610     0.030823    Cartesian    0.68
    304 y          9.015574      9.024539     0.008964    Cartesian    0.10
    304 z          9.015574      9.048849     0.033275    Cartesian    0.37
    305 x         13.523362     13.646335     0.122974    Cartesian    0.91
    305 y          0.000000      0.009088     0.009088    Cartesian    0.00
    305 z         -0.000000      0.013460     0.013460    Cartesian *******
    306 x         11.269468     11.275905     0.006437    Cartesian    0.06
    306 y          6.761681      6.762448     0.000767    Cartesian    0.01
    306 z         -2.253894     -2.253418     0.000475    Cartesian   -0.02
    307 x          6.761681      6.768066     0.006386    Cartesian    0.09
    307 y         11.269468     11.262080    -0.007388    Cartesian   -0.07
    307 z          2.253894      2.257101     0.003208    Cartesian    0.14
    308 x          9.015574      9.036192     0.020618    Cartesian    0.23
    308 y         -4.507787     -4.517324    -0.009537    Cartesian    0.21
    308 z          9.015574      9.040614     0.025040    Cartesian    0.28
    309 x          2.253894      2.253894     0.000000    Cartesian    0.00
    309 y          6.761681      6.762414     0.000733    Cartesian    0.01
    309 z         11.269468     11.263992    -0.005476    Cartesian   -0.05
    310 x         13.523362     13.567923     0.044562    Cartesian    0.33
    310 y          0.000000      0.006241     0.006241    Cartesian    0.00
    310 z          4.507787      4.487963    -0.019824    Cartesian   -0.44
    311 x          4.507787      4.534403     0.026616    Cartesian    0.59
    311 y         -9.015574     -9.029860    -0.014285    Cartesian    0.16
    311 z         -4.507787     -4.542541    -0.034754    Cartesian    0.77
    312 x          2.253894      2.253894     0.000000    Cartesian    0.00
    312 y         11.269468     11.262831    -0.006637    Cartesian   -0.06
    312 z          6.761681      6.761552    -0.000129    Cartesian   -0.00
    313 x         11.269468     11.272428     0.002960    Cartesian    0.03
    313 y         -6.761681     -6.749783     0.011898    Cartesian   -0.18
    313 z          2.253894      2.259517     0.005623    Cartesian    0.25
    314 x         13.523362     13.557621     0.034259    Cartesian    0.25
    314 y          4.507787      4.520311     0.012524    Cartesian    0.28
    314 z         -0.000000     -0.001391    -0.001391    Cartesian *******
    315 x          4.507787      4.517369     0.009581    Cartesian    0.21
    315 y         -4.507787     -4.533742    -0.025955    Cartesian    0.58
    315 z         -9.015574     -9.044792    -0.029218    Cartesian    0.32
    316 x          6.761681      6.766296     0.004615    Cartesian    0.07
    316 y         11.269468     11.269747     0.000279    Cartesian    0.00
    316 z         -2.253894     -2.255323    -0.001429    Cartesian    0.06
--------------------------------------------------------------------------------


  Time to end of optimisation  =       82.9291 seconds


  Peak dynamic memory used =      92.32 MB 


  Timing analysis for GULP :

--------------------------------------------------------------------------------
  Task / Subroutine                                          Time (Seconds)
--------------------------------------------------------------------------------
  Calculation of reciprocal space energy and derivatives          0.0006
  Calculation of reciprocal space energy using symmetry           0.0009
  Calculation of real space energy and derivatives                0.0034
  Calculation of real space energy using symmetry                 0.0083
  Calculation for region 1 energy and derivatives (2-b)          45.5495
  Calculation for region 2a energy                               34.2051
  Calculation for region 2b energy                                0.0141
  Calculation and manipulation of Hessian matrix                  0.1294
  Calculation of matrix inversion                                 2.7182
  Symmetry generation of equivalent positions                     0.0040
--------------------------------------------------------------------------------
  Total CPU time                                                 82.9292
--------------------------------------------------------------------------------


  Dump file written as Na3OCl.grs


  Job Finished at 22:32.38 30th November   2020                               

