********************************************************************************
*                       GENERAL UTILITY LATTICE PROGRAM                        *
*                                 Julian Gale                                  *
*                       Curtin Institute for Computation                       *
*                    School of Molecular and Life Sciences                     *
*                    Curtin University, Western Australia                      *
********************************************************************************
* Version = 5.2.0 * Last modified =  10th September 2020                       *
********************************************************************************
*  optimise     - perform optimisation run                                     *
*  conp         - constant pressure calculation                                *
*  property     - calculate properties for final geometry                      *
*  defect       - perform defect calculation after bulk run                    *
*  compare      - compare initial and final structures                         *
********************************************************************************

  Job Started  at 22:34.16 30th November   2020                               

  Number of CPUs =     1


  Total number of configurations input =      1

********************************************************************************
*  Input for Configuration =   1                                               *
********************************************************************************

  Formula = ClONa3                                                      

  Number of irreducible atoms/shells =       5


  Total number atoms/shells =       7

  Dimensionality = 3               :  Bulk   


  Symmetry :

  Crystal family                   :  Cubic       
  Crystal class  (Groth - 1921)    :  Cubic Hexakisoctahedral              

  Space group (centrosymmetric)    :  P M 3 M         

  Patterson group                  :  P m -3 m 

  Cartesian lattice vectors (Angstroms) :

        4.504000    0.000000    0.000000
        0.000000    4.504000    0.000000
        0.000000    0.000000    4.504000

  Cell parameters (Angstroms/Degrees):

  a =       4.5040    alpha =  90.0000
  b =       4.5040    beta  =  90.0000
  c =       4.5040    gamma =  90.0000

  Initial cell volume =          91.368216 Angs**3

  Temperature of configuration =   0.00     K 

  Pressure of configuration =         0.000 GPa 

  Fractional coordinates of asymmetric unit :

--------------------------------------------------------------------------------
   No.  Atomic       x           y          z         Charge      Occupancy
        Label      (Frac)      (Frac)     (Frac)        (e)         (Frac)  
--------------------------------------------------------------------------------
      1 Cl    c    0.000000    0.000000    0.000000     1.48500    1.000000    
      2 O     c    0.500000    0.500000    0.500000     0.18300    1.000000    
      3 Na    c    0.500000    0.500000    0.000000     1.00000    1.000000    
      4 Cl    s    0.000000    0.000000    0.000000    -2.48500    1.000000    
      5 O     s    0.500000    0.500000    0.500000    -2.18300    1.000000    
--------------------------------------------------------------------------------


  Constraints : 

--------------------------------------------------------------------------------
  Constraint no.      Unconstrained     Constrained    Coefficient    Offset
                         Variable         Variable
--------------------------------------------------------------------------------
           1              Strain 1        Strain 2       1.00000      0.0000
           2              Strain 1        Strain 3       1.00000      0.0000
--------------------------------------------------------------------------------


********************************************************************************
*  General input information                                                   *
********************************************************************************

  Species output for all configurations : 

--------------------------------------------------------------------------------
  Species    Type    Atomic    Atomic    Charge       Radii (Angs)     Library
                     Number     Mass       (e)     Cova   Ionic  VDW   Symbol
--------------------------------------------------------------------------------
    Na       Core       11      22.99   1.000000   0.970  0.000  2.300          
    O        Core        8      16.00   0.183000   0.730  0.000  1.360          
    O        Shell       8       0.00  -2.183000   0.730  0.000  1.360          
    Cl       Core       17      35.45   1.485000   0.990  0.000  1.650          
    Cl       Shell      17       0.00  -2.485000   0.990  0.000  1.650          
    Mg       Core       12      24.31   0.415000   1.100  0.000  0.000          
    Mg       Shell      12       0.00   1.585000   1.100  0.000  0.000          
    Ca       Core       20      40.08  -1.135000   0.990  0.000  0.000          
    Ca       Shell      20       0.00   3.135000   0.990  0.000  0.000          
    Sr       Core       38      87.62  -1.251000   1.120  0.000  0.000          
    Sr       Shell      38       0.00   3.251000   1.120  0.000  0.000          
    Ba       Core       56     137.33  -7.203000   1.340  0.000  0.000          
    Ba       Shell      56       0.00   9.203000   1.340  0.000  0.000          
--------------------------------------------------------------------------------


  Lattice summation method               =    Ewald          (3-D)
                                         =    Parry          (2-D)
                                         =    Saunders et al (1-D)
  Accuracy factor for lattice sums       =   12.000


  Analytic derivatives to be used

  Time limit = Infinity

  Maximum range for interatomic potentials =    100000.000000 Angstroms

  General interatomic potentials :

--------------------------------------------------------------------------------
Atom  Types   Potential      Parameter       Value         Units   Cutoffs(Ang)
  1     2                                                            Min /  Max 
--------------------------------------------------------------------------------
O    c O    s Spring (c-s)  Spring k 2       593.71600    eV*Ang^-2 0.000  0.800
                            Spring k 4       0.0000000    eV*Ang^-4 
--------------------------------------------------------------------------------
Cl   c Cl   s Spring (c-s)  Spring k 2       29.380000    eV*Ang^-2 0.000  0.800
                            Spring k 4       0.0000000    eV*Ang^-4 
--------------------------------------------------------------------------------
Mg   c Mg   s Spring (c-s)  Spring k 2       361.60000    eV*Ang^-2 0.000  0.800
                            Spring k 4       0.0000000    eV*Ang^-4 
--------------------------------------------------------------------------------
Ca   c Ca   s Spring (c-s)  Spring k 2       110.20000    eV*Ang^-2 0.000  0.800
                            Spring k 4       0.0000000    eV*Ang^-4 
--------------------------------------------------------------------------------
Sr   c Sr   s Spring (c-s)  Spring k 2       71.700000    eV*Ang^-2 0.000  0.800
                            Spring k 4       0.0000000    eV*Ang^-4 
--------------------------------------------------------------------------------
Ba   c Ba   s Spring (c-s)  Spring k 2       495.20000    eV*Ang^-2 0.000  0.800
                            Spring k 4       0.0000000    eV*Ang^-4 
--------------------------------------------------------------------------------
Na   c Na   c Buckingham    Buckingham A     1788.1900    eV        0.000 12.000
                            Buckingham rho  0.15900000    Ang       
                            Buckingham C     0.0000000    eV*Ang^6  
--------------------------------------------------------------------------------
Na   c O    s Buckingham    Buckingham A     1226.8400    eV        0.000 12.000
                            Buckingham rho  0.30700000    Ang       
                            Buckingham C     0.0000000    eV*Ang^6  
--------------------------------------------------------------------------------
Na   c Cl   s Buckingham    Buckingham A     2314.7000    eV        0.000 12.000
                            Buckingham rho  0.29000000    Ang       
                            Buckingham C     0.0000000    eV*Ang^6  
--------------------------------------------------------------------------------
O    s O    s Buckingham    Buckingham A     22764.300    eV        0.000 12.000
                            Buckingham rho  0.14900000    Ang       
                            Buckingham C     13.190000    eV*Ang^6  
--------------------------------------------------------------------------------
O    s Cl   s Buckingham    Buckingham A     8286.9100    eV        0.000 12.000
                            Buckingham rho  0.25900000    Ang       
                            Buckingham C     62.200000    eV*Ang^6  
--------------------------------------------------------------------------------
Cl   s Cl   s Buckingham    Buckingham A     1227.2000    eV        0.000 12.000
                            Buckingham rho  0.32100000    Ang       
                            Buckingham C     14.530000    eV*Ang^6  
--------------------------------------------------------------------------------
O    s Mg   s Buckingham    Buckingham A     1428.5000    eV        0.000 12.000
                            Buckingham rho  0.29450000    Ang       
                            Buckingham C     0.0000000    eV*Ang^6  
--------------------------------------------------------------------------------
Mg   s Cl   s Buckingham    Buckingham A     4914.5400    eV        0.000 12.000
                            Buckingham rho  0.25700000    Ang       
                            Buckingham C     0.0000000    eV*Ang^6  
--------------------------------------------------------------------------------
O    s Ca   s Buckingham    Buckingham A     1090.4000    eV        0.000 12.000
                            Buckingham rho  0.34370000    Ang       
                            Buckingham C     0.0000000    eV*Ang^6  
--------------------------------------------------------------------------------
Cl   s Ca   s Buckingham    Buckingham A     2302.0000    eV        0.000 12.000
                            Buckingham rho  0.34020000    Ang       
                            Buckingham C     0.0000000    eV*Ang^6  
--------------------------------------------------------------------------------
O    s Sr   s Buckingham    Buckingham A     959.10000    eV        0.000 12.000
                            Buckingham rho  0.37210000    Ang       
                            Buckingham C     0.0000000    eV*Ang^6  
--------------------------------------------------------------------------------
Cl   s Sr   s Buckingham    Buckingham A     2191.0900    eV        0.000 12.000
                            Buckingham rho  0.34570000    Ang       
                            Buckingham C     0.0000000    eV*Ang^6  
--------------------------------------------------------------------------------
O    s Ba   s Buckingham    Buckingham A     905.70000    eV        0.000 12.000
                            Buckingham rho  0.39760000    Ang       
                            Buckingham C     0.0000000    eV*Ang^6  
--------------------------------------------------------------------------------
Cl   s Ba   s Buckingham    Buckingham A     2704.5500    eV        0.000 12.000
                            Buckingham rho  0.35280000    Ang       
                            Buckingham C     0.0000000    eV*Ang^6  
--------------------------------------------------------------------------------

********************************************************************************
*  Output for configuration   1                                                *
********************************************************************************


  Components of energy : 

--------------------------------------------------------------------------------
  Interatomic potentials     =           5.13022605 eV    
  Monopole - monopole (real) =         -10.03624526 eV    
  Monopole - monopole (recip)=         -29.53581274 eV    
  Monopole - monopole (total)=         -39.57205800 eV    
--------------------------------------------------------------------------------
  Total lattice energy       =         -34.44183194 eV    
--------------------------------------------------------------------------------
  Total lattice energy       =           -3323.1103 kJ/(mole unit cells)
--------------------------------------------------------------------------------


  Number of variables =        1

  Maximum number of calculations  =          1000
  Maximum Hessian update interval =            10
  Maximum step size               =   1.000000000
  Maximum parameter tolerance     =   0.000010000
  Maximum function  tolerance     =   0.000010000
  Maximum gradient  tolerance     =   0.001000000
  Maximum gradient  component     =   0.010000000

  Symmetry constrained optimisation

  Symmetry used for second derivatives

  Cell parameters to be optimised using strains

  Newton-Raphson optimiser to be used

  BFGS hessian update to be used

  Lower half triangular hessian to be used

  Start of bulk optimisation :

  Cycle:      0 Energy:       -34.441832  Gnorm:      0.196570  CPU:    0.068
  ** Hessian calculated **
  Cycle:      1 Energy:       -34.441914  Gnorm:      0.000103  CPU:    0.086


  **** Optimisation achieved ****


  Final energy =     -34.44191447 eV
  Final Gnorm  =       0.00000000

  Components of energy : 

--------------------------------------------------------------------------------
  Interatomic potentials     =           5.09689708 eV    
  Monopole - monopole (real) =         -10.02781331 eV    
  Monopole - monopole (recip)=         -29.51099824 eV    
  Monopole - monopole (total)=         -39.53881155 eV    
--------------------------------------------------------------------------------
  Total lattice energy       =         -34.44191447 eV    
--------------------------------------------------------------------------------
  Total lattice energy       =           -3323.1183 kJ/(mole unit cells)
--------------------------------------------------------------------------------

  Final asymmetric unit coordinates :

--------------------------------------------------------------------------------
   No.  Atomic        x           y           z         Radius
        Label       (Frac)      (Frac)      (Frac)       (Angs) 
--------------------------------------------------------------------------------
     1  Cl    c     0.000000    0.000000    0.000000    0.000000
     2  O     c     0.500000    0.500000    0.500000    0.000000
     3  Na    c     0.500000    0.500000    0.000000    0.000000
     4  Cl    s     0.000000    0.000000    0.000000    0.000000
     5  O     s     0.500000    0.500000    0.500000    0.000000
--------------------------------------------------------------------------------

  Final Cartesian lattice vectors (Angstroms) :

        4.507787    0.000000    0.000000
        0.000000    4.507787    0.000000
        0.000000    0.000000    4.507787


  Final cell parameters and derivatives :

--------------------------------------------------------------------------------
       a            4.507787 Angstrom     dE/de1(xx)     0.000000 eV/strain
       b            4.507787 Angstrom     dE/de2(yy)     0.000000 eV/strain
       c            4.507787 Angstrom     dE/de3(zz)     0.000000 eV/strain
       alpha       90.000000 Degrees      dE/de4(yz)     0.000000 eV/strain
       beta        90.000000 Degrees      dE/de5(xz)     0.000000 eV/strain
       gamma       90.000000 Degrees      dE/de6(xy)     0.000000 eV/strain
--------------------------------------------------------------------------------

  Primitive cell volume =            91.598892 Angs**3

  Density of cell =      2.183054 g/cm**3

  Non-primitive cell volume =            91.598892 Angs**3


  Final internal derivatives :

--------------------------------------------------------------------------------
   No.  Atomic          a             b             c           Radius
        Label          (eV)          (eV)          (eV)        (eV/Angs)
--------------------------------------------------------------------------------
      1 Cl    c       0.000000      0.000000      0.000000      0.000000
      2 O     c       0.000000      0.000000      0.000000      0.000000
      3 Na    c       0.000000      0.000000      0.000000      0.000000
      4 Cl    s       0.000000      0.000000      0.000000      0.000000
      5 O     s       0.000000      0.000000      0.000000      0.000000
--------------------------------------------------------------------------------
  Maximum abs         0.000000      0.000000      0.000000      0.000000
--------------------------------------------------------------------------------

  Comparison of initial and final structures : 

--------------------------------------------------------------------------------
  Parameter   Initial value   Final value   Difference    Units      Percent
--------------------------------------------------------------------------------
    Volume        91.368216     91.598892     0.230676    Angs**3      0.25
    a              4.504000      4.507787     0.003787    Angstroms    0.08
    b              4.504000      4.507787     0.003787    Angstroms    0.08
    c              4.504000      4.507787     0.003787    Angstroms    0.08
    alpha         90.000000     90.000000     0.000000    Degrees      0.00
    beta          90.000000     90.000000     0.000000    Degrees      0.00
    gamma         90.000000     90.000000     0.000000    Degrees      0.00
      1 x          0.000000      0.000000     0.000000    Fractional   0.00
      1 y          0.000000      0.000000     0.000000    Fractional   0.00
      1 z          0.000000      0.000000     0.000000    Fractional   0.00
      2 x          0.500000      0.500000     0.000000    Fractional   0.00
      2 y          0.500000      0.500000     0.000000    Fractional   0.00
      2 z          0.500000      0.500000     0.000000    Fractional   0.00
      3 x          0.500000      0.500000     0.000000    Fractional   0.00
      3 y          0.500000      0.500000     0.000000    Fractional   0.00
      3 z          0.000000      0.000000     0.000000    Fractional   0.00
      4 x          0.000000      0.000000     0.000000    Fractional   0.00
      4 y          0.000000      0.000000     0.000000    Fractional   0.00
      4 z          0.000000      0.000000     0.000000    Fractional   0.00
      5 x          0.500000      0.500000     0.000000    Fractional   0.00
      5 y          0.500000      0.500000     0.000000    Fractional   0.00
      5 z          0.500000      0.500000     0.000000    Fractional   0.00
--------------------------------------------------------------------------------


  Born effective charge tensors : 

-------------------------------------------------------------------------------
  Atom             x           y             z
-------------------------------------------------------------------------------
    1 Cl    x      -1.0181     -0.0000      0.0000
            y      -0.0000     -1.0181      0.0000
            z       0.0000      0.0000     -1.0181
-------------------------------------------------------------------------------
    2 O     x      -2.2647      0.0000     -0.0000
            y       0.0000     -2.2647     -0.0000
            z      -0.0000     -0.0000     -2.2647
-------------------------------------------------------------------------------
    3 Na    x       1.2258     -0.0000      0.0000
            y      -0.0000      1.2258     -0.0000
            z       0.0000     -0.0000      0.8313
-------------------------------------------------------------------------------




  Elastic Constant Matrix: (Units=GPa)

-------------------------------------------------------------------------------
  Indices      1         2         3         4         5         6    
-------------------------------------------------------------------------------
       1     95.8177   20.0737   20.0737   -0.0000   -0.0000    0.0000
       2     20.0737   95.8177   20.0737   -0.0000   -0.0000    0.0000
       3     20.0737   20.0737   95.8177   -0.0000   -0.0000    0.0000
       4     -0.0000   -0.0000   -0.0000   20.0737   -0.0000    0.0000
       5     -0.0000   -0.0000   -0.0000   -0.0000   20.0737    0.0000
       6      0.0000    0.0000    0.0000    0.0000    0.0000   20.0737
-------------------------------------------------------------------------------


  Elastic Compliance Matrix: (Units=1/GPa)

-------------------------------------------------------------------------------
  Indices      1         2         3         4         5         6    
-------------------------------------------------------------------------------
       1    0.011253 -0.001949 -0.001949  0.000000  0.000000 -0.000000
       2   -0.001949  0.011253 -0.001949  0.000000  0.000000  0.000000
       3   -0.001949 -0.001949  0.011253  0.000000  0.000000 -0.000000
       4    0.000000  0.000000  0.000000  0.049816  0.000000 -0.000000
       5    0.000000  0.000000  0.000000  0.000000  0.049816 -0.000000
       6   -0.000000  0.000000 -0.000000 -0.000000 -0.000000  0.049816
-------------------------------------------------------------------------------

  Mechanical properties :

-------------------------------------------------------------------------------
  Convention :                    Reuss         Voigt         Hill
-------------------------------------------------------------------------------
  Bulk  Modulus (GPa)     =      45.32174      45.32174      45.32174
  Shear Modulus (GPa)     =      24.72085      27.19304      25.95695
-------------------------------------------------------------------------------
  Velocity S-wave (km/s)  =       3.36511       3.52937       3.44822
  Velocity P-wave (km/s)  =       5.98827       6.11304       6.05098
-------------------------------------------------------------------------------
  Compressibility (1/GPa) =    0.02206447
-------------------------------------------------------------------------------
  Stress axis :                     x             y             z
-------------------------------------------------------------------------------
  Youngs Moduli (GPa)     =      88.86373      88.86373      88.86373
-------------------------------------------------------------------------------
  Poissons Ratio (x)      =                     0.17321       0.17321
  Poissons Ratio (y)      =       0.17321                     0.17321
  Poissons Ratio (z)      =       0.17321       0.17321
-------------------------------------------------------------------------------


  Piezoelectric Strain Matrix: (Units=C/m**2)

-------------------------------------------------------------------------------
  Indices      1         2         3         4         5         6    
-------------------------------------------------------------------------------
       x    -0.00000  -0.00000  -0.00000   0.00000  -0.00000  -0.00000
       y    -0.00000  -0.00000   0.00000  -0.00000   0.00000   0.00000
       z    -0.00000  -0.00000  -0.00000  -0.00000   0.00000   0.00000
-------------------------------------------------------------------------------


  Piezoelectric Stress Matrix: (Units=10**-11 C/N)

-------------------------------------------------------------------------------
  Indices      1         2         3         4         5         6    
-------------------------------------------------------------------------------
       x    -0.00000   0.00000   0.00000   0.00000  -0.00000  -0.00000
       y    -0.00000  -0.00000   0.00000  -0.00000   0.00000   0.00000
       z     0.00000   0.00000  -0.00000  -0.00000   0.00000   0.00000
-------------------------------------------------------------------------------


  Static dielectric constant tensor : 

-------------------------------------------------------------------------------
              x         y         z
-------------------------------------------------------------------------------
       x    22.84729   0.00000   0.00000
       y     0.00000  22.84729  -0.00000
       z     0.00000  -0.00000  22.84729
--------------------------------------------------------------------------------

  High frequency dielectric constant tensor : 

-------------------------------------------------------------------------------
              x         y         z
-------------------------------------------------------------------------------
       x     1.47557   0.00000  -0.00000
       y     0.00000   1.47557  -0.00000
       z    -0.00000  -0.00000   1.47557
-------------------------------------------------------------------------------

  Static refractive indices : 

-------------------------------------------------------------------------------
    1 =    4.77988      2 =    4.77988      3 =    4.77988
-------------------------------------------------------------------------------

  High frequency refractive indices : 

-------------------------------------------------------------------------------
    1 =    1.21473      2 =    1.21473      3 =    1.21473
-------------------------------------------------------------------------------


  Time to end of optimisation =       0.1297 seconds

********************************************************************************
*  Defect calculation for configuration   1 :                                  *
********************************************************************************

  Total number of defects =      3

  Total charge on defect  =  -1.00

  Defect centre is at   0.5000   0.0300   0.4700  Frac

  Region 1 radius =  12.0000      Number of ions =    546

  Number of symmetry inequivalent region 1 ions  =    318

  Region 2 radius =  16.0000      Number of ions =    767

  Number of symmetry inequivalent region 2a ions =    416

  Region 2a mode = 4 : screened electrostatics due to region 1 
                       neglect correction to region 1 forces from 2a
                       region 2a displacements based on defects only

  Region 2a ions will only interact with defects in region 1

  Vacancies:

--------------------------------------------------------------------------------
    Specification type     Symbol/Number         x          y          z
--------------------------------------------------------------------------------
    Fractional                               0.500000   0.500000   0.000000
    Fractional                               0.500000   0.000000   0.500000
--------------------------------------------------------------------------------

  Interstitials:

--------------------------------------------------------------------------------
    Specification type     Symbol/Number         x          y          z
--------------------------------------------------------------------------------
    Atom/Fractional         Na               0.500000   0.030000   0.470000
--------------------------------------------------------------------------------


  Symmetry reduced region 1 (Relative to defect centre) :

--------------------------------------------------------------------------------
   No.   Atomic       x            y             z       Radius  Multiplicity   
         Label      (Angs)       (Angs)        (Angs)    (Angs)     
--------------------------------------------------------------------------------
     1  Na    c      0.0000       0.0000       0.0000 *  0.0000     1    Defect
     2  O     c      0.0000       2.1187 *     0.1352 *  0.0000     1          
     3  O     c      0.0000      -2.3891 *     0.1352 *  0.0000     1          
     4  Cl    c      2.2539 *    -0.1352 *    -2.1187 *  0.0000     2          
     5  Na    c      2.2539 *     2.1187 *     0.1352 *  0.0000     2          
     6  Na    c      0.0000      -2.3891 *    -2.1187 *  0.0000     1          
     7  Na    c      0.0000       2.1187 *     2.3891 *  0.0000     1          
     8  Cl    c      2.2539 *    -0.1352 *     2.3891 *  0.0000     2          
     9  Na    c      2.2539 *    -2.3891 *     0.1352 *  0.0000     2          
    10  Na    c      0.0000      -2.3891 *     2.3891 *  0.0000     1          
    11  Na    c      0.0000       4.3726 *     0.1352 *  0.0000     1          
    12  Na    c      0.0000      -0.1352 *    -4.3726 *  0.0000     1          
    13  Na    c     -4.5078 *    -0.1352 *     0.1352 *  0.0000     2          
    14  Na    c      0.0000      -0.1352 *     4.6430 *  0.0000     1          
    15  Na    c      0.0000      -4.6430 *     0.1352 *  0.0000     1          
    16  O     c      0.0000       2.1187 *    -4.3726 *  0.0000     1          
    17  O     c     -4.5078 *     2.1187 *     0.1352 *  0.0000     2          
    18  O     c      0.0000      -2.3891 *    -4.3726 *  0.0000     1          
    19  O     c      0.0000       2.1187 *     4.6430 *  0.0000     1          
    20  O     c     -4.5078 *    -2.3891 *     0.1352 *  0.0000     2          
    21  O     c      0.0000      -2.3891 *     4.6430 *  0.0000     1          
    22  Cl    c      2.2539 *     4.3726 *    -2.1187 *  0.0000     2          
    23  Na    c      2.2539 *     2.1187 *    -4.3726 *  0.0000     2          
    24  Na    c     -4.5078 *     2.1187 *    -2.1187 *  0.0000     2          
    25  Cl    c      2.2539 *     4.3726 *     2.3891 *  0.0000     2          
    26  Na    c      2.2539 *    -2.3891 *    -4.3726 *  0.0000     2          
    27  Na    c     -4.5078 *    -2.3891 *    -2.1187 *  0.0000     2          
    28  Na    c     -4.5078 *     2.1187 *     2.3891 *  0.0000     2          
    29  Na    c      2.2539 *     2.1187 *     4.6430 *  0.0000     2          
    30  Cl    c      2.2539 *    -4.6430 *    -2.1187 *  0.0000     2          
    31  Na    c     -4.5078 *    -2.3891 *     2.3891 *  0.0000     2          
    32  Na    c      2.2539 *    -2.3891 *     4.6430 *  0.0000     2          
    33  Cl    c      2.2539 *    -4.6430 *     2.3891 *  0.0000     2          
    34  Na    c      0.0000       4.3726 *    -4.3726 *  0.0000     1          
    35  Na    c      4.5078 *     4.3726 *     0.1352 *  0.0000     2          
    36  Na    c     -4.5078 *    -0.1352 *    -4.3726 *  0.0000     2          
    37  Na    c      0.0000       4.3726 *     4.6430 *  0.0000     1          
    38  Na    c      0.0000      -4.6430 *    -4.3726 *  0.0000     1          
    39  Na    c     -4.5078 *    -0.1352 *     4.6430 *  0.0000     2          
    40  Na    c      4.5078 *    -4.6430 *     0.1352 *  0.0000     2          
    41  Na    c      0.0000      -4.6430 *     4.6430 *  0.0000     1          
    42  O     c      0.0000       6.6264 *     0.1352 *  0.0000     1          
    43  O     c     -4.5078 *     2.1187 *    -4.3726 *  0.0000     2          
    44  O     c     -4.5078 *    -2.3891 *    -4.3726 *  0.0000     2          
    45  O     c     -4.5078 *     2.1187 *     4.6430 *  0.0000     2          
    46  O     c     -4.5078 *    -2.3891 *     4.6430 *  0.0000     2          
    47  O     c      0.0000      -6.8969 *     0.1352 *  0.0000     1          
    48  Na    c      0.0000       2.1187 *    -6.6264 *  0.0000     1          
    49  Na    c      0.0000       6.6264 *    -2.1187 *  0.0000     1          
    50  Cl    c      2.2539 *    -0.1352 *    -6.6264 *  0.0000     2          
    51  Na    c      2.2539 *     6.6264 *     0.1352 *  0.0000     2          
    52  Na    c      0.0000      -2.3891 *    -6.6264 *  0.0000     1          
    53  Na    c      0.0000       6.6264 *     2.3891 *  0.0000     1          
    54  Cl    c      6.7617 *    -0.1352 *    -2.1187 *  0.0000     2          
    55  Na    c      6.7617 *     2.1187 *     0.1352 *  0.0000     2          
    56  Cl    c      6.7617 *    -0.1352 *     2.3891 *  0.0000     2          
    57  Na    c      6.7617 *    -2.3891 *     0.1352 *  0.0000     2          
    58  Na    c      0.0000       2.1187 *     6.8969 *  0.0000     1          
    59  Na    c      0.0000      -6.8969 *    -2.1187 *  0.0000     1          
    60  Cl    c      2.2539 *    -0.1352 *     6.8969 *  0.0000     2          
    61  Na    c      2.2539 *    -6.8969 *     0.1352 *  0.0000     2          
    62  Na    c      0.0000      -2.3891 *     6.8969 *  0.0000     1          
    63  Na    c      0.0000      -6.8969 *     2.3891 *  0.0000     1          
    64  Na    c      4.5078 *     4.3726 *    -4.3726 *  0.0000     2          
    65  Na    c      4.5078 *     4.3726 *     4.6430 *  0.0000     2          
    66  Na    c      4.5078 *    -4.6430 *    -4.3726 *  0.0000     2          
    67  O     c      0.0000       6.6264 *    -4.3726 *  0.0000     1          
    68  Na    c      4.5078 *    -4.6430 *     4.6430 *  0.0000     2          
    69  O     c     -4.5078 *     6.6264 *     0.1352 *  0.0000     2          
    70  O     c      0.0000       6.6264 *     4.6430 *  0.0000     1          
    71  O     c      0.0000      -6.8969 *    -4.3726 *  0.0000     1          
    72  O     c      4.5078 *    -6.8969 *     0.1352 *  0.0000     2          
    73  Cl    c      2.2539 *     4.3726 *    -6.6264 *  0.0000     2          
    74  Na    c      2.2539 *     6.6264 *    -4.3726 *  0.0000     2          
    75  Na    c      4.5078 *     2.1187 *    -6.6264 *  0.0000     2          
    76  Na    c     -4.5078 *     6.6264 *    -2.1187 *  0.0000     2          
    77  O     c      0.0000      -6.8969 *     4.6430 *  0.0000     1          
    78  Cl    c      6.7617 *     4.3726 *    -2.1187 *  0.0000     2          
    79  Na    c      6.7617 *     2.1187 *    -4.3726 *  0.0000     2          
    80  Na    c     -4.5078 *    -2.3891 *    -6.6264 *  0.0000     2          
    81  Na    c     -4.5078 *     6.6264 *     2.3891 *  0.0000     2          
    82  Cl    c      2.2539 *    -4.6430 *    -6.6264 *  0.0000     2          
    83  Cl    c      6.7617 *     4.3726 *     2.3891 *  0.0000     2          
    84  Na    c      2.2539 *     6.6264 *     4.6430 *  0.0000     2          
    85  Na    c      6.7617 *    -2.3891 *    -4.3726 *  0.0000     2          
    86  Cl    c      2.2539 *     4.3726 *     6.8969 *  0.0000     2          
    87  Na    c      2.2539 *    -6.8969 *    -4.3726 *  0.0000     2          
    88  Na    c      6.7617 *     2.1187 *     4.6430 *  0.0000     2          
    89  Cl    c      6.7617 *    -4.6430 *    -2.1187 *  0.0000     2          
    90  Na    c     -4.5078 *     2.1187 *     6.8969 *  0.0000     2          
    91  Na    c      4.5078 *    -6.8969 *    -2.1187 *  0.0000     2          
    92  Na    c      6.7617 *    -2.3891 *     4.6430 *  0.0000     2          
    93  Cl    c      6.7617 *    -4.6430 *     2.3891 *  0.0000     2          
    94  Na    c      4.5078 *    -2.3891 *     6.8969 *  0.0000     2          
    95  Na    c      4.5078 *    -6.8969 *     2.3891 *  0.0000     2          
    96  Na    c      2.2539 *    -6.8969 *     4.6430 *  0.0000     2          
    97  Cl    c      2.2539 *    -4.6430 *     6.8969 *  0.0000     2          
    98  Na    c      0.0000       8.8803 *     0.1352 *  0.0000     1          
    99  Na    c      0.0000      -0.1352 *    -8.8803 *  0.0000     1          
   100  Na    c      9.0156 *    -0.1352 *     0.1352 *  0.0000     2          
   101  O     c     -4.5078 *     6.6264 *    -4.3726 *  0.0000     2          
   102  O     c      0.0000       2.1187 *    -8.8803 *  0.0000     1          
   103  Na    c      0.0000      -0.1352 *     9.1508 *  0.0000     1          
   104  Na    c      0.0000      -9.1508 *     0.1352 *  0.0000     1          
   105  O     c      0.0000      -2.3891 *    -8.8803 *  0.0000     1          
   106  O     c     -4.5078 *     6.6264 *     4.6430 *  0.0000     2          
   107  O     c      9.0156 *     2.1187 *     0.1352 *  0.0000     2          
   108  O     c      4.5078 *    -6.8969 *    -4.3726 *  0.0000     2          
   109  O     c      9.0156 *    -2.3891 *     0.1352 *  0.0000     2          
   110  Na    c      0.0000       6.6264 *    -6.6264 *  0.0000     1          
   111  O     c      0.0000       2.1187 *     9.1508 *  0.0000     1          
   112  Cl    c      2.2539 *     8.8803 *    -2.1187 *  0.0000     2          
   113  Na    c      2.2539 *     2.1187 *    -8.8803 *  0.0000     2          
   114  O     c      0.0000      -2.3891 *     9.1508 *  0.0000     1          
   115  O     c      4.5078 *    -6.8969 *     4.6430 *  0.0000     2          
   116  Cl    c      2.2539 *     8.8803 *     2.3891 *  0.0000     2          
   117  Cl    c      6.7617 *    -0.1352 *    -6.6264 *  0.0000     2          
   118  Na    c      6.7617 *     6.6264 *     0.1352 *  0.0000     2          
   119  Na    c      2.2539 *    -2.3891 *    -8.8803 *  0.0000     2          
   120  Na    c      9.0156 *     2.1187 *    -2.1187 *  0.0000     2          
   121  Na    c      0.0000       6.6264 *     6.8969 *  0.0000     1          
   122  Na    c      0.0000      -6.8969 *    -6.6264 *  0.0000     1          
   123  Na    c      9.0156 *    -2.3891 *    -2.1187 *  0.0000     2          
   124  Na    c      9.0156 *     2.1187 *     2.3891 *  0.0000     2          
   125  Na    c      9.0156 *    -2.3891 *     2.3891 *  0.0000     2          
   126  Na    c      2.2539 *     2.1187 *     9.1508 *  0.0000     2          
   127  Cl    c      2.2539 *    -9.1508 *    -2.1187 *  0.0000     2          
   128  Cl    c      6.7617 *    -0.1352 *     6.8969 *  0.0000     2          
   129  Na    c      6.7617 *    -6.8969 *     0.1352 *  0.0000     2          
   130  Na    c      2.2539 *    -2.3891 *     9.1508 *  0.0000     2          
   131  Cl    c      2.2539 *    -9.1508 *     2.3891 *  0.0000     2          
   132  Na    c      0.0000      -6.8969 *     6.8969 *  0.0000     1          
   133  Na    c      0.0000       8.8803 *    -4.3726 *  0.0000     1          
   134  Na    c      0.0000       4.3726 *    -8.8803 *  0.0000     1          
   135  Na    c     -4.5078 *     8.8803 *     0.1352 *  0.0000     2          
   136  Na    c     -4.5078 *    -0.1352 *    -8.8803 *  0.0000     2          
   137  Na    c      0.0000       8.8803 *     4.6430 *  0.0000     1          
   138  Na    c      9.0156 *     4.3726 *     0.1352 *  0.0000     2          
   139  Na    c      9.0156 *    -0.1352 *    -4.3726 *  0.0000     2          
   140  Na    c      0.0000      -4.6430 *    -8.8803 *  0.0000     1          
   141  Na    c      0.0000       4.3726 *     9.1508 *  0.0000     1          
   142  Na    c      9.0156 *    -0.1352 *     4.6430 *  0.0000     2          
   143  Na    c      0.0000      -9.1508 *    -4.3726 *  0.0000     1          
   144  Na    c      9.0156 *    -4.6430 *     0.1352 *  0.0000     2          
   145  O     c      4.5078 *     2.1187 *    -8.8803 *  0.0000     2          
   146  Na    c     -4.5078 *    -0.1352 *     9.1508 *  0.0000     2          
   147  Na    c     -4.5078 *    -9.1508 *     0.1352 *  0.0000     2          
   148  O     c      9.0156 *     2.1187 *    -4.3726 *  0.0000     2          
   149  O     c     -4.5078 *    -2.3891 *    -8.8803 *  0.0000     2          
   150  Na    c      0.0000      -4.6430 *     9.1508 *  0.0000     1          
   151  Na    c      0.0000      -9.1508 *     4.6430 *  0.0000     1          
   152  O     c      9.0156 *    -2.3891 *    -4.3726 *  0.0000     2          
   153  O     c      9.0156 *     2.1187 *     4.6430 *  0.0000     2          
   154  Na    c     -4.5078 *     6.6264 *    -6.6264 *  0.0000     2          
   155  O     c     -4.5078 *     2.1187 *     9.1508 *  0.0000     2          
   156  O     c      9.0156 *    -2.3891 *     4.6430 *  0.0000     2          
   157  Cl    c      6.7617 *     4.3726 *    -6.6264 *  0.0000     2          
   158  Na    c      6.7617 *     6.6264 *    -4.3726 *  0.0000     2          
   159  O     c     -4.5078 *    -2.3891 *     9.1508 *  0.0000     2          
   160  Na    c      6.7617 *     6.6264 *     4.6430 *  0.0000     2          
   161  Cl    c      6.7617 *    -4.6430 *    -6.6264 *  0.0000     2          
   162  Na    c     -4.5078 *     6.6264 *     6.8969 *  0.0000     2          
   163  Na    c      4.5078 *    -6.8969 *    -6.6264 *  0.0000     2          
   164  Cl    c      6.7617 *     4.3726 *     6.8969 *  0.0000     2          
   165  Na    c      6.7617 *    -6.8969 *    -4.3726 *  0.0000     2          
   166  Cl    c      6.7617 *    -4.6430 *     6.8969 *  0.0000     2          
   167  Na    c      6.7617 *    -6.8969 *     4.6430 *  0.0000     2          
   168  Na    c      4.5078 *    -6.8969 *     6.8969 *  0.0000     2          
   169  Na    c     -4.5078 *     8.8803 *    -4.3726 *  0.0000     2          
   170  Na    c      4.5078 *     4.3726 *    -8.8803 *  0.0000     2          
   171  Na    c      9.0156 *     4.3726 *    -4.3726 *  0.0000     2          
   172  Na    c     -4.5078 *     8.8803 *     4.6430 *  0.0000     2          
   173  Na    c      4.5078 *    -4.6430 *    -8.8803 *  0.0000     2          
   174  Na    c      9.0156 *     4.3726 *     4.6430 *  0.0000     2          
   175  Na    c      9.0156 *    -4.6430 *    -4.3726 *  0.0000     2          
   176  O     c      0.0000       6.6264 *    -8.8803 *  0.0000     1          
   177  Na    c      4.5078 *     4.3726 *     9.1508 *  0.0000     2          
   178  Na    c     -4.5078 *    -9.1508 *    -4.3726 *  0.0000     2          
   179  O     c      0.0000      11.1342 *     0.1352 *  0.0000     1          
   180  Na    c      9.0156 *    -4.6430 *     4.6430 *  0.0000     2          
   181  O     c      9.0156 *     6.6264 *     0.1352 *  0.0000     2          
   182  Na    c      4.5078 *    -4.6430 *     9.1508 *  0.0000     2          
   183  Na    c     -4.5078 *    -9.1508 *     4.6430 *  0.0000     2          
   184  O     c      0.0000      -6.8969 *    -8.8803 *  0.0000     1          
   185  O     c      0.0000       6.6264 *     9.1508 *  0.0000     1          
   186  Cl    c      2.2539 *     8.8803 *    -6.6264 *  0.0000     2          
   187  Na    c      2.2539 *     6.6264 *    -8.8803 *  0.0000     2          
   188  Na    c      0.0000       2.1187 *   -11.1342 *  0.0000     1          
   189  Na    c      0.0000      11.1342 *    -2.1187 *  0.0000     1          
   190  O     c      9.0156 *    -6.8969 *     0.1352 *  0.0000     2          
   191  Cl    c      2.2539 *    -0.1352 *   -11.1342 *  0.0000     2          
   192  Cl    c      6.7617 *     8.8803 *    -2.1187 *  0.0000     2          
   193  Na    c      2.2539 *    11.1342 *     0.1352 *  0.0000     2          
   194  Na    c      6.7617 *     2.1187 *    -8.8803 *  0.0000     2          
   195  Na    c      0.0000      -2.3891 *   -11.1342 *  0.0000     1          
   196  Na    c      0.0000      11.1342 *     2.3891 *  0.0000     1          
   197  Na    c      9.0156 *     2.1187 *    -6.6264 *  0.0000     2          
   198  Na    c      9.0156 *     6.6264 *    -2.1187 *  0.0000     2          
   199  O     c      0.0000     -11.4047 *     0.1352 *  0.0000     1          
   200  Cl    c      6.7617 *     8.8803 *     2.3891 *  0.0000     2          
   201  Na    c      6.7617 *    -2.3891 *    -8.8803 *  0.0000     2          
   202  Na    c      9.0156 *    -2.3891 *    -6.6264 *  0.0000     2          
   203  Na    c      9.0156 *     6.6264 *     2.3891 *  0.0000     2          
   204  O     c      0.0000      -6.8969 *     9.1508 *  0.0000     1          
   205  Cl    c      2.2539 *     8.8803 *     6.8969 *  0.0000     2          
   206  Cl    c     11.2695 *    -0.1352 *    -2.1187 *  0.0000     2          
   207  Na    c     11.2695 *     2.1187 *     0.1352 *  0.0000     2          
   208  Na    c      2.2539 *    -6.8969 *    -8.8803 *  0.0000     2          
   209  Na    c      2.2539 *     6.6264 *     9.1508 *  0.0000     2          
   210  Cl    c     11.2695 *    -0.1352 *     2.3891 *  0.0000     2          
   211  Na    c     11.2695 *    -2.3891 *     0.1352 *  0.0000     2          
   212  Cl    c      2.2539 *    -9.1508 *    -6.6264 *  0.0000     2          
   213  Na    c      9.0156 *     2.1187 *     6.8969 *  0.0000     2          
   214  Na    c      9.0156 *    -6.8969 *    -2.1187 *  0.0000     2          
   215  Na    c      6.7617 *     2.1187 *     9.1508 *  0.0000     2          
   216  Cl    c      6.7617 *    -9.1508 *    -2.1187 *  0.0000     2          
   217  Na    c      0.0000       2.1187 *    11.4047 *  0.0000     1          
   218  Na    c      0.0000     -11.4047 *    -2.1187 *  0.0000     1          
   219  Na    c      9.0156 *    -2.3891 *     6.8969 *  0.0000     2          
   220  Na    c      9.0156 *    -6.8969 *     2.3891 *  0.0000     2          
   221  Na    c      6.7617 *    -2.3891 *     9.1508 *  0.0000     2          
   222  Cl    c      2.2539 *    -0.1352 *    11.4047 *  0.0000     2          
   223  Cl    c      6.7617 *    -9.1508 *     2.3891 *  0.0000     2          
   224  Na    c      2.2539 *   -11.4047 *     0.1352 *  0.0000     2          
   225  Na    c      0.0000      -2.3891 *    11.4047 *  0.0000     1          
   226  Na    c      0.0000     -11.4047 *     2.3891 *  0.0000     1          
   227  Na    c      2.2539 *    -6.8969 *     9.1508 *  0.0000     2          
   228  Cl    c      2.2539 *    -9.1508 *     6.8969 *  0.0000     2          
   229  O     c      0.0000      11.1342 *    -4.3726 *  0.0000     1          
   230  O     c     -4.5078 *     6.6264 *    -8.8803 *  0.0000     2          
   231  O     s      0.0000       2.1187 *     0.1352 *  0.0000     1          
   232  O     s      0.0000      -2.3891 *     0.1352 *  0.0000     1          
   233  Cl    s      2.2539 *    -0.1352 *    -2.1187 *  0.0000     2          
   234  Cl    s      2.2539 *    -0.1352 *     2.3891 *  0.0000     2          
   235  O     s      0.0000       2.1187 *    -4.3726 *  0.0000     1          
   236  O     s     -4.5078 *     2.1187 *     0.1352 *  0.0000     2          
   237  O     s      0.0000      -2.3891 *    -4.3726 *  0.0000     1          
   238  O     s      0.0000       2.1187 *     4.6430 *  0.0000     1          
   239  O     s     -4.5078 *    -2.3891 *     0.1352 *  0.0000     2          
   240  O     s      0.0000      -2.3891 *     4.6430 *  0.0000     1          
   241  Cl    s      2.2539 *     4.3726 *    -2.1187 *  0.0000     2          
   242  Cl    s      2.2539 *     4.3726 *     2.3891 *  0.0000     2          
   243  Cl    s      2.2539 *    -4.6430 *    -2.1187 *  0.0000     2          
   244  Cl    s      2.2539 *    -4.6430 *     2.3891 *  0.0000     2          
   245  O     s      0.0000       6.6264 *     0.1352 *  0.0000     1          
   246  O     s     -4.5078 *     2.1187 *    -4.3726 *  0.0000     2          
   247  O     s     -4.5078 *    -2.3891 *    -4.3726 *  0.0000     2          
   248  O     s     -4.5078 *     2.1187 *     4.6430 *  0.0000     2          
   249  O     s     -4.5078 *    -2.3891 *     4.6430 *  0.0000     2          
   250  O     s      0.0000      -6.8969 *     0.1352 *  0.0000     1          
   251  Cl    s      2.2539 *    -0.1352 *    -6.6264 *  0.0000     2          
   252  Cl    s      6.7617 *    -0.1352 *    -2.1187 *  0.0000     2          
   253  Cl    s      6.7617 *    -0.1352 *     2.3891 *  0.0000     2          
   254  Cl    s      2.2539 *    -0.1352 *     6.8969 *  0.0000     2          
   255  O     s      0.0000       6.6264 *    -4.3726 *  0.0000     1          
   256  O     s     -4.5078 *     6.6264 *     0.1352 *  0.0000     2          
   257  O     s      0.0000       6.6264 *     4.6430 *  0.0000     1          
   258  O     s      0.0000      -6.8969 *    -4.3726 *  0.0000     1          
   259  O     s      4.5078 *    -6.8969 *     0.1352 *  0.0000     2          
   260  Cl    s      2.2539 *     4.3726 *    -6.6264 *  0.0000     2          
   261  O     s      0.0000      -6.8969 *     4.6430 *  0.0000     1          
   262  Cl    s      6.7617 *     4.3726 *    -2.1187 *  0.0000     2          
   263  Cl    s      2.2539 *    -4.6430 *    -6.6264 *  0.0000     2          
   264  Cl    s      6.7617 *     4.3726 *     2.3891 *  0.0000     2          
   265  Cl    s      2.2539 *     4.3726 *     6.8969 *  0.0000     2          
   266  Cl    s      6.7617 *    -4.6430 *    -2.1187 *  0.0000     2          
   267  Cl    s      6.7617 *    -4.6430 *     2.3891 *  0.0000     2          
   268  Cl    s      2.2539 *    -4.6430 *     6.8969 *  0.0000     2          
   269  O     s     -4.5078 *     6.6264 *    -4.3726 *  0.0000     2          
   270  O     s      0.0000       2.1187 *    -8.8803 *  0.0000     1          
   271  O     s      0.0000      -2.3891 *    -8.8803 *  0.0000     1          
   272  O     s     -4.5078 *     6.6264 *     4.6430 *  0.0000     2          
   273  O     s      9.0156 *     2.1187 *     0.1352 *  0.0000     2          
   274  O     s      4.5078 *    -6.8969 *    -4.3726 *  0.0000     2          
   275  O     s      9.0156 *    -2.3891 *     0.1352 *  0.0000     2          
   276  O     s      0.0000       2.1187 *     9.1508 *  0.0000     1          
   277  Cl    s      2.2539 *     8.8803 *    -2.1187 *  0.0000     2          
   278  O     s      0.0000      -2.3891 *     9.1508 *  0.0000     1          
   279  O     s      4.5078 *    -6.8969 *     4.6430 *  0.0000     2          
   280  Cl    s      2.2539 *     8.8803 *     2.3891 *  0.0000     2          
   281  Cl    s      6.7617 *    -0.1352 *    -6.6264 *  0.0000     2          
   282  Cl    s      2.2539 *    -9.1508 *    -2.1187 *  0.0000     2          
   283  Cl    s      6.7617 *    -0.1352 *     6.8969 *  0.0000     2          
   284  Cl    s      2.2539 *    -9.1508 *     2.3891 *  0.0000     2          
   285  O     s      4.5078 *     2.1187 *    -8.8803 *  0.0000     2          
   286  O     s      9.0156 *     2.1187 *    -4.3726 *  0.0000     2          
   287  O     s     -4.5078 *    -2.3891 *    -8.8803 *  0.0000     2          
   288  O     s      9.0156 *    -2.3891 *    -4.3726 *  0.0000     2          
   289  O     s      9.0156 *     2.1187 *     4.6430 *  0.0000     2          
   290  O     s     -4.5078 *     2.1187 *     9.1508 *  0.0000     2          
   291  O     s      9.0156 *    -2.3891 *     4.6430 *  0.0000     2          
   292  Cl    s      6.7617 *     4.3726 *    -6.6264 *  0.0000     2          
   293  O     s     -4.5078 *    -2.3891 *     9.1508 *  0.0000     2          
   294  Cl    s      6.7617 *    -4.6430 *    -6.6264 *  0.0000     2          
   295  Cl    s      6.7617 *     4.3726 *     6.8969 *  0.0000     2          
   296  Cl    s      6.7617 *    -4.6430 *     6.8969 *  0.0000     2          
   297  O     s      0.0000       6.6264 *    -8.8803 *  0.0000     1          
   298  O     s      0.0000      11.1342 *     0.1352 *  0.0000     1          
   299  O     s      9.0156 *     6.6264 *     0.1352 *  0.0000     2          
   300  O     s      0.0000      -6.8969 *    -8.8803 *  0.0000     1          
   301  O     s      0.0000       6.6264 *     9.1508 *  0.0000     1          
   302  Cl    s      2.2539 *     8.8803 *    -6.6264 *  0.0000     2          
   303  O     s      9.0156 *    -6.8969 *     0.1352 *  0.0000     2          
   304  Cl    s      2.2539 *    -0.1352 *   -11.1342 *  0.0000     2          
   305  Cl    s      6.7617 *     8.8803 *    -2.1187 *  0.0000     2          
   306  O     s      0.0000     -11.4047 *     0.1352 *  0.0000     1          
   307  Cl    s      6.7617 *     8.8803 *     2.3891 *  0.0000     2          
   308  O     s      0.0000      -6.8969 *     9.1508 *  0.0000     1          
   309  Cl    s      2.2539 *     8.8803 *     6.8969 *  0.0000     2          
   310  Cl    s     11.2695 *    -0.1352 *    -2.1187 *  0.0000     2          
   311  Cl    s     11.2695 *    -0.1352 *     2.3891 *  0.0000     2          
   312  Cl    s      2.2539 *    -9.1508 *    -6.6264 *  0.0000     2          
   313  Cl    s      6.7617 *    -9.1508 *    -2.1187 *  0.0000     2          
   314  Cl    s      2.2539 *    -0.1352 *    11.4047 *  0.0000     2          
   315  Cl    s      6.7617 *    -9.1508 *     2.3891 *  0.0000     2          
   316  Cl    s      2.2539 *    -9.1508 *     6.8969 *  0.0000     2          
   317  O     s      0.0000      11.1342 *    -4.3726 *  0.0000     1          
   318  O     s     -4.5078 *     6.6264 *    -8.8803 *  0.0000     2          
--------------------------------------------------------------------------------

  Components of defect energy : 

--------------------------------------------------------------------------------
  Region 1 - region 1                   =     -8.41457734 eV
  Region 1 - region 2a (unrelaxed)      =     16.80017150 eV
  Region 1 - 2a (relaxed - correction)  =     -0.31266901 eV
  Region 1 (Total)                      =      8.07292516 eV
  Region 2a                             =      0.15622942 eV
  Region 2b                             =     -0.43867220 eV
--------------------------------------------------------------------------------
  Total defect energy                   =      7.79048238 eV
--------------------------------------------------------------------------------

  Largest displacement in region 2 =   0.0326 Angstroms


  Number of variables =      863

  Maximum number of calculations  =        1000
  Maximum Hessian update interval =          10
  Maximum step size               =   1.0000000
  Maximum parameter tolerance     =   0.0000100
  Maximum function  tolerance     =   0.0000100
  Maximum gradient  tolerance     =   0.0010000

  Symmetry adapted optimisation

  Symmetry to be used for second derivatives

  Newton-Raphson optimiser to be used

  BFGS hessian update to be used

  Lower half triangular hessian to be used

  Start of defect optimisation :

  Cycle:      0 Defect Energy:   7.790482  Gnorm:     0.019417  CPU:    6.304
  ** Hessian calculated **
  Cycle:      1 Defect Energy:   7.232481  Gnorm:     0.017360  CPU:   13.726
  ** Hessian calculated **
  Cycle:      2 Defect Energy:   5.576201  Gnorm:     0.005178  CPU:   19.907
  Cycle:      3 Defect Energy:   5.341312  Gnorm:     0.004404  CPU:   23.453
  Cycle:      4 Defect Energy:   5.268324  Gnorm:     0.003028  CPU:   24.421
  Cycle:      5 Defect Energy:   5.191993  Gnorm:     0.002165  CPU:   25.377
  Cycle:      6 Defect Energy:   5.110749  Gnorm:     0.001984  CPU:   26.310
  Cycle:      7 Defect Energy:   5.040300  Gnorm:     0.001757  CPU:   27.246
  Cycle:      8 Defect Energy:   4.980580  Gnorm:     0.001829  CPU:   28.210
  Cycle:      9 Defect Energy:   4.928153  Gnorm:     0.002051  CPU:   29.204
  Cycle:     10 Defect Energy:   4.872994  Gnorm:     0.002255  CPU:   30.113
  Cycle:     11 Defect Energy:   4.817146  Gnorm:     0.002371  CPU:   30.991
  ** Hessian calculated **
  Cycle:     12 Defect Energy:   4.798421  Gnorm:     0.001661  CPU:   33.329
  Cycle:     13 Defect Energy:   4.776118  Gnorm:     0.001487  CPU:   34.147
  Cycle:     14 Defect Energy:   4.747928  Gnorm:     0.001401  CPU:   38.300
  Cycle:     15 Defect Energy:   4.713973  Gnorm:     0.001354  CPU:   39.482
  Cycle:     16 Defect Energy:   4.680223  Gnorm:     0.001390  CPU:   40.601
  Cycle:     17 Defect Energy:   4.654918  Gnorm:     0.001336  CPU:   41.701
  Cycle:     18 Defect Energy:   4.632544  Gnorm:     0.001516  CPU:   42.816
  Cycle:     19 Defect Energy:   4.613359  Gnorm:     0.001408  CPU:   44.010
  Cycle:     20 Defect Energy:   4.594995  Gnorm:     0.001384  CPU:   45.055
  Cycle:     21 Defect Energy:   4.576181  Gnorm:     0.001357  CPU:   46.156
  ** Hessian calculated **
  Cycle:     22 Defect Energy:   4.568140  Gnorm:     0.001195  CPU:   48.906
  Cycle:     23 Defect Energy:   4.558600  Gnorm:     0.001164  CPU:   49.893
  Cycle:     24 Defect Energy:   4.545657  Gnorm:     0.001133  CPU:   50.877
  Cycle:     25 Defect Energy:   4.530260  Gnorm:     0.001103  CPU:   51.860
  Cycle:     26 Defect Energy:   4.516813  Gnorm:     0.001047  CPU:   52.986
  Cycle:     27 Defect Energy:   4.506408  Gnorm:     0.001068  CPU:   53.935
  Cycle:     28 Defect Energy:   4.495298  Gnorm:     0.001093  CPU:   54.890
  Cycle:     29 Defect Energy:   4.481995  Gnorm:     0.001140  CPU:   55.867
  Cycle:     30 Defect Energy:   4.466465  Gnorm:     0.001150  CPU:   56.894
  Cycle:     31 Defect Energy:   4.449831  Gnorm:     0.001265  CPU:   57.834
  ** Hessian calculated **
  Cycle:     32 Defect Energy:   4.434988  Gnorm:     0.001093  CPU:   60.202
  Cycle:     33 Defect Energy:   4.422058  Gnorm:     0.000854  CPU:   61.201
  Cycle:     34 Defect Energy:   4.416621  Gnorm:     0.000616  CPU:   62.104
  ** Hessian calculated **
  Cycle:     35 Defect Energy:   4.403606  Gnorm:     0.000435  CPU:   64.412
  Cycle:     36 Defect Energy:   4.396242  Gnorm:     0.000313  CPU:   65.300
  Cycle:     37 Defect Energy:   4.391025  Gnorm:     0.000204  CPU:   66.179
  Cycle:     38 Defect Energy:   4.389277  Gnorm:     0.000183  CPU:   69.054
  Cycle:     39 Defect Energy:   4.386287  Gnorm:     0.000094  CPU:   71.305
  Cycle:     40 Defect Energy:   4.385429  Gnorm:     0.000071  CPU:   72.469
  Cycle:     41 Defect Energy:   4.384671  Gnorm:     0.000052  CPU:   73.600
  Cycle:     42 Defect Energy:   4.384111  Gnorm:     0.000041  CPU:   74.735
  Cycle:     43 Defect Energy:   4.383562  Gnorm:     0.000041  CPU:   75.941
  Cycle:     44 Defect Energy:   4.382803  Gnorm:     0.000055  CPU:   77.007
  ** Hessian calculated **
  Cycle:     45 Defect Energy:   4.382768  Gnorm:     0.000031  CPU:   79.730
  Cycle:     46 Defect Energy:   4.382729  Gnorm:     0.000024  CPU:   80.871
  Cycle:     47 Defect Energy:   4.382685  Gnorm:     0.000023  CPU:   81.900
  Cycle:     48 Defect Energy:   4.382618  Gnorm:     0.000025  CPU:   82.910
  Cycle:     49 Defect Energy:   4.382539  Gnorm:     0.000030  CPU:   83.926
  Cycle:     50 Defect Energy:   4.382418  Gnorm:     0.000041  CPU:   84.934
  Cycle:     51 Defect Energy:   4.382288  Gnorm:     0.000052  CPU:   86.033
  Cycle:     52 Defect Energy:   4.382139  Gnorm:     0.000061  CPU:   87.004
  Cycle:     53 Defect Energy:   4.381984  Gnorm:     0.000075  CPU:   87.973
  Cycle:     54 Defect Energy:   4.381774  Gnorm:     0.000088  CPU:   88.953
  ** Hessian calculated **
  Cycle:     55 Defect Energy:   4.381745  Gnorm:     0.000081  CPU:   91.505
  Cycle:     56 Defect Energy:   4.381701  Gnorm:     0.000079  CPU:   92.429
  Cycle:     57 Defect Energy:   4.381646  Gnorm:     0.000077  CPU:   93.363
  Cycle:     58 Defect Energy:   4.381561  Gnorm:     0.000076  CPU:   94.287
  Cycle:     59 Defect Energy:   4.381494  Gnorm:     0.000076  CPU:   95.225
  Cycle:     60 Defect Energy:   4.381407  Gnorm:     0.000076  CPU:   96.281
  Cycle:     61 Defect Energy:   4.381355  Gnorm:     0.000079  CPU:   97.178
  Cycle:     62 Defect Energy:   4.381256  Gnorm:     0.000080  CPU:   98.075
  Cycle:     63 Defect Energy:   4.381159  Gnorm:     0.000083  CPU:   98.987
  Cycle:     64 Defect Energy:   4.380991  Gnorm:     0.000090  CPU:   99.841
  ** Hessian calculated **
  Cycle:     65 Defect Energy:   4.380955  Gnorm:     0.000085  CPU:  102.956
  Cycle:     66 Defect Energy:   4.380900  Gnorm:     0.000084  CPU:  106.296
  Cycle:     67 Defect Energy:   4.380840  Gnorm:     0.000084  CPU:  107.394
  Cycle:     68 Defect Energy:   4.380743  Gnorm:     0.000084  CPU:  108.507
  Cycle:     69 Defect Energy:   4.380646  Gnorm:     0.000087  CPU:  109.594
  Cycle:     70 Defect Energy:   4.380540  Gnorm:     0.000091  CPU:  110.806
  Cycle:     71 Defect Energy:   4.380458  Gnorm:     0.000097  CPU:  111.904
  Cycle:     72 Defect Energy:   4.380319  Gnorm:     0.000105  CPU:  112.978
  Cycle:     73 Defect Energy:   4.380162  Gnorm:     0.000117  CPU:  114.054
  Cycle:     74 Defect Energy:   4.379875  Gnorm:     0.000136  CPU:  115.133
  ** Hessian calculated **
  Cycle:     75 Defect Energy:   4.379766  Gnorm:     0.000132  CPU:  117.916
  Cycle:     76 Defect Energy:   4.379608  Gnorm:     0.000131  CPU:  118.907
  Cycle:     77 Defect Energy:   4.379393  Gnorm:     0.000128  CPU:  119.892
  Cycle:     78 Defect Energy:   4.379100  Gnorm:     0.000127  CPU:  120.972
  Cycle:     79 Defect Energy:   4.378752  Gnorm:     0.000129  CPU:  121.887
  Cycle:     80 Defect Energy:   4.378352  Gnorm:     0.000134  CPU:  122.881
  Cycle:     81 Defect Energy:   4.378053  Gnorm:     0.000145  CPU:  123.860
  Cycle:     82 Defect Energy:   4.377573  Gnorm:     0.000156  CPU:  124.836
  Cycle:     83 Defect Energy:   4.377055  Gnorm:     0.000176  CPU:  125.871
  Cycle:     84 Defect Energy:   4.376194  Gnorm:     0.000209  CPU:  126.789
  ** Hessian calculated **
  Cycle:     85 Defect Energy:   4.375848  Gnorm:     0.000202  CPU:  129.170
  Cycle:     86 Defect Energy:   4.375360  Gnorm:     0.000201  CPU:  130.153
  Cycle:     87 Defect Energy:   4.374715  Gnorm:     0.000197  CPU:  131.026
  Cycle:     88 Defect Energy:   4.373817  Gnorm:     0.000197  CPU:  131.906
  Cycle:     89 Defect Energy:   4.372710  Gnorm:     0.000203  CPU:  132.764
  Cycle:     90 Defect Energy:   4.371346  Gnorm:     0.000222  CPU:  133.684
  Cycle:     91 Defect Energy:   4.370000  Gnorm:     0.000250  CPU:  134.644
  Cycle:     92 Defect Energy:   4.368227  Gnorm:     0.000304  CPU:  136.117
  Cycle:     93 Defect Energy:   4.365683  Gnorm:     0.000374  CPU:  139.506
  Cycle:     94 Defect Energy:   4.362163  Gnorm:     0.000480  CPU:  140.605
  ** Hessian calculated **
  Cycle:     95 Defect Energy:   4.359828  Gnorm:     0.000459  CPU:  143.522
  Cycle:     96 Defect Energy:   4.356611  Gnorm:     0.000456  CPU:  144.706
  Cycle:     97 Defect Energy:   4.352151  Gnorm:     0.000437  CPU:  145.753
  Cycle:     98 Defect Energy:   4.346331  Gnorm:     0.000430  CPU:  146.814
  Cycle:     99 Defect Energy:   4.339375  Gnorm:     0.000441  CPU:  147.860
  Cycle:    100 Defect Energy:   4.333862  Gnorm:     0.000458  CPU:  148.879
  Cycle:    101 Defect Energy:   4.329231  Gnorm:     0.000497  CPU:  150.133
  Cycle:    102 Defect Energy:   4.323817  Gnorm:     0.000540  CPU:  151.142
  Cycle:    103 Defect Energy:   4.317702  Gnorm:     0.000614  CPU:  152.161
  Cycle:    104 Defect Energy:   4.309813  Gnorm:     0.000696  CPU:  153.159
  ** Hessian calculated **
  Cycle:    105 Defect Energy:   4.299027  Gnorm:     0.000696  CPU:  155.843
  Cycle:    106 Defect Energy:   4.272338  Gnorm:     0.000626  CPU:  156.815
  Cycle:    107 Defect Energy:   4.256844  Gnorm:     0.000499  CPU:  157.774
  Cycle:    108 Defect Energy:   4.251844  Gnorm:     0.000450  CPU:  158.818
  Cycle:    109 Defect Energy:   4.250380  Gnorm:     0.000469  CPU:  159.738
  Cycle:    110 Defect Energy:   4.248484  Gnorm:     0.000585  CPU:  160.666
  Cycle:    111 Defect Energy:   4.248128  Gnorm:     0.000736  CPU:  161.609
  ** Hessian calculated **
  Cycle:    112 Defect Energy:   4.244364  Gnorm:     0.000405  CPU:  164.208
  Cycle:    113 Defect Energy:   4.241703  Gnorm:     0.000310  CPU:  165.101
  Cycle:    114 Defect Energy:   4.239065  Gnorm:     0.000274  CPU:  165.992
  Cycle:    115 Defect Energy:   4.236727  Gnorm:     0.000264  CPU:  166.902
  Cycle:    116 Defect Energy:   4.234843  Gnorm:     0.000260  CPU:  167.803
  Cycle:    117 Defect Energy:   4.233379  Gnorm:     0.000277  CPU:  168.794
  Cycle:    118 Defect Energy:   4.231959  Gnorm:     0.000280  CPU:  169.448
  Cycle:    119 Defect Energy:   4.230666  Gnorm:     0.000282  CPU:  172.006
  Cycle:    120 Defect Energy:   4.229241  Gnorm:     0.000293  CPU:  175.295
  Cycle:    121 Defect Energy:   4.227840  Gnorm:     0.000294  CPU:  176.410
  ** Hessian calculated **
  Cycle:    122 Defect Energy:   4.227447  Gnorm:     0.000280  CPU:  179.332
  Cycle:    123 Defect Energy:   4.226971  Gnorm:     0.000275  CPU:  180.525
  Cycle:    124 Defect Energy:   4.226254  Gnorm:     0.000270  CPU:  181.606
  Cycle:    125 Defect Energy:   4.225366  Gnorm:     0.000269  CPU:  182.667
  Cycle:    126 Defect Energy:   4.224086  Gnorm:     0.000269  CPU:  183.732
  Cycle:    127 Defect Energy:   4.222622  Gnorm:     0.000282  CPU:  184.854
  Cycle:    128 Defect Energy:   4.221146  Gnorm:     0.000299  CPU:  185.893
  Cycle:    129 Defect Energy:   4.219966  Gnorm:     0.000310  CPU:  186.903
  Cycle:    130 Defect Energy:   4.218761  Gnorm:     0.000331  CPU:  187.895
  Cycle:    131 Defect Energy:   4.217295  Gnorm:     0.000350  CPU:  188.888
  ** Hessian calculated **
  Cycle:    132 Defect Energy:   4.212857  Gnorm:     0.000350  CPU:  191.554
  Cycle:    133 Defect Energy:   4.206156  Gnorm:     0.000349  CPU:  192.516
  Cycle:    134 Defect Energy:   4.195983  Gnorm:     0.000340  CPU:  193.465
  Cycle:    135 Defect Energy:   4.181655  Gnorm:     0.000306  CPU:  194.458
  Cycle:    136 Defect Energy:   4.174513  Gnorm:     0.000205  CPU:  195.424
  Cycle:    137 Defect Energy:   4.171953  Gnorm:     0.000157  CPU:  196.336
  Cycle:    138 Defect Energy:   4.170529  Gnorm:     0.000103  CPU:  197.265
  Cycle:    139 Defect Energy:   4.169723  Gnorm:     0.000085  CPU:  198.201
  Cycle:    140 Defect Energy:   4.169319  Gnorm:     0.000049  CPU:  199.187
  Cycle:    141 Defect Energy:   4.169141  Gnorm:     0.000039  CPU:  200.074
  ** Hessian calculated **
  Cycle:    142 Defect Energy:   4.169050  Gnorm:     0.000028  CPU:  202.426
  Cycle:    143 Defect Energy:   4.169006  Gnorm:     0.000020  CPU:  203.315
  Cycle:    144 Defect Energy:   4.168986  Gnorm:     0.000014  CPU:  204.258


  **** Optimisation achieved ****


  Final defect energy  =        4.16897740
  Final defect Gnorm   =        0.00000968

  Components of defect energy : 

--------------------------------------------------------------------------------
  Region 1 - region 1                   =    -10.91330973 eV
  Region 1 - region 2a (unrelaxed)      =     15.62754945 eV
  Region 1 - 2a (relaxed - correction)  =     -0.22868892 eV
  Region 1 (Total)                      =      4.48555080 eV
  Region 2a                             =      0.11408659 eV
  Region 2b                             =     -0.43066000 eV
--------------------------------------------------------------------------------
  Total defect energy                   =      4.16897740 eV
--------------------------------------------------------------------------------

  Largest displacement in region 2 =   0.0316 Angstroms

  Final coordinates of region 1 :

--------------------------------------------------------------------------------
   No.  Atomic        x           y           z          Radius      Charge
        Label       (Angs)      (Angs)      (Angs)       (Angs)       (e) 
--------------------------------------------------------------------------------
     1  Na    c     2.253894    0.135234    1.786224    0.000000    1.000000
     2  O     c     2.253894    2.243940    2.444406    0.000000    0.183000
     3  O     c     2.253894   -2.196911    2.241297    0.000000    0.183000
     4  Cl    c     4.594865   -0.051906    0.015498    0.000000    1.485000
     5  Cl    c    -0.087078   -0.051906    0.015498    0.000000    1.485000
     6  Na    c     4.400038    2.349758    1.854764    0.000000    1.000000
     7  Na    c     0.107749    2.349758    1.854764    0.000000    1.000000
     8  Na    c     2.253894   -2.607412    0.005485    0.000000    1.000000
     9  Na    c     2.253894    1.822971    4.587262    0.000000    1.000000
    10  Cl    c     4.557198   -0.081968    4.614573    0.000000    1.485000
    11  Cl    c    -0.049411   -0.081968    4.614573    0.000000    1.485000
    12  Na    c     4.498707   -2.218712    2.247446    0.000000    1.000000
    13  Na    c     0.009080   -2.218712    2.247446    0.000000    1.000000
    14  Na    c     2.253894   -1.787950    4.490086    0.000000    1.000000
    15  Na    c     2.253894    4.450709    2.592677    0.000000    1.000000
    16  Na    c     2.253894    0.064334   -1.783432    0.000000    1.000000
    17  Na    c    -2.101763    0.018947    2.598961    0.000000    1.000000
    18  Na    c     6.609551    0.018947    2.598961    0.000000    1.000000
    19  Na    c     2.253894   -0.013493    7.197430    0.000000    1.000000
    20  Na    c     2.253894   -4.460285    2.635626    0.000000    1.000000
    21  O     c     2.253894    2.195853   -2.407412    0.000000    0.183000
    22  O     c    -2.202858    2.258960    2.237002    0.000000    0.183000
    23  O     c     6.710646    2.258960    2.237002    0.000000    0.183000
    24  O     c     2.253894   -2.214381   -2.239476    0.000000    0.183000
    25  O     c     2.253894    2.243478    6.831551    0.000000    0.183000
    26  O     c    -2.254368   -2.240071    2.255816    0.000000    0.183000
    27  O     c     6.762155   -2.240071    2.255816    0.000000    0.183000
    28  O     c     2.253894   -2.251767    6.751782    0.000000    0.183000
    29  Cl    c     4.669627    4.656629   -0.002653    0.000000    1.485000
    30  Cl    c    -0.161840    4.656629   -0.002653    0.000000    1.485000
    31  Na    c     4.409529    2.272644   -1.854288    0.000000    1.000000
    32  Na    c     0.098259    2.272644   -1.854288    0.000000    1.000000
    33  Na    c    -2.447970    1.916711    0.003652    0.000000    1.000000
    34  Na    c     6.955757    1.916711    0.003652    0.000000    1.000000
    35  Cl    c     4.513090    4.642359    4.591891    0.000000    1.485000
    36  Cl    c    -0.005303    4.642359    4.591891    0.000000    1.485000
    37  Na    c     4.503584   -2.185536   -2.248589    0.000000    1.000000
    38  Na    c     0.004203   -2.185536   -2.248589    0.000000    1.000000
    39  Na    c    -2.239398   -1.889918    0.005005    0.000000    1.000000
    40  Na    c     6.747186   -1.889918    0.005005    0.000000    1.000000
    41  Na    c    -1.917234    2.575313    4.468539    0.000000    1.000000
    42  Na    c     6.425021    2.575313    4.468539    0.000000    1.000000
    43  Na    c     4.503008    2.256175    6.905806    0.000000    1.000000
    44  Na    c     0.004779    2.256175    6.905806    0.000000    1.000000
    45  Cl    c     4.508548   -4.513543    0.008821    0.000000    1.485000
    46  Cl    c    -0.000761   -4.513543    0.008821    0.000000    1.485000
    47  Na    c    -2.268344   -2.596259    4.498121    0.000000    1.000000
    48  Na    c     6.776131   -2.596259    4.498121    0.000000    1.000000
    49  Na    c     4.513337   -2.263558    6.670133    0.000000    1.000000
    50  Na    c    -0.005550   -2.263558    6.670133    0.000000    1.000000
    51  Cl    c     4.504084   -4.510824    4.509569    0.000000    1.485000
    52  Cl    c     0.003703   -4.510824    4.509569    0.000000    1.485000
    53  Na    c     2.253894    4.409792   -2.498812    0.000000    1.000000
    54  Na    c     6.807199    4.506222    1.917736    0.000000    1.000000
    55  Na    c    -2.299411    4.506222    1.917736    0.000000    1.000000
    56  Na    c    -2.211878    0.012076   -2.584907    0.000000    1.000000
    57  Na    c     6.719665    0.012076   -2.584907    0.000000    1.000000
    58  Na    c     2.253894    4.490450    6.367452    0.000000    1.000000
    59  Na    c     2.253894   -4.461460   -2.634334    0.000000    1.000000
    60  Na    c    -2.187331   -0.002778    6.434901    0.000000    1.000000
    61  Na    c     6.695119   -0.002778    6.434901    0.000000    1.000000
    62  Na    c     6.793822   -4.482977    1.900588    0.000000    1.000000
    63  Na    c    -2.286035   -4.482977    1.900588    0.000000    1.000000
    64  Na    c     2.253894   -4.493814    6.363359    0.000000    1.000000
    65  O     c     2.253894    6.723279    2.243803    0.000000    0.183000
    66  O     c    -2.206769    2.248435   -2.228696    0.000000    0.183000
    67  O     c     6.714556    2.248435   -2.228696    0.000000    0.183000
    68  O     c    -2.253749   -2.242349   -2.241256    0.000000    0.183000
    69  O     c     6.761537   -2.242349   -2.241256    0.000000    0.183000
    70  O     c    -2.245719    2.252275    6.721075    0.000000    0.183000
    71  O     c     6.753506    2.252275    6.721075    0.000000    0.183000
    72  O     c    -2.271054   -2.258446    6.753648    0.000000    0.183000
    73  O     c     6.778841   -2.258446    6.753648    0.000000    0.183000
    74  O     c     2.253894   -6.722750    2.248997    0.000000    0.183000
    75  Na    c     2.253894    1.856603   -4.559077    0.000000    1.000000
    76  Na    c     2.253894    6.300956    0.006177    0.000000    1.000000
    77  Cl    c     4.600063   -0.101535   -4.609151    0.000000    1.485000
    78  Cl    c    -0.092276   -0.101535   -4.609151    0.000000    1.485000
    79  Na    c     4.514758    6.698046    2.180115    0.000000    1.000000
    80  Na    c    -0.006970    6.698046    2.180115    0.000000    1.000000
    81  Na    c     2.253894   -1.827159   -4.493812    0.000000    1.000000
    82  Na    c     2.253894    7.040706    4.489897    0.000000    1.000000
    83  Cl    c     9.042175   -0.050951    0.000645    0.000000    1.485000
    84  Cl    c    -4.534388   -0.050951    0.000645    0.000000    1.485000
    85  Na    c     8.977109    2.216139    2.461976    0.000000    1.000000
    86  Na    c    -4.469322    2.216139    2.461976    0.000000    1.000000
    87  Cl    c     9.026775   -0.026833    4.510394    0.000000    1.485000
    88  Cl    c    -4.518987   -0.026833    4.510394    0.000000    1.485000
    89  Na    c     9.011365   -2.117499    2.229040    0.000000    1.000000
    90  Na    c    -4.503578   -2.117499    2.229040    0.000000    1.000000
    91  Na    c     2.253894    2.692934    9.035129    0.000000    1.000000
    92  Na    c     2.253894   -6.389984   -0.001412    0.000000    1.000000
    93  Cl    c     4.556927    0.016826    9.054285    0.000000    1.485000
    94  Cl    c    -0.049140    0.016826    9.054285    0.000000    1.485000
    95  Na    c     4.512838   -6.691846    2.154105    0.000000    1.000000
    96  Na    c    -0.005050   -6.691846    2.154105    0.000000    1.000000
    97  Na    c     2.253894   -2.656566    8.983358    0.000000    1.000000
    98  Na    c     2.253894   -7.089677    4.485711    0.000000    1.000000
    99  Na    c     6.721640    4.507265   -1.996472    0.000000    1.000000
   100  Na    c    -2.213853    4.507265   -1.996472    0.000000    1.000000
   101  Na    c     6.864280    4.497653    6.973756    0.000000    1.000000
   102  Na    c    -2.356493    4.497653    6.973756    0.000000    1.000000
   103  Na    c     6.720260   -4.494089   -1.978188    0.000000    1.000000
   104  Na    c    -2.212472   -4.494089   -1.978188    0.000000    1.000000
   105  O     c     2.253894    6.700715   -2.233077    0.000000    0.183000
   106  Na    c     6.874159   -4.492745    7.058148    0.000000    1.000000
   107  Na    c    -2.366372   -4.492745    7.058148    0.000000    1.000000
   108  O     c    -2.274628    6.759224    2.256518    0.000000    0.183000
   109  O     c     6.782415    6.759224    2.256518    0.000000    0.183000
   110  O     c     2.253894    6.750402    6.755724    0.000000    0.183000
   111  O     c     2.253894   -6.717877   -2.246284    0.000000    0.183000
   112  O     c     6.771772   -6.738618    2.248824    0.000000    0.183000
   113  O     c    -2.263985   -6.738618    2.248824    0.000000    0.183000
   114  Cl    c     4.551237    4.626315   -4.609926    0.000000    1.485000
   115  Cl    c    -0.043450    4.626315   -4.609926    0.000000    1.485000
   116  Na    c     4.509593    6.727620   -2.170665    0.000000    1.000000
   117  Na    c    -0.001806    6.727620   -2.170665    0.000000    1.000000
   118  Na    c     6.462916    2.464006   -4.474249    0.000000    1.000000
   119  Na    c    -1.955129    2.464006   -4.474249    0.000000    1.000000
   120  Na    c    -2.339083    6.972997    0.001613    0.000000    1.000000
   121  Na    c     6.846871    6.972997    0.001613    0.000000    1.000000
   122  O     c     2.253894   -6.748772    6.737736    0.000000    0.183000
   123  Cl    c     9.047314    4.508655   -0.035046    0.000000    1.485000
   124  Cl    c    -4.539526    4.508655   -0.035046    0.000000    1.485000
   125  Na    c     8.979115    2.321277   -2.423859    0.000000    1.000000
   126  Na    c    -4.471328    2.321277   -2.423859    0.000000    1.000000
   127  Na    c    -2.269392   -2.468303   -4.495334    0.000000    1.000000
   128  Na    c     6.777179   -2.468303   -4.495334    0.000000    1.000000
   129  Na    c    -2.134276    6.551731    4.507548    0.000000    1.000000
   130  Na    c     6.642063    6.551731    4.507548    0.000000    1.000000
   131  Cl    c     4.533085   -4.546388   -4.528161    0.000000    1.485000
   132  Cl    c    -0.025297   -4.546388   -4.528161    0.000000    1.485000
   133  Cl    c     9.055736    4.512768    4.531554    0.000000    1.485000
   134  Cl    c    -4.547949    4.512768    4.531554    0.000000    1.485000
   135  Na    c     4.508889    6.657661    6.772359    0.000000    1.000000
   136  Na    c    -0.001102    6.657661    6.772359    0.000000    1.000000
   137  Na    c     9.013340   -2.253148   -2.179722    0.000000    1.000000
   138  Na    c    -4.505552   -2.253148   -2.179722    0.000000    1.000000
   139  Cl    c     4.528409    4.518115    9.049386    0.000000    1.485000
   140  Cl    c    -0.020622    4.518115    9.049386    0.000000    1.485000
   141  Na    c     4.510359   -6.729561   -2.150870    0.000000    1.000000
   142  Na    c    -0.002571   -6.729561   -2.150870    0.000000    1.000000
   143  Na    c     9.002444    2.175452    6.501954    0.000000    1.000000
   144  Na    c    -4.494656    2.175452    6.501954    0.000000    1.000000
   145  Cl    c     9.028918   -4.572731   -0.030764    0.000000    1.485000
   146  Cl    c    -4.521131   -4.572731   -0.030764    0.000000    1.485000
   147  Na    c    -2.374916    2.037915    8.985099    0.000000    1.000000
   148  Na    c     6.882703    2.037915    8.985099    0.000000    1.000000
   149  Na    c     6.942661   -7.015049    0.008735    0.000000    1.000000
   150  Na    c    -2.434874   -7.015049    0.008735    0.000000    1.000000
   151  Na    c     9.020844   -2.115199    6.741234    0.000000    1.000000
   152  Na    c    -4.513056   -2.115199    6.741234    0.000000    1.000000
   153  Cl    c     9.039675   -4.560113    4.552190    0.000000    1.485000
   154  Cl    c    -4.531888   -4.560113    4.552190    0.000000    1.485000
   155  Na    c     6.730911   -1.999311    9.000186    0.000000    1.000000
   156  Na    c    -2.223124   -1.999311    9.000186    0.000000    1.000000
   157  Na    c     6.638176   -6.492199    4.506101    0.000000    1.000000
[...]
    238 y          2.253894      2.243485    -0.010409    Cartesian   -0.46
    238 z          6.761681      6.831605     0.069924    Cartesian    1.03
    239 x         -2.253894     -2.254363    -0.000469    Cartesian    0.02
    239 y         -2.253894     -2.240071     0.013823    Cartesian   -0.61
    239 z          2.253894      2.255812     0.001919    Cartesian    0.09
    240 x          2.253894      2.253894     0.000000    Cartesian    0.00
    240 y         -2.253894     -2.251782     0.002112    Cartesian   -0.09
    240 z          6.761681      6.751809    -0.009872    Cartesian   -0.15
    241 x          4.507787      4.686789     0.179002    Cartesian    3.97
    241 y          4.507787      4.666562     0.158774    Cartesian    3.52
    241 z          0.000000     -0.001953    -0.001953    Cartesian    0.00
    242 x          4.507787      4.521425     0.013638    Cartesian    0.30
    242 y          4.507787      4.650176     0.142389    Cartesian    3.16
    242 z          4.507787      4.603605     0.095818    Cartesian    2.13
    243 x          4.507787      4.505959    -0.001828    Cartesian   -0.04
    243 y         -4.507787     -4.519698    -0.011911    Cartesian    0.26
    243 z          0.000000      0.010213     0.010213    Cartesian    0.00
    244 x          4.507787      4.501627    -0.006161    Cartesian   -0.14
    244 y         -4.507787     -4.513030    -0.005243    Cartesian    0.12
    244 z          4.507787      4.512934     0.005147    Cartesian    0.11
    245 x          2.253894      2.253894     0.000000    Cartesian    0.00
    245 y          6.761681      6.723289    -0.038392    Cartesian   -0.57
    245 z          2.253894      2.243798    -0.010096    Cartesian   -0.45
    246 x         -2.253894     -2.206839     0.047054    Cartesian   -2.09
    246 y          2.253894      2.248426    -0.005468    Cartesian   -0.24
    246 z         -2.253894     -2.228703     0.025191    Cartesian   -1.12
    247 x         -2.253894     -2.253744     0.000150    Cartesian   -0.01
    247 y         -2.253894     -2.242339     0.011554    Cartesian   -0.51
    247 z         -2.253894     -2.241270     0.012624    Cartesian   -0.56
    248 x         -2.253894     -2.245696     0.008198    Cartesian   -0.36
    248 y          2.253894      2.252291    -0.001603    Cartesian   -0.07
    248 z          6.761681      6.721094    -0.040586    Cartesian   -0.60
    249 x         -2.253894     -2.271075    -0.017181    Cartesian    0.76
    249 y         -2.253894     -2.258458    -0.004565    Cartesian    0.20
    249 z          6.761681      6.753658    -0.008023    Cartesian   -0.12
    250 x          2.253894      2.253894     0.000000    Cartesian    0.00
    250 y         -6.761681     -6.722771     0.038910    Cartesian   -0.58
    250 z          2.253894      2.248986    -0.004907    Cartesian   -0.22
    251 x          4.507787      4.607215     0.099428    Cartesian    2.21
    251 y          0.000000     -0.113939    -0.113939    Cartesian    0.00
    251 z         -4.507787     -4.616376    -0.108589    Cartesian    2.41
    252 x          9.015574      9.041077     0.025502    Cartesian    0.28
    252 y          0.000000     -0.053798    -0.053798    Cartesian    0.00
    252 z          0.000000      0.001762     0.001762    Cartesian    0.00
    253 x          9.015574      9.030724     0.015150    Cartesian    0.17
    253 y          0.000000     -0.022819    -0.022819    Cartesian    0.00
    253 z          4.507787      4.513007     0.005219    Cartesian    0.12
    254 x          4.507787      4.554529     0.046742    Cartesian    1.04
    254 y          0.000000      0.017834     0.017834    Cartesian    0.00
    254 z          9.015574      9.058413     0.042839    Cartesian    0.48
    255 x          2.253894      2.253894     0.000000    Cartesian    0.00
    255 y          6.761681      6.700715    -0.060966    Cartesian   -0.90
    255 z         -2.253894     -2.233093     0.020801    Cartesian   -0.92
    256 x         -2.253894     -2.274643    -0.020750    Cartesian    0.92
    256 y          6.761681      6.759249    -0.002432    Cartesian   -0.04
    256 z          2.253894      2.256504     0.002610    Cartesian    0.12
    257 x          2.253894      2.253894     0.000000    Cartesian    0.00
    257 y          6.761681      6.750429    -0.011252    Cartesian   -0.17
    257 z          6.761681      6.755725    -0.005956    Cartesian   -0.09
    258 x          2.253894      2.253894     0.000000    Cartesian    0.00
    258 y         -6.761681     -6.717884     0.043797    Cartesian   -0.65
    258 z         -2.253894     -2.246305     0.007588    Cartesian   -0.34
    259 x          6.761681      6.771785     0.010105    Cartesian    0.15
    259 y         -6.761681     -6.738635     0.023046    Cartesian   -0.34
    259 z          2.253894      2.248803    -0.005090    Cartesian   -0.23
    260 x          4.507787      4.562597     0.054809    Cartesian    1.22
    260 y          4.507787      4.633720     0.125933    Cartesian    2.79
    260 z         -4.507787     -4.622870    -0.115083    Cartesian    2.55
    261 x          2.253894      2.253894     0.000000    Cartesian    0.00
    261 y         -6.761681     -6.748795     0.012885    Cartesian   -0.19
    261 z          6.761681      6.737735    -0.023946    Cartesian   -0.35
    262 x          9.015574      9.050568     0.034993    Cartesian    0.39
    262 y          4.507787      4.511047     0.003260    Cartesian    0.07
    262 z          0.000000     -0.033237    -0.033237    Cartesian    0.00
    263 x          4.507787      4.532699     0.024912    Cartesian    0.55
    263 y         -4.507787     -4.550387    -0.042599    Cartesian    0.95
    263 z         -4.507787     -4.531145    -0.023358    Cartesian    0.52
    264 x          9.015574      9.064498     0.048923    Cartesian    0.54
    264 y          4.507787      4.509289     0.001502    Cartesian    0.03
    264 z          4.507787      4.534285     0.026498    Cartesian    0.59
    265 x          4.507787      4.521552     0.013764    Cartesian    0.31
    265 y          4.507787      4.515577     0.007789    Cartesian    0.17
    265 z          9.015574      9.051122     0.035548    Cartesian    0.39
    266 x          9.015574      9.028176     0.012601    Cartesian    0.14
    266 y         -4.507787     -4.579165    -0.071378    Cartesian    1.58
    266 z          0.000000     -0.030369    -0.030369    Cartesian    0.00
    267 x          9.015574      9.042407     0.026833    Cartesian    0.30
    267 y         -4.507787     -4.563740    -0.055952    Cartesian    1.24
    267 z          4.507787      4.554507     0.046720    Cartesian    1.04
    268 x          4.507787      4.511633     0.003846    Cartesian    0.09
    268 y         -4.507787     -4.553525    -0.045737    Cartesian    1.01
    268 z          9.015574      9.039527     0.023953    Cartesian    0.27
    269 x         -2.253894     -2.265026    -0.011133    Cartesian    0.49
    269 y          6.761681      6.769397     0.007716    Cartesian    0.11
    269 z         -2.253894     -2.250825     0.003069    Cartesian   -0.14
    270 x          2.253894      2.253894     0.000000    Cartesian    0.00
    270 y          2.253894      2.224033    -0.029860    Cartesian   -1.32
    270 z         -6.761681     -6.800039    -0.038358    Cartesian    0.57
    271 x          2.253894      2.253894     0.000000    Cartesian    0.00
    271 y         -2.253894     -2.235440     0.018454    Cartesian   -0.82
    271 z         -6.761681     -6.749087     0.012594    Cartesian   -0.19
    272 x         -2.253894     -2.265571    -0.011677    Cartesian    0.52
    272 y          6.761681      6.749391    -0.012290    Cartesian   -0.18
    272 z          6.761681      6.769385     0.007704    Cartesian    0.11
    273 x         11.269468     11.246857    -0.022611    Cartesian   -0.20
    273 y          2.253894      2.247543    -0.006351    Cartesian   -0.28
    273 z          2.253894      2.260354     0.006461    Cartesian    0.29
    274 x          6.761681      6.767161     0.005480    Cartesian    0.08
    274 y         -6.761681     -6.757427     0.004254    Cartesian   -0.06
    274 z         -2.253894     -2.231853     0.022040    Cartesian   -0.98
    275 x         11.269468     11.269665     0.000197    Cartesian    0.00
    275 y         -2.253894     -2.238280     0.015613    Cartesian   -0.69
    275 z          2.253894      2.258472     0.004578    Cartesian    0.20
    276 x          2.253894      2.253894     0.000000    Cartesian    0.00
    276 y          2.253894      2.251402    -0.002492    Cartesian   -0.11
    276 z         11.269468     11.251728    -0.017740    Cartesian   -0.16
    277 x          4.507787      4.525878     0.018091    Cartesian    0.40
    277 y          9.015574      9.062849     0.047275    Cartesian    0.52
    277 z          0.000000     -0.001925    -0.001925    Cartesian    0.00
    278 x          2.253894      2.253894     0.000000    Cartesian    0.00
    278 y         -2.253894     -2.251740     0.002154    Cartesian   -0.10
    278 z         11.269468     11.233308    -0.036160    Cartesian   -0.32
    279 x          6.761681      6.759762    -0.001919    Cartesian   -0.03
    279 y         -6.761681     -6.738206     0.023475    Cartesian   -0.35
    279 z          6.761681      6.764536     0.002855    Cartesian    0.04
    280 x          4.507787      4.556613     0.048826    Cartesian    1.08
    280 y          9.015574      9.060865     0.045290    Cartesian    0.50
    280 z          4.507787      4.527922     0.020135    Cartesian    0.45
    281 x          9.015574      9.057047     0.041472    Cartesian    0.46
    281 y          0.000000     -0.025366    -0.025366    Cartesian    0.00
    281 z         -4.507787     -4.508141    -0.000354    Cartesian    0.01
    282 x          4.507787      4.491988    -0.015799    Cartesian   -0.35
    282 y         -9.015574     -9.029648    -0.014073    Cartesian    0.16
    282 z          0.000000     -0.009747    -0.009747    Cartesian    0.00
    283 x          9.015574      9.025806     0.010232    Cartesian    0.11
    283 y          0.000000     -0.030709    -0.030709    Cartesian    0.00
    283 z          9.015574      9.077022     0.061447    Cartesian    0.68
    284 x          4.507787      4.543579     0.035792    Cartesian    0.79
    284 y         -9.015574     -9.060118    -0.044544    Cartesian    0.49
    284 z          4.507787      4.509577     0.001790    Cartesian    0.04
    285 x          6.761681      6.735183    -0.026497    Cartesian   -0.39
    285 y          2.253894      2.265477     0.011584    Cartesian    0.51
    285 z         -6.761681     -6.738718     0.022963    Cartesian   -0.34
    286 x         11.269468     11.252364    -0.017104    Cartesian   -0.15
    286 y          2.253894      2.241536    -0.012357    Cartesian   -0.55
    286 z         -2.253894     -2.265557    -0.011663    Cartesian    0.52
    287 x         -2.253894     -2.265862    -0.011969    Cartesian    0.53
    287 y         -2.253894     -2.276077    -0.022184    Cartesian    0.98
    287 z         -6.761681     -6.758092     0.003589    Cartesian   -0.05
    288 x         11.269468     11.273552     0.004084    Cartesian    0.04
    288 y         -2.253894     -2.237671     0.016222    Cartesian   -0.72
    288 z         -2.253894     -2.241829     0.012065    Cartesian   -0.54
    289 x         11.269468     11.262605    -0.006863    Cartesian   -0.06
    289 y          2.253894      2.258007     0.004114    Cartesian    0.18
    289 z          6.761681      6.715805    -0.045876    Cartesian   -0.68
    290 x         -2.253894     -2.272661    -0.018767    Cartesian    0.83
    290 y          2.253894      2.236743    -0.017150    Cartesian   -0.76
    290 z         11.269468     11.258023    -0.011445    Cartesian   -0.10
    291 x         11.269468     11.269343    -0.000125    Cartesian   -0.00
    291 y         -2.253894     -2.252680     0.001214    Cartesian   -0.05
    291 z          6.761681      6.740056    -0.021625    Cartesian   -0.32
    292 x          9.015574      9.069444     0.053870    Cartesian    0.60
    292 y          4.507787      4.494403    -0.013384    Cartesian   -0.30
    292 z         -4.507787     -4.531675    -0.023888    Cartesian    0.53
    293 x         -2.253894     -2.254150    -0.000257    Cartesian    0.01
    293 y         -2.253894     -2.236310     0.017583    Cartesian   -0.78
    293 z         11.269468     11.260379    -0.009089    Cartesian   -0.08
    294 x          9.015574      9.032620     0.017046    Cartesian    0.19
    294 y         -4.507787     -4.534438    -0.026651    Cartesian    0.59
    294 z         -4.507787     -4.550426    -0.042639    Cartesian    0.95
    295 x          9.015574      9.053584     0.038010    Cartesian    0.42
    295 y          4.507787      4.508442     0.000655    Cartesian    0.01
    295 z          9.015574      9.052869     0.037295    Cartesian    0.41
    296 x          9.015574      9.061243     0.045669    Cartesian    0.51
    296 y         -4.507787     -4.535664    -0.027877    Cartesian    0.62
    296 z          9.015574      9.044656     0.029081    Cartesian    0.32
    297 x          2.253894      2.253894     0.000000    Cartesian    0.00
    297 y          6.761681      6.769610     0.007929    Cartesian    0.12
    297 z         -6.761681     -6.748029     0.013651    Cartesian   -0.20
    298 x          2.253894      2.253894     0.000000    Cartesian    0.00
    298 y         11.269468     11.248378    -0.021090    Cartesian   -0.19
    298 z          2.253894      2.227047    -0.026847    Cartesian   -1.19
    299 x         11.269468     11.269382    -0.000086    Cartesian   -0.00
    299 y          6.761681      6.750554    -0.011127    Cartesian   -0.16
    299 z          2.253894      2.244869    -0.009025    Cartesian   -0.40
    300 x          2.253894      2.253894     0.000000    Cartesian    0.00
    300 y         -6.761681     -6.768739    -0.007059    Cartesian    0.10
    300 z         -6.761681     -6.739838     0.021843    Cartesian   -0.32
    301 x          2.253894      2.253894     0.000000    Cartesian    0.00
    301 y          6.761681      6.738105    -0.023576    Cartesian   -0.35
    301 z         11.269468     11.278235     0.008767    Cartesian    0.08
    302 x          4.507787      4.530190     0.022403    Cartesian    0.50
    302 y          9.015574      9.059494     0.043920    Cartesian    0.49
    302 z         -4.507787     -4.510176    -0.002389    Cartesian    0.05
    303 x         11.269468     11.267798    -0.001670    Cartesian   -0.01
    303 y         -6.761681     -6.748251     0.013430    Cartesian   -0.20
    303 z          2.253894      2.248447    -0.005446    Cartesian   -0.24
    304 x          4.507787      4.506022    -0.001765    Cartesian   -0.04
    304 y          0.000000      0.026324     0.026324    Cartesian    0.00
    304 z         -9.015574     -9.059096    -0.043521    Cartesian    0.48
    305 x          9.015574      9.100737     0.085163    Cartesian    0.94
    305 y          9.015574      9.040847     0.025273    Cartesian    0.28
    305 z          0.000000      0.008576     0.008576    Cartesian    0.00
    306 x          2.253894      2.253894     0.000000    Cartesian    0.00
    306 y        -11.269468    -11.251374     0.018094    Cartesian   -0.16
    306 z          2.253894      2.226049    -0.027845    Cartesian   -1.24
    307 x          9.015574      9.008245    -0.007329    Cartesian   -0.08
    307 y          9.015574      9.056091     0.040517    Cartesian    0.45
    307 z          4.507787      4.518196     0.010409    Cartesian    0.23
    308 x          2.253894      2.253894     0.000000    Cartesian    0.00
    308 y         -6.761681     -6.741088     0.020593    Cartesian   -0.30
    308 z         11.269468     11.274688     0.005220    Cartesian    0.05
    309 x          4.507787      4.519984     0.012196    Cartesian    0.27
    309 y          9.015574      9.050746     0.035171    Cartesian    0.39
    309 z          9.015574      9.050947     0.035373    Cartesian    0.39
    310 x         13.523362     13.591970     0.068608    Cartesian    0.51
    310 y          0.000000      0.000903     0.000903    Cartesian    0.00
    310 z          0.000000      0.021766     0.021766    Cartesian    0.00
    311 x         13.523362     13.575738     0.052376    Cartesian    0.39
    311 y          0.000000      0.004395     0.004395    Cartesian    0.00
    311 z          4.507787      4.524740     0.016953    Cartesian    0.38
    312 x          4.507787      4.513229     0.005442    Cartesian    0.12
    312 y         -9.015574     -9.049961    -0.034386    Cartesian    0.38
    312 z         -4.507787     -4.517691    -0.009903    Cartesian    0.22
    313 x          9.015574      9.080959     0.065385    Cartesian    0.73
    313 y         -9.015574     -9.048212    -0.032638    Cartesian    0.36
    313 z          0.000000     -0.000533    -0.000533    Cartesian    0.00
    314 x          4.507787      4.519013     0.011225    Cartesian    0.25
    314 y          0.000000     -0.011475    -0.011475    Cartesian    0.00
    314 z         13.523362     13.594642     0.071280    Cartesian    0.53
    315 x          9.015574      8.984834    -0.030740    Cartesian   -0.34
    315 y         -9.015574     -9.066234    -0.050659    Cartesian    0.56
    315 z          4.507787      4.511330     0.003543    Cartesian    0.08
    316 x          4.507787      4.513466     0.005679    Cartesian    0.13
    316 y         -9.015574     -9.046237    -0.030663    Cartesian    0.34
    316 z          9.015574      9.031499     0.015925    Cartesian    0.18
    317 x          2.253894      2.253894     0.000000    Cartesian    0.00
    317 y         11.269468     11.273108     0.003640    Cartesian    0.03
    317 z         -2.253894     -2.243830     0.010063    Cartesian   -0.45
    318 x         -2.253894     -2.263749    -0.009855    Cartesian    0.44
    318 y          6.761681      6.761487    -0.000193    Cartesian   -0.00
    318 z         -6.761681     -6.775844    -0.014164    Cartesian    0.21
--------------------------------------------------------------------------------


  Time to end of optimisation  =      206.1776 seconds


  Peak dynamic memory used =      92.19 MB 


  Timing analysis for GULP :

--------------------------------------------------------------------------------
  Task / Subroutine                                          Time (Seconds)
--------------------------------------------------------------------------------
  Calculation of reciprocal space energy and derivatives          0.0030
  Calculation of reciprocal space energy using symmetry           0.0042
  Calculation of real space energy and derivatives                0.0176
  Calculation of real space energy using symmetry                 0.0414
  Calculation for region 1 energy and derivatives (2-b)         115.5512
  Calculation for region 2a energy                               82.6593
  Calculation for region 2b energy                                0.0361
  Calculation and manipulation of Hessian matrix                  0.2498
  Calculation of matrix inversion                                 6.7253
  Symmetry generation of equivalent positions                     0.0212
--------------------------------------------------------------------------------
  Total CPU time                                                206.1781
--------------------------------------------------------------------------------


  Dump file written as Na3OCl.grs


  Job Finished at 22:37.59 30th November   2020                               

