********************************************************************************
*                       GENERAL UTILITY LATTICE PROGRAM                        *
*                                 Julian Gale                                  *
*                       Curtin Institute for Computation                       *
*                    School of Molecular and Life Sciences                     *
*                    Curtin University, Western Australia                      *
********************************************************************************
* Version = 5.2.0 * Last modified =  10th September 2020                       *
********************************************************************************
*  optimise     - perform optimisation run                                     *
*  conp         - constant pressure calculation                                *
*  property     - calculate properties for final geometry                      *
*  defect       - perform defect calculation after bulk run                    *
*  compare      - compare initial and final structures                         *
********************************************************************************

  Job Started  at 22:34.38 30th November   2020                               

  Number of CPUs =     1


  Total number of configurations input =      1

********************************************************************************
*  Input for Configuration =   1                                               *
********************************************************************************

  Formula = ClONa3                                                      

  Number of irreducible atoms/shells =       5


  Total number atoms/shells =       7

  Dimensionality = 3               :  Bulk   


  Symmetry :

  Crystal family                   :  Cubic       
  Crystal class  (Groth - 1921)    :  Cubic Hexakisoctahedral              

  Space group (centrosymmetric)    :  P M 3 M         

  Patterson group                  :  P m -3 m 

  Cartesian lattice vectors (Angstroms) :

        4.504000    0.000000    0.000000
        0.000000    4.504000    0.000000
        0.000000    0.000000    4.504000

  Cell parameters (Angstroms/Degrees):

  a =       4.5040    alpha =  90.0000
  b =       4.5040    beta  =  90.0000
  c =       4.5040    gamma =  90.0000

  Initial cell volume =          91.368216 Angs**3

  Temperature of configuration =   0.00     K 

  Pressure of configuration =         0.000 GPa 

  Fractional coordinates of asymmetric unit :

--------------------------------------------------------------------------------
   No.  Atomic       x           y          z         Charge      Occupancy
        Label      (Frac)      (Frac)     (Frac)        (e)         (Frac)  
--------------------------------------------------------------------------------
      1 Cl    c    0.000000    0.000000    0.000000     1.48500    1.000000    
      2 O     c    0.500000    0.500000    0.500000     0.18300    1.000000    
      3 Na    c    0.500000    0.500000    0.000000     1.00000    1.000000    
      4 Cl    s    0.000000    0.000000    0.000000    -2.48500    1.000000    
      5 O     s    0.500000    0.500000    0.500000    -2.18300    1.000000    
--------------------------------------------------------------------------------


  Constraints : 

--------------------------------------------------------------------------------
  Constraint no.      Unconstrained     Constrained    Coefficient    Offset
                         Variable         Variable
--------------------------------------------------------------------------------
           1              Strain 1        Strain 2       1.00000      0.0000
           2              Strain 1        Strain 3       1.00000      0.0000
--------------------------------------------------------------------------------


********************************************************************************
*  General input information                                                   *
********************************************************************************

  Species output for all configurations : 

--------------------------------------------------------------------------------
  Species    Type    Atomic    Atomic    Charge       Radii (Angs)     Library
                     Number     Mass       (e)     Cova   Ionic  VDW   Symbol
--------------------------------------------------------------------------------
    Na       Core       11      22.99   1.000000   0.970  0.000  2.300          
    O        Core        8      16.00   0.183000   0.730  0.000  1.360          
    O        Shell       8       0.00  -2.183000   0.730  0.000  1.360          
    Cl       Core       17      35.45   1.485000   0.990  0.000  1.650          
    Cl       Shell      17       0.00  -2.485000   0.990  0.000  1.650          
    Mg       Core       12      24.31   0.415000   1.100  0.000  0.000          
    Mg       Shell      12       0.00   1.585000   1.100  0.000  0.000          
    Ca       Core       20      40.08  -1.135000   0.990  0.000  0.000          
    Ca       Shell      20       0.00   3.135000   0.990  0.000  0.000          
    Sr       Core       38      87.62  -1.251000   1.120  0.000  0.000          
    Sr       Shell      38       0.00   3.251000   1.120  0.000  0.000          
    Ba       Core       56     137.33  -7.203000   1.340  0.000  0.000          
    Ba       Shell      56       0.00   9.203000   1.340  0.000  0.000          
--------------------------------------------------------------------------------


  Lattice summation method               =    Ewald          (3-D)
                                         =    Parry          (2-D)
                                         =    Saunders et al (1-D)
  Accuracy factor for lattice sums       =   12.000


  Analytic derivatives to be used

  Time limit = Infinity

  Maximum range for interatomic potentials =    100000.000000 Angstroms

  General interatomic potentials :

--------------------------------------------------------------------------------
Atom  Types   Potential      Parameter       Value         Units   Cutoffs(Ang)
  1     2                                                            Min /  Max 
--------------------------------------------------------------------------------
O    c O    s Spring (c-s)  Spring k 2       593.71600    eV*Ang^-2 0.000  0.800
                            Spring k 4       0.0000000    eV*Ang^-4 
--------------------------------------------------------------------------------
Cl   c Cl   s Spring (c-s)  Spring k 2       29.380000    eV*Ang^-2 0.000  0.800
                            Spring k 4       0.0000000    eV*Ang^-4 
--------------------------------------------------------------------------------
Mg   c Mg   s Spring (c-s)  Spring k 2       361.60000    eV*Ang^-2 0.000  0.800
                            Spring k 4       0.0000000    eV*Ang^-4 
--------------------------------------------------------------------------------
Ca   c Ca   s Spring (c-s)  Spring k 2       110.20000    eV*Ang^-2 0.000  0.800
                            Spring k 4       0.0000000    eV*Ang^-4 
--------------------------------------------------------------------------------
Sr   c Sr   s Spring (c-s)  Spring k 2       71.700000    eV*Ang^-2 0.000  0.800
                            Spring k 4       0.0000000    eV*Ang^-4 
--------------------------------------------------------------------------------
Ba   c Ba   s Spring (c-s)  Spring k 2       495.20000    eV*Ang^-2 0.000  0.800
                            Spring k 4       0.0000000    eV*Ang^-4 
--------------------------------------------------------------------------------
Na   c Na   c Buckingham    Buckingham A     1788.1900    eV        0.000 12.000
                            Buckingham rho  0.15900000    Ang       
                            Buckingham C     0.0000000    eV*Ang^6  
--------------------------------------------------------------------------------
Na   c O    s Buckingham    Buckingham A     1226.8400    eV        0.000 12.000
                            Buckingham rho  0.30700000    Ang       
                            Buckingham C     0.0000000    eV*Ang^6  
--------------------------------------------------------------------------------
Na   c Cl   s Buckingham    Buckingham A     2314.7000    eV        0.000 12.000
                            Buckingham rho  0.29000000    Ang       
                            Buckingham C     0.0000000    eV*Ang^6  
--------------------------------------------------------------------------------
O    s O    s Buckingham    Buckingham A     22764.300    eV        0.000 12.000
                            Buckingham rho  0.14900000    Ang       
                            Buckingham C     13.190000    eV*Ang^6  
--------------------------------------------------------------------------------
O    s Cl   s Buckingham    Buckingham A     8286.9100    eV        0.000 12.000
                            Buckingham rho  0.25900000    Ang       
                            Buckingham C     62.200000    eV*Ang^6  
--------------------------------------------------------------------------------
Cl   s Cl   s Buckingham    Buckingham A     1227.2000    eV        0.000 12.000
                            Buckingham rho  0.32100000    Ang       
                            Buckingham C     14.530000    eV*Ang^6  
--------------------------------------------------------------------------------
O    s Mg   s Buckingham    Buckingham A     1428.5000    eV        0.000 12.000
                            Buckingham rho  0.29450000    Ang       
                            Buckingham C     0.0000000    eV*Ang^6  
--------------------------------------------------------------------------------
Mg   s Cl   s Buckingham    Buckingham A     4914.5400    eV        0.000 12.000
                            Buckingham rho  0.25700000    Ang       
                            Buckingham C     0.0000000    eV*Ang^6  
--------------------------------------------------------------------------------
O    s Ca   s Buckingham    Buckingham A     1090.4000    eV        0.000 12.000
                            Buckingham rho  0.34370000    Ang       
                            Buckingham C     0.0000000    eV*Ang^6  
--------------------------------------------------------------------------------
Cl   s Ca   s Buckingham    Buckingham A     2302.0000    eV        0.000 12.000
                            Buckingham rho  0.34020000    Ang       
                            Buckingham C     0.0000000    eV*Ang^6  
--------------------------------------------------------------------------------
O    s Sr   s Buckingham    Buckingham A     959.10000    eV        0.000 12.000
                            Buckingham rho  0.37210000    Ang       
                            Buckingham C     0.0000000    eV*Ang^6  
--------------------------------------------------------------------------------
Cl   s Sr   s Buckingham    Buckingham A     2191.0900    eV        0.000 12.000
                            Buckingham rho  0.34570000    Ang       
                            Buckingham C     0.0000000    eV*Ang^6  
--------------------------------------------------------------------------------
O    s Ba   s Buckingham    Buckingham A     905.70000    eV        0.000 12.000
                            Buckingham rho  0.39760000    Ang       
                            Buckingham C     0.0000000    eV*Ang^6  
--------------------------------------------------------------------------------
Cl   s Ba   s Buckingham    Buckingham A     2704.5500    eV        0.000 12.000
                            Buckingham rho  0.35280000    Ang       
                            Buckingham C     0.0000000    eV*Ang^6  
--------------------------------------------------------------------------------

********************************************************************************
*  Output for configuration   1                                                *
********************************************************************************


  Components of energy : 

--------------------------------------------------------------------------------
  Interatomic potentials     =           5.13022605 eV    
  Monopole - monopole (real) =         -10.03624526 eV    
  Monopole - monopole (recip)=         -29.53581274 eV    
  Monopole - monopole (total)=         -39.57205800 eV    
--------------------------------------------------------------------------------
  Total lattice energy       =         -34.44183194 eV    
--------------------------------------------------------------------------------
  Total lattice energy       =           -3323.1103 kJ/(mole unit cells)
--------------------------------------------------------------------------------


  Number of variables =        1

  Maximum number of calculations  =          1000
  Maximum Hessian update interval =            10
  Maximum step size               =   1.000000000
  Maximum parameter tolerance     =   0.000010000
  Maximum function  tolerance     =   0.000010000
  Maximum gradient  tolerance     =   0.001000000
  Maximum gradient  component     =   0.010000000

  Symmetry constrained optimisation

  Symmetry used for second derivatives

  Cell parameters to be optimised using strains

  Newton-Raphson optimiser to be used

  BFGS hessian update to be used

  Lower half triangular hessian to be used

  Start of bulk optimisation :

  Cycle:      0 Energy:       -34.441832  Gnorm:      0.196570  CPU:    0.016
  ** Hessian calculated **
  Cycle:      1 Energy:       -34.441914  Gnorm:      0.000103  CPU:    0.020


  **** Optimisation achieved ****


  Final energy =     -34.44191447 eV
  Final Gnorm  =       0.00000000

  Components of energy : 

--------------------------------------------------------------------------------
  Interatomic potentials     =           5.09689708 eV    
  Monopole - monopole (real) =         -10.02781331 eV    
  Monopole - monopole (recip)=         -29.51099824 eV    
  Monopole - monopole (total)=         -39.53881155 eV    
--------------------------------------------------------------------------------
  Total lattice energy       =         -34.44191447 eV    
--------------------------------------------------------------------------------
  Total lattice energy       =           -3323.1183 kJ/(mole unit cells)
--------------------------------------------------------------------------------

  Final asymmetric unit coordinates :

--------------------------------------------------------------------------------
   No.  Atomic        x           y           z         Radius
        Label       (Frac)      (Frac)      (Frac)       (Angs) 
--------------------------------------------------------------------------------
     1  Cl    c     0.000000    0.000000    0.000000    0.000000
     2  O     c     0.500000    0.500000    0.500000    0.000000
     3  Na    c     0.500000    0.500000    0.000000    0.000000
     4  Cl    s     0.000000    0.000000    0.000000    0.000000
     5  O     s     0.500000    0.500000    0.500000    0.000000
--------------------------------------------------------------------------------

  Final Cartesian lattice vectors (Angstroms) :

        4.507787    0.000000    0.000000
        0.000000    4.507787    0.000000
        0.000000    0.000000    4.507787


  Final cell parameters and derivatives :

--------------------------------------------------------------------------------
       a            4.507787 Angstrom     dE/de1(xx)     0.000000 eV/strain
       b            4.507787 Angstrom     dE/de2(yy)     0.000000 eV/strain
       c            4.507787 Angstrom     dE/de3(zz)     0.000000 eV/strain
       alpha       90.000000 Degrees      dE/de4(yz)     0.000000 eV/strain
       beta        90.000000 Degrees      dE/de5(xz)     0.000000 eV/strain
       gamma       90.000000 Degrees      dE/de6(xy)     0.000000 eV/strain
--------------------------------------------------------------------------------

  Primitive cell volume =            91.598892 Angs**3

  Density of cell =      2.183054 g/cm**3

  Non-primitive cell volume =            91.598892 Angs**3


  Final internal derivatives :

--------------------------------------------------------------------------------
   No.  Atomic          a             b             c           Radius
        Label          (eV)          (eV)          (eV)        (eV/Angs)
--------------------------------------------------------------------------------
      1 Cl    c       0.000000      0.000000      0.000000      0.000000
      2 O     c       0.000000      0.000000      0.000000      0.000000
      3 Na    c       0.000000      0.000000      0.000000      0.000000
      4 Cl    s       0.000000      0.000000      0.000000      0.000000
      5 O     s       0.000000      0.000000      0.000000      0.000000
--------------------------------------------------------------------------------
  Maximum abs         0.000000      0.000000      0.000000      0.000000
--------------------------------------------------------------------------------

  Comparison of initial and final structures : 

--------------------------------------------------------------------------------
  Parameter   Initial value   Final value   Difference    Units      Percent
--------------------------------------------------------------------------------
    Volume        91.368216     91.598892     0.230676    Angs**3      0.25
    a              4.504000      4.507787     0.003787    Angstroms    0.08
    b              4.504000      4.507787     0.003787    Angstroms    0.08
    c              4.504000      4.507787     0.003787    Angstroms    0.08
    alpha         90.000000     90.000000     0.000000    Degrees      0.00
    beta          90.000000     90.000000     0.000000    Degrees      0.00
    gamma         90.000000     90.000000     0.000000    Degrees      0.00
      1 x          0.000000      0.000000     0.000000    Fractional   0.00
      1 y          0.000000      0.000000     0.000000    Fractional   0.00
      1 z          0.000000      0.000000     0.000000    Fractional   0.00
      2 x          0.500000      0.500000     0.000000    Fractional   0.00
      2 y          0.500000      0.500000     0.000000    Fractional   0.00
      2 z          0.500000      0.500000     0.000000    Fractional   0.00
      3 x          0.500000      0.500000     0.000000    Fractional   0.00
      3 y          0.500000      0.500000     0.000000    Fractional   0.00
      3 z          0.000000      0.000000     0.000000    Fractional   0.00
      4 x          0.000000      0.000000     0.000000    Fractional   0.00
      4 y          0.000000      0.000000     0.000000    Fractional   0.00
      4 z          0.000000      0.000000     0.000000    Fractional   0.00
      5 x          0.500000      0.500000     0.000000    Fractional   0.00
      5 y          0.500000      0.500000     0.000000    Fractional   0.00
      5 z          0.500000      0.500000     0.000000    Fractional   0.00
--------------------------------------------------------------------------------


  Born effective charge tensors : 

-------------------------------------------------------------------------------
  Atom             x           y             z
-------------------------------------------------------------------------------
    1 Cl    x      -1.0181     -0.0000      0.0000
            y      -0.0000     -1.0181      0.0000
            z       0.0000      0.0000     -1.0181
-------------------------------------------------------------------------------
    2 O     x      -2.2647      0.0000     -0.0000
            y       0.0000     -2.2647     -0.0000
            z      -0.0000     -0.0000     -2.2647
-------------------------------------------------------------------------------
    3 Na    x       1.2258     -0.0000      0.0000
            y      -0.0000      1.2258     -0.0000
            z       0.0000     -0.0000      0.8313
-------------------------------------------------------------------------------




  Elastic Constant Matrix: (Units=GPa)

-------------------------------------------------------------------------------
  Indices      1         2         3         4         5         6    
-------------------------------------------------------------------------------
       1     95.8177   20.0737   20.0737   -0.0000   -0.0000    0.0000
       2     20.0737   95.8177   20.0737   -0.0000   -0.0000    0.0000
       3     20.0737   20.0737   95.8177   -0.0000   -0.0000    0.0000
       4     -0.0000   -0.0000   -0.0000   20.0737   -0.0000    0.0000
       5     -0.0000   -0.0000   -0.0000   -0.0000   20.0737    0.0000
       6      0.0000    0.0000    0.0000    0.0000    0.0000   20.0737
-------------------------------------------------------------------------------


  Elastic Compliance Matrix: (Units=1/GPa)

-------------------------------------------------------------------------------
  Indices      1         2         3         4         5         6    
-------------------------------------------------------------------------------
       1    0.011253 -0.001949 -0.001949  0.000000  0.000000 -0.000000
       2   -0.001949  0.011253 -0.001949  0.000000  0.000000  0.000000
       3   -0.001949 -0.001949  0.011253  0.000000  0.000000 -0.000000
       4    0.000000  0.000000  0.000000  0.049816  0.000000 -0.000000
       5    0.000000  0.000000  0.000000  0.000000  0.049816 -0.000000
       6   -0.000000  0.000000 -0.000000 -0.000000 -0.000000  0.049816
-------------------------------------------------------------------------------

  Mechanical properties :

-------------------------------------------------------------------------------
  Convention :                    Reuss         Voigt         Hill
-------------------------------------------------------------------------------
  Bulk  Modulus (GPa)     =      45.32174      45.32174      45.32174
  Shear Modulus (GPa)     =      24.72085      27.19304      25.95695
-------------------------------------------------------------------------------
  Velocity S-wave (km/s)  =       3.36511       3.52937       3.44822
  Velocity P-wave (km/s)  =       5.98827       6.11304       6.05098
-------------------------------------------------------------------------------
  Compressibility (1/GPa) =    0.02206447
-------------------------------------------------------------------------------
  Stress axis :                     x             y             z
-------------------------------------------------------------------------------
  Youngs Moduli (GPa)     =      88.86373      88.86373      88.86373
-------------------------------------------------------------------------------
  Poissons Ratio (x)      =                     0.17321       0.17321
  Poissons Ratio (y)      =       0.17321                     0.17321
  Poissons Ratio (z)      =       0.17321       0.17321
-------------------------------------------------------------------------------


  Piezoelectric Strain Matrix: (Units=C/m**2)

-------------------------------------------------------------------------------
  Indices      1         2         3         4         5         6    
-------------------------------------------------------------------------------
       x    -0.00000  -0.00000  -0.00000   0.00000  -0.00000  -0.00000
       y    -0.00000  -0.00000   0.00000  -0.00000   0.00000   0.00000
       z    -0.00000  -0.00000  -0.00000  -0.00000   0.00000   0.00000
-------------------------------------------------------------------------------


  Piezoelectric Stress Matrix: (Units=10**-11 C/N)

-------------------------------------------------------------------------------
  Indices      1         2         3         4         5         6    
-------------------------------------------------------------------------------
       x    -0.00000   0.00000   0.00000   0.00000  -0.00000  -0.00000
       y    -0.00000  -0.00000   0.00000  -0.00000   0.00000   0.00000
       z     0.00000   0.00000  -0.00000  -0.00000   0.00000   0.00000
-------------------------------------------------------------------------------


  Static dielectric constant tensor : 

-------------------------------------------------------------------------------
              x         y         z
-------------------------------------------------------------------------------
       x    22.84729   0.00000   0.00000
       y     0.00000  22.84729  -0.00000
       z     0.00000  -0.00000  22.84729
--------------------------------------------------------------------------------

  High frequency dielectric constant tensor : 

-------------------------------------------------------------------------------
              x         y         z
-------------------------------------------------------------------------------
       x     1.47557   0.00000  -0.00000
       y     0.00000   1.47557  -0.00000
       z    -0.00000  -0.00000   1.47557
-------------------------------------------------------------------------------

  Static refractive indices : 

-------------------------------------------------------------------------------
    1 =    4.77988      2 =    4.77988      3 =    4.77988
-------------------------------------------------------------------------------

  High frequency refractive indices : 

-------------------------------------------------------------------------------
    1 =    1.21473      2 =    1.21473      3 =    1.21473
-------------------------------------------------------------------------------


  Time to end of optimisation =       0.0302 seconds

********************************************************************************
*  Defect calculation for configuration   1 :                                  *
********************************************************************************

  Total number of defects =      3

  Total charge on defect  =  -1.00

  Defect centre is at   0.5000   0.3100   0.1900  Frac

  Region 1 radius =  12.0000      Number of ions =    549

  Number of symmetry inequivalent region 1 ions  =    318

  Region 2 radius =  16.0000      Number of ions =    772

  Number of symmetry inequivalent region 2a ions =    421

  Region 2a mode = 4 : screened electrostatics due to region 1 
                       neglect correction to region 1 forces from 2a
                       region 2a displacements based on defects only

  Region 2a ions will only interact with defects in region 1

  Vacancies:

--------------------------------------------------------------------------------
    Specification type     Symbol/Number         x          y          z
--------------------------------------------------------------------------------
    Fractional                               0.500000   0.500000   0.000000
    Fractional                               0.500000   0.000000   0.500000
--------------------------------------------------------------------------------

  Interstitials:

--------------------------------------------------------------------------------
    Specification type     Symbol/Number         x          y          z
--------------------------------------------------------------------------------
    Atom/Fractional         Na               0.500000   0.310000   0.190000
--------------------------------------------------------------------------------


  Symmetry reduced region 1 (Relative to defect centre) :

--------------------------------------------------------------------------------
   No.   Atomic       x            y             z       Radius  Multiplicity   
         Label      (Angs)       (Angs)        (Angs)    (Angs)     
--------------------------------------------------------------------------------
     1  Na    c      0.0000       0.0000       0.0000 *  0.0000     1    Defect
     2  O     c      0.0000       0.8565 *     1.3974 *  0.0000     1          
     3  Na    c      2.2539 *     0.8565 *     1.3974 *  0.0000     2          
     4  Cl    c      2.2539 *    -1.3974 *    -0.8565 *  0.0000     2          
     5  O     c      0.0000       0.8565 *    -3.1104 *  0.0000     1          
     6  Na    c      0.0000       3.1104 *     1.3974 *  0.0000     1          
     7  Na    c      0.0000      -1.3974 *    -3.1104 *  0.0000     1          
     8  Na    c      0.0000       0.8565 *     3.6513 *  0.0000     1          
     9  Na    c      0.0000      -3.6513 *    -0.8565 *  0.0000     1          
    10  O     c      0.0000      -3.6513 *     1.3974 *  0.0000     1          
    11  Cl    c      2.2539 *     3.1104 *    -0.8565 *  0.0000     2          
    12  Na    c      2.2539 *     0.8565 *    -3.1104 *  0.0000     2          
    13  Na    c      0.0000       3.1104 *    -3.1104 *  0.0000     1          
    14  Cl    c      2.2539 *    -1.3974 *     3.6513 *  0.0000     2          
    15  Na    c      2.2539 *    -3.6513 *     1.3974 *  0.0000     2          
    16  Na    c     -4.5078 *     0.8565 *    -0.8565 *  0.0000     2          
    17  O     c      0.0000      -3.6513 *    -3.1104 *  0.0000     1          
    18  O     c     -4.5078 *     0.8565 *     1.3974 *  0.0000     2          
    19  Na    c     -4.5078 *    -1.3974 *     1.3974 *  0.0000     2          
    20  Na    c      0.0000      -3.6513 *     3.6513 *  0.0000     1          
    21  Cl    c      2.2539 *     3.1104 *     3.6513 *  0.0000     2          
    22  Na    c      2.2539 *    -3.6513 *    -3.1104 *  0.0000     2          
    23  Na    c      0.0000       0.8565 *    -5.3643 *  0.0000     1          
    24  Na    c      0.0000       5.3643 *    -0.8565 *  0.0000     1          
    25  O     c      0.0000       5.3643 *     1.3974 *  0.0000     1          
    26  O     c     -4.5078 *     0.8565 *    -3.1104 *  0.0000     2          
    27  Na    c     -4.5078 *    -1.3974 *    -3.1104 *  0.0000     2          
    28  Na    c     -4.5078 *     3.1104 *     1.3974 *  0.0000     2          
    29  Na    c     -4.5078 *     0.8565 *     3.6513 *  0.0000     2          
    30  Na    c     -4.5078 *    -3.6513 *    -0.8565 *  0.0000     2          
    31  O     c      0.0000       0.8565 *     5.9052 *  0.0000     1          
    32  O     c     -4.5078 *    -3.6513 *     1.3974 *  0.0000     2          
    33  Cl    c      2.2539 *    -1.3974 *    -5.3643 *  0.0000     2          
    34  Na    c      2.2539 *     5.3643 *     1.3974 *  0.0000     2          
    35  Na    c      0.0000      -1.3974 *     5.9052 *  0.0000     1          
    36  Na    c      0.0000      -5.9052 *     1.3974 *  0.0000     1          
    37  O     c      0.0000       5.3643 *    -3.1104 *  0.0000     1          
    38  Na    c      4.5078 *     3.1104 *    -3.1104 *  0.0000     2          
    39  Cl    c      2.2539 *    -5.9052 *    -0.8565 *  0.0000     2          
    40  Na    c      2.2539 *     0.8565 *     5.9052 *  0.0000     2          
    41  Na    c      0.0000       5.3643 *     3.6513 *  0.0000     1          
    42  Na    c      0.0000      -3.6513 *    -5.3643 *  0.0000     1          
    43  O     c      4.5078 *    -3.6513 *    -3.1104 *  0.0000     2          
    44  Cl    c      2.2539 *     3.1104 *    -5.3643 *  0.0000     2          
    45  Na    c      2.2539 *     5.3643 *    -3.1104 *  0.0000     2          
    46  Na    c      0.0000       3.1104 *     5.9052 *  0.0000     1          
    47  Na    c      0.0000      -5.9052 *    -3.1104 *  0.0000     1          
    48  Na    c     -4.5078 *    -3.6513 *     3.6513 *  0.0000     2          
    49  O     c      0.0000      -3.6513 *     5.9052 *  0.0000     1          
    50  Cl    c      6.7617 *    -1.3974 *    -0.8565 *  0.0000     2          
    51  Na    c      6.7617 *     0.8565 *     1.3974 *  0.0000     2          
    52  Na    c     -4.5078 *     0.8565 *    -5.3643 *  0.0000     2          
    53  Na    c     -4.5078 *     5.3643 *    -0.8565 *  0.0000     2          
    54  O     c     -4.5078 *     5.3643 *     1.3974 *  0.0000     2          
    55  Cl    c      2.2539 *    -5.9052 *     3.6513 *  0.0000     2          
    56  Na    c      2.2539 *    -3.6513 *     5.9052 *  0.0000     2          
    57  O     c      4.5078 *     0.8565 *     5.9052 *  0.0000     2          
    58  Cl    c      6.7617 *     3.1104 *    -0.8565 *  0.0000     2          
    59  Na    c      6.7617 *     0.8565 *    -3.1104 *  0.0000     2          
    60  Na    c     -4.5078 *    -1.3974 *     5.9052 *  0.0000     2          
    61  Na    c      4.5078 *    -5.9052 *     1.3974 *  0.0000     2          
    62  Na    c      0.0000       5.3643 *    -5.3643 *  0.0000     1          
    63  O     c      0.0000       0.8565 *    -7.6182 *  0.0000     1          
    64  O     c      4.5078 *     5.3643 *    -3.1104 *  0.0000     2          
    65  Na    c      0.0000       7.6182 *     1.3974 *  0.0000     1          
    66  Na    c      0.0000      -1.3974 *    -7.6182 *  0.0000     1          
    67  Cl    c      6.7617 *    -1.3974 *     3.6513 *  0.0000     2          
    68  Na    c      6.7617 *    -3.6513 *     1.3974 *  0.0000     2          
    69  Na    c     -4.5078 *     5.3643 *     3.6513 *  0.0000     2          
    70  Na    c      4.5078 *    -3.6513 *    -5.3643 *  0.0000     2          
    71  O     c      0.0000       5.3643 *     5.9052 *  0.0000     1          
    72  Cl    c      2.2539 *     7.6182 *    -0.8565 *  0.0000     2          
    73  Na    c      2.2539 *     0.8565 *    -7.6182 *  0.0000     2          
    74  Na    c      4.5078 *     3.1104 *     5.9052 *  0.0000     2          
    75  Na    c      4.5078 *    -5.9052 *    -3.1104 *  0.0000     2          
    76  Na    c      0.0000       0.8565 *     8.1591 *  0.0000     1          
    77  Na    c      0.0000      -8.1591 *    -0.8565 *  0.0000     1          
    78  Na    c      0.0000       7.6182 *    -3.1104 *  0.0000     1          
    79  Na    c      0.0000       3.1104 *    -7.6182 *  0.0000     1          
    80  O     c      0.0000      -8.1591 *     1.3974 *  0.0000     1          
    81  O     c     -4.5078 *    -3.6513 *     5.9052 *  0.0000     2          
    82  Cl    c      2.2539 *    -5.9052 *    -5.3643 *  0.0000     2          
    83  Cl    c      6.7617 *     3.1104 *     3.6513 *  0.0000     2          
    84  Na    c      6.7617 *    -3.6513 *    -3.1104 *  0.0000     2          
    85  Na    c      2.2539 *     5.3643 *     5.9052 *  0.0000     2          
    86  Na    c      0.0000      -5.9052 *     5.9052 *  0.0000     1          
    87  O     c      0.0000      -3.6513 *    -7.6182 *  0.0000     1          
    88  Cl    c      2.2539 *    -1.3974 *     8.1591 *  0.0000     2          
    89  Na    c      2.2539 *    -8.1591 *     1.3974 *  0.0000     2          
    90  O     c      0.0000      -8.1591 *    -3.1104 *  0.0000     1          
    91  Cl    c      2.2539 *     7.6182 *     3.6513 *  0.0000     2          
    92  Cl    c      6.7617 *    -1.3974 *    -5.3643 *  0.0000     2          
    93  Na    c      2.2539 *    -3.6513 *    -7.6182 *  0.0000     2          
    94  Na    c      6.7617 *     5.3643 *     1.3974 *  0.0000     2          
    95  Na    c      4.5078 *     5.3643 *    -5.3643 *  0.0000     2          
    96  O     c     -4.5078 *     0.8565 *    -7.6182 *  0.0000     2          
    97  Na    c      0.0000      -3.6513 *     8.1591 *  0.0000     1          
    98  Na    c      0.0000      -8.1591 *     3.6513 *  0.0000     1          
    99  Na    c     -4.5078 *     7.6182 *     1.3974 *  0.0000     2          
   100  Na    c     -4.5078 *    -1.3974 *    -7.6182 *  0.0000     2          
   101  Cl    c      2.2539 *     3.1104 *     8.1591 *  0.0000     2          
   102  Cl    c      6.7617 *    -5.9052 *    -0.8565 *  0.0000     2          
   103  Na    c      2.2539 *    -8.1591 *    -3.1104 *  0.0000     2          
   104  Na    c      6.7617 *     0.8565 *     5.9052 *  0.0000     2          
   105  Na    c      9.0156 *     0.8565 *    -0.8565 *  0.0000     2          
   106  O     c      9.0156 *     0.8565 *     1.3974 *  0.0000     2          
   107  O     c      4.5078 *     5.3643 *     5.9052 *  0.0000     2          
   108  Cl    c      6.7617 *     3.1104 *    -5.3643 *  0.0000     2          
   109  Na    c      6.7617 *     5.3643 *    -3.1104 *  0.0000     2          
   110  Na    c      9.0156 *    -1.3974 *     1.3974 *  0.0000     2          
   111  O     c      0.0000       5.3643 *    -7.6182 *  0.0000     1          
   112  Na    c     -4.5078 *     0.8565 *     8.1591 *  0.0000     2          
   113  Na    c     -4.5078 *    -8.1591 *    -0.8565 *  0.0000     2          
   114  Na    c     -4.5078 *     7.6182 *    -3.1104 *  0.0000     2          
   115  Na    c      4.5078 *     3.1104 *    -7.6182 *  0.0000     2          
   116  O     c     -4.5078 *    -8.1591 *     1.3974 *  0.0000     2          
   117  Na    c      4.5078 *    -5.9052 *     5.9052 *  0.0000     2          
   118  O     c      9.0156 *     0.8565 *    -3.1104 *  0.0000     2          
   119  O     c     -4.5078 *    -3.6513 *    -7.6182 *  0.0000     2          
   120  Cl    c      2.2539 *     7.6182 *    -5.3643 *  0.0000     2          
   121  Na    c      2.2539 *     5.3643 *    -7.6182 *  0.0000     2          
   122  Na    c      0.0000       7.6182 *     5.9052 *  0.0000     1          
   123  Na    c      9.0156 *    -1.3974 *    -3.1104 *  0.0000     2          
   124  Na    c      9.0156 *     3.1104 *     1.3974 *  0.0000     2          
   125  Na    c      0.0000      -5.9052 *    -7.6182 *  0.0000     1          
   126  Cl    c      6.7617 *    -5.9052 *     3.6513 *  0.0000     2          
   127  Na    c      6.7617 *    -3.6513 *     5.9052 *  0.0000     2          
   128  Na    c      0.0000       5.3643 *     8.1591 *  0.0000     1          
   129  Na    c      0.0000      -8.1591 *    -5.3643 *  0.0000     1          
   130  Na    c      9.0156 *     0.8565 *     3.6513 *  0.0000     2          
   131  Na    c      9.0156 *    -3.6513 *    -0.8565 *  0.0000     2          
   132  O     c      9.0156 *    -3.6513 *     1.3974 *  0.0000     2          
   133  O     c     -4.5078 *    -8.1591 *    -3.1104 *  0.0000     2          
   134  Na    c      0.0000       0.8565 *    -9.8721 *  0.0000     1          
   135  Na    c      0.0000       9.8721 *    -0.8565 *  0.0000     1          
   136  O     c      0.0000       9.8721 *     1.3974 *  0.0000     1          
   137  Na    c     -4.5078 *    -3.6513 *     8.1591 *  0.0000     2          
   138  Na    c     -4.5078 *    -8.1591 *     3.6513 *  0.0000     2          
   139  Na    c      9.0156 *     3.1104 *    -3.1104 *  0.0000     2          
   140  O     c      0.0000      -8.1591 *     5.9052 *  0.0000     1          
   141  O     c      9.0156 *    -3.6513 *    -3.1104 *  0.0000     2          
   142  Cl    c      2.2539 *    -1.3974 *    -9.8721 *  0.0000     2          
   143  Cl    c      6.7617 *     7.6182 *    -0.8565 *  0.0000     2          
   144  Na    c      2.2539 *     9.8721 *     1.3974 *  0.0000     2          
   145  Na    c      6.7617 *     0.8565 *    -7.6182 *  0.0000     2          
   146  Cl    c      2.2539 *    -5.9052 *     8.1591 *  0.0000     2          
   147  Na    c      2.2539 *    -8.1591 *     5.9052 *  0.0000     2          
   148  O     c      0.0000       9.8721 *    -3.1104 *  0.0000     1          
   149  O     c      4.5078 *     5.3643 *    -7.6182 *  0.0000     2          
   150  Na    c      9.0156 *    -3.6513 *     3.6513 *  0.0000     2          
   151  O     c      0.0000       0.8565 *    10.4130 *  0.0000     1          
   152  Cl    c      6.7617 *    -5.9052 *    -5.3643 *  0.0000     2          
   153  Na    c      6.7617 *     5.3643 *     5.9052 *  0.0000     2          
   154  Na    c      0.0000      -1.3974 *    10.4130 *  0.0000     1          
   155  Na    c      0.0000     -10.4130 *     1.3974 *  0.0000     1          
   156  Na    c      0.0000       9.8721 *     3.6513 *  0.0000     1          
   157  Na    c      0.0000      -3.6513 *    -9.8721 *  0.0000     1          
   158  Na    c      9.0156 *     0.8565 *    -5.3643 *  0.0000     2          
   159  Na    c      9.0156 *     5.3643 *    -0.8565 *  0.0000     2          
   160  O     c      9.0156 *     5.3643 *     1.3974 *  0.0000     2          
   161  Cl    c      2.2539 *     3.1104 *    -9.8721 *  0.0000     2          
   162  Na    c      2.2539 *     9.8721 *    -3.1104 *  0.0000     2          
   163  Na    c     -4.5078 *     7.6182 *     5.9052 *  0.0000     2          
   164  Na    c      4.5078 *    -5.9052 *    -7.6182 *  0.0000     2          
   165  Na    c      6.7617 *    -8.1591 *     1.3974 *  0.0000     2          
   166  Cl    c      2.2539 *   -10.4130 *    -0.8565 *  0.0000     2          
   167  Cl    c      6.7617 *    -1.3974 *     8.1591 *  0.0000     2          
   168  Na    c      2.2539 *     0.8565 *    10.4130 *  0.0000     2          
   169  Na    c      4.5078 *     5.3643 *     8.1591 *  0.0000     2          
   170  Na    c     -4.5078 *    -8.1591 *    -5.3643 *  0.0000     2          
   171  Na    c      0.0000       7.6182 *    -7.6182 *  0.0000     1          
   172  O     c      9.0156 *     0.8565 *     5.9052 *  0.0000     2          
   173  Cl    c      6.7617 *     7.6182 *     3.6513 *  0.0000     2          
   174  Na    c      6.7617 *    -3.6513 *    -7.6182 *  0.0000     2          
   175  Na    c      9.0156 *    -1.3974 *     5.9052 *  0.0000     2          
   176  Na    c      9.0156 *    -5.9052 *     1.3974 *  0.0000     2          
   177  Na    c      0.0000       3.1104 *    10.4130 *  0.0000     1          
   178  Na    c      0.0000     -10.4130 *    -3.1104 *  0.0000     1          
   179  Na    c     -4.5078 *     0.8565 *    -9.8721 *  0.0000     2          
   180  Na    c     -4.5078 *     9.8721 *    -0.8565 *  0.0000     2          
   181  O     c     -4.5078 *     9.8721 *     1.3974 *  0.0000     2          
   182  O     c      9.0156 *     5.3643 *    -3.1104 *  0.0000     2          
   183  O     c      4.5078 *    -8.1591 *     5.9052 *  0.0000     2          
   184  O     c      0.0000      -3.6513 *    10.4130 *  0.0000     1          
   185  Cl    c      6.7617 *     3.1104 *     8.1591 *  0.0000     2          
   186  Na    c      6.7617 *    -8.1591 *    -3.1104 *  0.0000     2          
   187  Na    c      9.0156 *     5.3643 *     3.6513 *  0.0000     2          
   188  Na    c      9.0156 *    -3.6513 *    -5.3643 *  0.0000     2          
   189  O     c      0.0000      -8.1591 *    -7.6182 *  0.0000     1          
   190  Na    c      9.0156 *     3.1104 *     5.9052 *  0.0000     2          
   191  Na    c      9.0156 *    -5.9052 *    -3.1104 *  0.0000     2          
   192  Na    c      0.0000       5.3643 *    -9.8721 *  0.0000     1          
   193  Na    c      0.0000       9.8721 *    -5.3643 *  0.0000     1          
   194  Cl    c      2.2539 *   -10.4130 *     3.6513 *  0.0000     2          
   195  Na    c      2.2539 *    -3.6513 *    10.4130 *  0.0000     2          
   196  O     c     -4.5078 *     9.8721 *    -3.1104 *  0.0000     2          
   197  O     c      4.5078 *     0.8565 *    10.4130 *  0.0000     2          
   198  O     c      9.0156 *    -3.6513 *     5.9052 *  0.0000     2          
   199  Cl    c     11.2695 *    -1.3974 *    -0.8565 *  0.0000     2          
   200  Na    c     11.2695 *     0.8565 *     1.3974 *  0.0000     2          
   201  Cl    c      2.2539 *     7.6182 *     8.1591 *  0.0000     2          
   202  Na    c      2.2539 *    -8.1591 *    -7.6182 *  0.0000     2          
   203  Na    c      4.5078 *    -1.3974 *    10.4130 *  0.0000     2          
   204  Na    c      4.5078 *   -10.4130 *     1.3974 *  0.0000     2          
   205  Na    c     -4.5078 *     9.8721 *     3.6513 *  0.0000     2          
   206  Na    c     -4.5078 *    -3.6513 *    -9.8721 *  0.0000     2          
   207  O     c      0.0000       9.8721 *     5.9052 *  0.0000     1          
   208  Cl    c      6.7617 *     7.6182 *    -5.3643 *  0.0000     2          
   209  Na    c      6.7617 *     5.3643 *    -7.6182 *  0.0000     2          
   210  Na    c      0.0000      -8.1591 *     8.1591 *  0.0000     1          
   211  Na    c      4.5078 *     7.6182 *    -7.6182 *  0.0000     2          
   212  O     c      0.0000       5.3643 *    10.4130 *  0.0000     1          
   213  Cl    c     11.2695 *     3.1104 *    -0.8565 *  0.0000     2          
   214  Na    c     11.2695 *     0.8565 *    -3.1104 *  0.0000     2          
   215  Cl    c      2.2539 *    -5.9052 *    -9.8721 *  0.0000     2          
   216  Na    c      2.2539 *     9.8721 *     5.9052 *  0.0000     2          
   217  Na    c      4.5078 *     3.1104 *    10.4130 *  0.0000     2          
   218  Na    c      4.5078 *   -10.4130 *    -3.1104 *  0.0000     2          
   219  Na    c      9.0156 *     5.3643 *    -5.3643 *  0.0000     2          
   220  O     c      9.0156 *     0.8565 *    -7.6182 *  0.0000     2          
   221  Na    c      9.0156 *    -1.3974 *    -7.6182 *  0.0000     2          
   222  Na    c      9.0156 *     7.6182 *     1.3974 *  0.0000     2          
   223  O     c     -4.5078 *    -3.6513 *    10.4130 *  0.0000     2          
   224  Cl    c     11.2695 *    -1.3974 *     3.6513 *  0.0000     2          
   225  Na    c     11.2695 *    -3.6513 *     1.3974 *  0.0000     2          
   226  Cl    c      2.2539 *   -10.4130 *    -5.3643 *  0.0000     2          
   227  Na    c      2.2539 *     5.3643 *    10.4130 *  0.0000     2          
   228  Na    c      0.0000      -5.9052 *    10.4130 *  0.0000     1          
   229  Na    c      0.0000     -10.4130 *     5.9052 *  0.0000     1          
   230  O     s      0.0000       0.8565 *     1.3974 *  0.0000     1          
   231  Cl    s      2.2539 *    -1.3974 *    -0.8565 *  0.0000     2          
   232  O     s      0.0000       0.8565 *    -3.1104 *  0.0000     1          
   233  O     s      0.0000      -3.6513 *     1.3974 *  0.0000     1          
   234  Cl    s      2.2539 *     3.1104 *    -0.8565 *  0.0000     2          
   235  Cl    s      2.2539 *    -1.3974 *     3.6513 *  0.0000     2          
   236  O     s      0.0000      -3.6513 *    -3.1104 *  0.0000     1          
   237  O     s     -4.5078 *     0.8565 *     1.3974 *  0.0000     2          
   238  Cl    s      2.2539 *     3.1104 *     3.6513 *  0.0000     2          
   239  O     s      0.0000       5.3643 *     1.3974 *  0.0000     1          
   240  O     s     -4.5078 *     0.8565 *    -3.1104 *  0.0000     2          
   241  O     s      0.0000       0.8565 *     5.9052 *  0.0000     1          
   242  O     s     -4.5078 *    -3.6513 *     1.3974 *  0.0000     2          
   243  Cl    s      2.2539 *    -1.3974 *    -5.3643 *  0.0000     2          
   244  O     s      0.0000       5.3643 *    -3.1104 *  0.0000     1          
   245  Cl    s      2.2539 *    -5.9052 *    -0.8565 *  0.0000     2          
   246  O     s      4.5078 *    -3.6513 *    -3.1104 *  0.0000     2          
   247  Cl    s      2.2539 *     3.1104 *    -5.3643 *  0.0000     2          
   248  O     s      0.0000      -3.6513 *     5.9052 *  0.0000     1          
   249  Cl    s      6.7617 *    -1.3974 *    -0.8565 *  0.0000     2          
   250  O     s     -4.5078 *     5.3643 *     1.3974 *  0.0000     2          
   251  Cl    s      2.2539 *    -5.9052 *     3.6513 *  0.0000     2          
   252  O     s      4.5078 *     0.8565 *     5.9052 *  0.0000     2          
   253  Cl    s      6.7617 *     3.1104 *    -0.8565 *  0.0000     2          
   254  O     s      0.0000       0.8565 *    -7.6182 *  0.0000     1          
   255  O     s      4.5078 *     5.3643 *    -3.1104 *  0.0000     2          
   256  Cl    s      6.7617 *    -1.3974 *     3.6513 *  0.0000     2          
   257  O     s      0.0000       5.3643 *     5.9052 *  0.0000     1          
   258  Cl    s      2.2539 *     7.6182 *    -0.8565 *  0.0000     2          
   259  O     s      0.0000      -8.1591 *     1.3974 *  0.0000     1          
   260  O     s     -4.5078 *    -3.6513 *     5.9052 *  0.0000     2          
   261  Cl    s      2.2539 *    -5.9052 *    -5.3643 *  0.0000     2          
   262  Cl    s      6.7617 *     3.1104 *     3.6513 *  0.0000     2          
   263  O     s      0.0000      -3.6513 *    -7.6182 *  0.0000     1          
   264  Cl    s      2.2539 *    -1.3974 *     8.1591 *  0.0000     2          
   265  O     s      0.0000      -8.1591 *    -3.1104 *  0.0000     1          
   266  Cl    s      2.2539 *     7.6182 *     3.6513 *  0.0000     2          
   267  Cl    s      6.7617 *    -1.3974 *    -5.3643 *  0.0000     2          
   268  O     s     -4.5078 *     0.8565 *    -7.6182 *  0.0000     2          
   269  Cl    s      2.2539 *     3.1104 *     8.1591 *  0.0000     2          
   270  Cl    s      6.7617 *    -5.9052 *    -0.8565 *  0.0000     2          
   271  O     s      9.0156 *     0.8565 *     1.3974 *  0.0000     2          
   272  O     s      4.5078 *     5.3643 *     5.9052 *  0.0000     2          
   273  Cl    s      6.7617 *     3.1104 *    -5.3643 *  0.0000     2          
   274  O     s      0.0000       5.3643 *    -7.6182 *  0.0000     1          
   275  O     s     -4.5078 *    -8.1591 *     1.3974 *  0.0000     2          
   276  O     s      9.0156 *     0.8565 *    -3.1104 *  0.0000     2          
   277  O     s     -4.5078 *    -3.6513 *    -7.6182 *  0.0000     2          
   278  Cl    s      2.2539 *     7.6182 *    -5.3643 *  0.0000     2          
   279  Cl    s      6.7617 *    -5.9052 *     3.6513 *  0.0000     2          
   280  O     s      9.0156 *    -3.6513 *     1.3974 *  0.0000     2          
   281  O     s     -4.5078 *    -8.1591 *    -3.1104 *  0.0000     2          
   282  O     s      0.0000       9.8721 *     1.3974 *  0.0000     1          
   283  O     s      0.0000      -8.1591 *     5.9052 *  0.0000     1          
   284  O     s      9.0156 *    -3.6513 *    -3.1104 *  0.0000     2          
   285  Cl    s      2.2539 *    -1.3974 *    -9.8721 *  0.0000     2          
   286  Cl    s      6.7617 *     7.6182 *    -0.8565 *  0.0000     2          
   287  Cl    s      2.2539 *    -5.9052 *     8.1591 *  0.0000     2          
   288  O     s      0.0000       9.8721 *    -3.1104 *  0.0000     1          
   289  O     s      4.5078 *     5.3643 *    -7.6182 *  0.0000     2          
   290  O     s      0.0000       0.8565 *    10.4130 *  0.0000     1          
   291  Cl    s      6.7617 *    -5.9052 *    -5.3643 *  0.0000     2          
   292  O     s      9.0156 *     5.3643 *     1.3974 *  0.0000     2          
   293  Cl    s      2.2539 *     3.1104 *    -9.8721 *  0.0000     2          
   294  Cl    s      2.2539 *   -10.4130 *    -0.8565 *  0.0000     2          
   295  Cl    s      6.7617 *    -1.3974 *     8.1591 *  0.0000     2          
   296  O     s      9.0156 *     0.8565 *     5.9052 *  0.0000     2          
   297  Cl    s      6.7617 *     7.6182 *     3.6513 *  0.0000     2          
   298  O     s     -4.5078 *     9.8721 *     1.3974 *  0.0000     2          
   299  O     s      9.0156 *     5.3643 *    -3.1104 *  0.0000     2          
   300  O     s      4.5078 *    -8.1591 *     5.9052 *  0.0000     2          
   301  O     s      0.0000      -3.6513 *    10.4130 *  0.0000     1          
   302  Cl    s      6.7617 *     3.1104 *     8.1591 *  0.0000     2          
   303  O     s      0.0000      -8.1591 *    -7.6182 *  0.0000     1          
   304  Cl    s      2.2539 *   -10.4130 *     3.6513 *  0.0000     2          
   305  O     s     -4.5078 *     9.8721 *    -3.1104 *  0.0000     2          
   306  O     s      4.5078 *     0.8565 *    10.4130 *  0.0000     2          
   307  O     s      9.0156 *    -3.6513 *     5.9052 *  0.0000     2          
   308  Cl    s     11.2695 *    -1.3974 *    -0.8565 *  0.0000     2          
   309  Cl    s      2.2539 *     7.6182 *     8.1591 *  0.0000     2          
   310  O     s      0.0000       9.8721 *     5.9052 *  0.0000     1          
   311  Cl    s      6.7617 *     7.6182 *    -5.3643 *  0.0000     2          
   312  O     s      0.0000       5.3643 *    10.4130 *  0.0000     1          
   313  Cl    s     11.2695 *     3.1104 *    -0.8565 *  0.0000     2          
   314  Cl    s      2.2539 *    -5.9052 *    -9.8721 *  0.0000     2          
   315  O     s      9.0156 *     0.8565 *    -7.6182 *  0.0000     2          
   316  O     s     -4.5078 *    -3.6513 *    10.4130 *  0.0000     2          
   317  Cl    s     11.2695 *    -1.3974 *     3.6513 *  0.0000     2          
   318  Cl    s      2.2539 *   -10.4130 *    -5.3643 *  0.0000     2          
--------------------------------------------------------------------------------

  Components of defect energy : 

--------------------------------------------------------------------------------
  Region 1 - region 1                   =      5.75627273 eV
  Region 1 - region 2a (unrelaxed)      =      4.45347239 eV
  Region 1 - 2a (relaxed - correction)  =     -0.29299602 eV
  Region 1 (Total)                      =      9.91674909 eV
  Region 2a                             =      0.14641890 eV
  Region 2b                             =     -0.43038775 eV
--------------------------------------------------------------------------------
  Total defect energy                   =      9.63278024 eV
--------------------------------------------------------------------------------

  Largest displacement in region 2 =   0.0240 Angstroms


  Number of variables =      866

  Maximum number of calculations  =        1000
  Maximum Hessian update interval =          10
  Maximum step size               =   1.0000000
  Maximum parameter tolerance     =   0.0000100
  Maximum function  tolerance     =   0.0000100
  Maximum gradient  tolerance     =   0.0010000

  Symmetry adapted optimisation

  Symmetry to be used for second derivatives

  Newton-Raphson optimiser to be used

  BFGS hessian update to be used

  Lower half triangular hessian to be used

  Start of defect optimisation :

  Cycle:      0 Defect Energy:   9.632780  Gnorm:     0.025127  CPU:    2.798
  ** Hessian calculated **
  Cycle:      1 Defect Energy:   8.563470  Gnorm:     0.021183  CPU:    9.007
  ** Hessian calculated **
  Cycle:      2 Defect Energy:   6.674586  Gnorm:     0.010686  CPU:   16.867
  Cycle:      3 Defect Energy:   5.682238  Gnorm:     0.007034  CPU:   21.789
  Cycle:      4 Defect Energy:   5.397568  Gnorm:     0.006049  CPU:   25.770
  Cycle:      5 Defect Energy:   5.209266  Gnorm:     0.004072  CPU:   30.299
  Cycle:      6 Defect Energy:   5.162231  Gnorm:     0.002045  CPU:   31.304
  Cycle:      7 Defect Energy:   5.106218  Gnorm:     0.001655  CPU:   32.468
  Cycle:      8 Defect Energy:   5.031579  Gnorm:     0.001688  CPU:   33.427
  Cycle:      9 Defect Energy:   4.942430  Gnorm:     0.002360  CPU:   34.392
  Cycle:     10 Defect Energy:   4.878070  Gnorm:     0.002629  CPU:   35.357
  Cycle:     11 Defect Energy:   4.830395  Gnorm:     0.002582  CPU:   36.434
  ** Hessian calculated **
  Cycle:     12 Defect Energy:   4.805322  Gnorm:     0.001718  CPU:   38.847
  Cycle:     13 Defect Energy:   4.777473  Gnorm:     0.001516  CPU:   39.790
  Cycle:     14 Defect Energy:   4.746702  Gnorm:     0.001396  CPU:   40.724
  Cycle:     15 Defect Energy:   4.723291  Gnorm:     0.001367  CPU:   41.729
  Cycle:     16 Defect Energy:   4.703862  Gnorm:     0.001301  CPU:   42.629
  Cycle:     17 Defect Energy:   4.685848  Gnorm:     0.001324  CPU:   43.541
  Cycle:     18 Defect Energy:   4.667622  Gnorm:     0.001397  CPU:   44.431
  Cycle:     19 Defect Energy:   4.651180  Gnorm:     0.001338  CPU:   45.394
  Cycle:     20 Defect Energy:   4.634386  Gnorm:     0.001249  CPU:   46.110
  Cycle:     21 Defect Energy:   4.618669  Gnorm:     0.001310  CPU:   50.302
  ** Hessian calculated **
  Cycle:     22 Defect Energy:   4.605716  Gnorm:     0.001268  CPU:   53.315
  Cycle:     23 Defect Energy:   4.562676  Gnorm:     0.001074  CPU:   54.460
  Cycle:     24 Defect Energy:   4.537533  Gnorm:     0.000959  CPU:   55.708
  Cycle:     25 Defect Energy:   4.498226  Gnorm:     0.000663  CPU:   56.822
  Cycle:     26 Defect Energy:   4.477001  Gnorm:     0.000454  CPU:   57.909
  Cycle:     27 Defect Energy:   4.478671  Gnorm:     0.000483  CPU:   59.016
  ** Hessian calculated **
  Cycle:     28 Defect Energy:   4.468743  Gnorm:     0.000378  CPU:   61.831
  Cycle:     29 Defect Energy:   4.460677  Gnorm:     0.000218  CPU:   62.866
  Cycle:     30 Defect Energy:   4.456263  Gnorm:     0.000478  CPU:   63.912
  Cycle:     31 Defect Energy:   4.455676  Gnorm:     0.000522  CPU:   64.912
  Cycle:     32 Defect Energy:   4.451070  Gnorm:     0.000333  CPU:   66.018
  Cycle:     33 Defect Energy:   4.447089  Gnorm:     0.000287  CPU:   66.992
  Cycle:     34 Defect Energy:   4.441825  Gnorm:     0.000198  CPU:   68.000
  Cycle:     35 Defect Energy:   4.439721  Gnorm:     0.000153  CPU:   68.988
  Cycle:     36 Defect Energy:   4.438292  Gnorm:     0.000094  CPU:   70.071
  Cycle:     37 Defect Energy:   4.437510  Gnorm:     0.000095  CPU:   71.031
  ** Hessian calculated **
  Cycle:     38 Defect Energy:   4.437119  Gnorm:     0.000067  CPU:   73.543
  Cycle:     39 Defect Energy:   4.436907  Gnorm:     0.000047  CPU:   74.517
  Cycle:     40 Defect Energy:   4.436791  Gnorm:     0.000033  CPU:   75.561
  Cycle:     41 Defect Energy:   4.436725  Gnorm:     0.000023  CPU:   76.463
  Cycle:     42 Defect Energy:   4.436686  Gnorm:     0.000016  CPU:   77.363
  Cycle:     43 Defect Energy:   4.436663  Gnorm:     0.000011  CPU:   78.265
  Cycle:     44 Defect Energy:   4.436649  Gnorm:     0.000008  CPU:   79.181


  **** Optimisation achieved ****


  Final defect energy  =        4.43663966
  Final defect Gnorm   =        0.00000561

  Components of defect energy : 

--------------------------------------------------------------------------------
  Region 1 - region 1                   =      1.49488211 eV
  Region 1 - region 2a (unrelaxed)      =      3.48412547 eV
  Region 1 - 2a (relaxed - correction)  =     -0.22482092 eV
  Region 1 (Total)                      =      4.75418666 eV
  Region 2a                             =      0.11238839 eV
  Region 2b                             =     -0.42993538 eV
--------------------------------------------------------------------------------
  Total defect energy                   =      4.43663966 eV
--------------------------------------------------------------------------------

  Largest displacement in region 2 =   0.0257 Angstroms

  Final coordinates of region 1 :

--------------------------------------------------------------------------------
   No.  Atomic        x           y           z          Radius      Charge
        Label       (Angs)      (Angs)      (Angs)       (Angs)       (e) 
--------------------------------------------------------------------------------
     1  Na    c     2.253894    1.397414    0.110807    0.000000    1.000000
     2  O     c     2.253894    2.294129    2.178499    0.000000    0.183000
     3  Na    c     4.440277    1.853769    2.204968    0.000000    1.000000
     4  Na    c     0.067511    1.853769    2.204968    0.000000    1.000000
     5  Cl    c     4.672040   -0.056411   -0.101842    0.000000    1.485000
     6  Cl    c    -0.164252   -0.056411   -0.101842    0.000000    1.485000
     7  O     c     2.253894    2.177333   -2.168653    0.000000    0.183000
     8  Na    c     2.253894    4.479748    1.881195    0.000000    1.000000
     9  Na    c     2.253894   -0.014209   -2.707229    0.000000    1.000000
    10  Na    c     2.253894    2.055386    4.408950    0.000000    1.000000
    11  Na    c     2.253894   -2.108686    0.051599    0.000000    1.000000
    12  O     c     2.253894   -2.329429    2.261482    0.000000    0.183000
    13  Cl    c     4.621476    4.631254   -0.091727    0.000000    1.485000
    14  Cl    c    -0.113688    4.631254   -0.091727    0.000000    1.485000
    15  Na    c     4.503813    2.179154   -2.026320    0.000000    1.000000
    16  Na    c     0.003975    2.179154   -2.026320    0.000000    1.000000
    17  Na    c     2.253894    4.439768   -1.746357    0.000000    1.000000
    18  Cl    c     4.646261    0.010914    4.619896    0.000000    1.485000
    19  Cl    c    -0.138474    0.010914    4.619896    0.000000    1.485000
    20  Na    c     4.422143   -1.805706    2.237705    0.000000    1.000000
    21  Na    c     0.085645   -1.805706    2.237705    0.000000    1.000000
    22  Na    c    -2.408305    2.264011    0.011885    0.000000    1.000000
    23  Na    c     6.916092    2.264011    0.011885    0.000000    1.000000
    24  O     c     2.253894   -2.234852   -2.253883    0.000000    0.183000
    25  O     c    -2.226107    2.250329    2.262089    0.000000    0.183000
    26  O     c     6.733894    2.250329    2.262089    0.000000    0.183000
    27  Na    c    -2.572052   -0.000699    2.286204    0.000000    1.000000
    28  Na    c     7.079839   -0.000699    2.286204    0.000000    1.000000
    29  Na    c     2.253894   -1.772962    4.424484    0.000000    1.000000
    30  Cl    c     4.599361    4.577719    4.618854    0.000000    1.485000
    31  Cl    c    -0.091574    4.577719    4.618854    0.000000    1.485000
    32  Na    c     4.509248   -2.121119   -2.214571    0.000000    1.000000
    33  Na    c    -0.001461   -2.121119   -2.214571    0.000000    1.000000
    34  Na    c     2.253894    2.613750   -4.438683    0.000000    1.000000
    35  Na    c     2.253894    7.122772   -0.005738    0.000000    1.000000
    36  O     c     2.253894    6.780392    2.231996    0.000000    0.183000
    37  O     c    -2.260597    2.253980   -2.251226    0.000000    0.183000
    38  O     c     6.768385    2.253980   -2.251226    0.000000    0.183000
    39  Na    c    -2.424747   -0.000712   -2.137957    0.000000    1.000000
    40  Na    c     6.932534   -0.000712   -2.137957    0.000000    1.000000
    41  Na    c    -1.822139    4.477798    2.191560    0.000000    1.000000
    42  Na    c     6.329926    4.477798    2.191560    0.000000    1.000000
    43  Na    c    -2.123711    2.327199    4.514086    0.000000    1.000000
    44  Na    c     6.631499    2.327199    4.514086    0.000000    1.000000
    45  Na    c    -2.219375   -2.288475    0.002343    0.000000    1.000000
    46  Na    c     6.727162   -2.288475    0.002343    0.000000    1.000000
    47  O     c     2.253894    2.217225    6.742128    0.000000    0.183000
    48  O     c    -2.206075   -2.248699    2.255945    0.000000    0.183000
    49  O     c     6.713862   -2.248699    2.255945    0.000000    0.183000
    50  Cl    c     4.517784   -0.031077   -4.549790    0.000000    1.485000
    51  Cl    c    -0.009997   -0.031077   -4.549790    0.000000    1.485000
    52  Na    c     4.502971    6.930887    2.250857    0.000000    1.000000
    53  Na    c     0.004816    6.930887    2.250857    0.000000    1.000000
    54  Na    c     2.253894   -0.008602    7.043188    0.000000    1.000000
    55  Na    c     2.253894   -4.515051    2.439958    0.000000    1.000000
    56  O     c     2.253894    6.722603   -2.238258    0.000000    0.183000
    57  Na    c     6.625362    4.505269   -2.268891    0.000000    1.000000
    58  Na    c    -2.117575    4.505269   -2.268891    0.000000    1.000000
    59  Cl    c     4.566932   -4.604922   -0.123762    0.000000    1.485000
    60  Cl    c    -0.059145   -4.604922   -0.123762    0.000000    1.485000
    61  Na    c     4.503614    2.148399    6.740110    0.000000    1.000000
    62  Na    c     0.004173    2.148399    6.740110    0.000000    1.000000
    63  Na    c     2.253894    6.413888    4.457848    0.000000    1.000000
    64  Na    c     2.253894   -2.611794   -4.498460    0.000000    1.000000
    65  O     c     6.767698   -2.257941   -2.265819    0.000000    0.183000
    66  O     c    -2.259911   -2.257941   -2.265819    0.000000    0.183000
    67  Cl    c     4.550494    4.509840   -4.540395    0.000000    1.485000
    68  Cl    c    -0.042707    4.509840   -4.540395    0.000000    1.485000
    69  Na    c     4.504552    6.734454   -2.227747    0.000000    1.000000
    70  Na    c     0.003235    6.734454   -2.227747    0.000000    1.000000
    71  Na    c     2.253894    4.469898    6.732955    0.000000    1.000000
    72  Na    c     2.253894   -4.488755   -2.041235    0.000000    1.000000
    73  Na    c    -2.156659   -2.290656    4.501929    0.000000    1.000000
    74  Na    c     6.664447   -2.290656    4.501929    0.000000    1.000000
    75  O     c     2.253894   -2.230134    6.714329    0.000000    0.183000
    76  Cl    c     9.030326   -0.012615   -0.009449    0.000000    1.485000
    77  Cl    c    -4.522539   -0.012615   -0.009449    0.000000    1.485000
    78  Na    c     8.979515    2.601182    2.403070    0.000000    1.000000
    79  Na    c    -4.471728    2.601182    2.403070    0.000000    1.000000
    80  Na    c    -2.053825    2.141698   -4.494889    0.000000    1.000000
    81  Na    c     6.561612    2.141698   -4.494889    0.000000    1.000000
    82  Na    c    -2.232789    6.759966   -0.000743    0.000000    1.000000
    83  Na    c     6.740576    6.759966   -0.000743    0.000000    1.000000
    84  O     c    -2.245122    6.718488    2.261195    0.000000    0.183000
    85  O     c     6.752909    6.718488    2.261195    0.000000    0.183000
    86  Cl    c     4.607492   -4.617833    4.600912    0.000000    1.485000
    87  Cl    c    -0.099705   -4.617833    4.600912    0.000000    1.485000
    88  Na    c     4.507665   -2.201178    6.741048    0.000000    1.000000
    89  Na    c     0.000123   -2.201178    6.741048    0.000000    1.000000
    90  O     c     6.763145    2.257057    6.771576    0.000000    0.183000
    91  O     c    -2.255358    2.257057    6.771576    0.000000    0.183000
    92  Cl    c     9.062236    4.488257   -0.017225    0.000000    1.485000
    93  Cl    c    -4.554449    4.488257   -0.017225    0.000000    1.485000
    94  Na    c     9.007604    2.433754   -2.466908    0.000000    1.000000
    95  Na    c    -4.499817    2.433754   -2.466908    0.000000    1.000000
    96  Na    c    -2.359110   -0.001245    6.643008    0.000000    1.000000
    97  Na    c     6.866897   -0.001245    6.643008    0.000000    1.000000
    98  Na    c     6.331536   -4.481743    2.261348    0.000000    1.000000
    99  Na    c    -1.823749   -4.481743    2.261348    0.000000    1.000000
   100  Na    c     2.253894    6.391144   -4.483758    0.000000    1.000000
   101  O     c     2.253894    2.256182   -6.725815    0.000000    0.183000
   102  O     c     6.772518    6.762594   -2.264342    0.000000    0.183000
   103  O     c    -2.264730    6.762594   -2.264342    0.000000    0.183000
   104  Na    c     2.253894    9.024741    2.572825    0.000000    1.000000
   105  Na    c     2.253894    0.002374   -6.456483    0.000000    1.000000
   106  Cl    c     9.051470    0.002175    4.537881    0.000000    1.485000
   107  Cl    c    -4.543682    0.002175    4.537881    0.000000    1.485000
   108  Na    c     8.966410   -2.594173    2.282421    0.000000    1.000000
   109  Na    c    -4.458623   -2.594173    2.282421    0.000000    1.000000
   110  Na    c    -2.305848    6.567568    4.516732    0.000000    1.000000
   111  Na    c     6.813635    6.567568    4.516732    0.000000    1.000000
   112  Na    c     6.740283   -2.105262   -4.510173    0.000000    1.000000
   113  Na    c    -2.232496   -2.105262   -4.510173    0.000000    1.000000
   114  O     c     2.253894    6.740612    6.710235    0.000000    0.183000
   115  Cl    c     4.530226    9.030624   -0.000698    0.000000    1.485000
   116  Cl    c    -0.022439    9.030624   -0.000698    0.000000    1.485000
   117  Na    c     4.498841    2.188711   -6.788354    0.000000    1.000000
   118  Na    c     0.008946    2.188711   -6.788354    0.000000    1.000000
   119  Na    c     6.607626    4.505155    6.905297    0.000000    1.000000
   120  Na    c    -2.099839    4.505155    6.905297    0.000000    1.000000
   121  Na    c     6.573337   -4.505031   -2.349816    0.000000    1.000000
   122  Na    c    -2.065549   -4.505031   -2.349816    0.000000    1.000000
   123  Na    c     2.253894    2.391638    9.010783    0.000000    1.000000
   124  Na    c     2.253894   -6.697956    0.021576    0.000000    1.000000
   125  Na    c     2.253894    8.981730   -2.546515    0.000000    1.000000
   126  Na    c     2.253894    4.491415   -7.031114    0.000000    1.000000
   127  O     c     2.253894   -6.799489    2.268108    0.000000    0.183000
   128  O     c    -2.260331   -2.259267    6.758966    0.000000    0.183000
   129  O     c     6.768119   -2.259267    6.758966    0.000000    0.183000
   130  Cl    c     4.508396   -4.532609   -4.549849    0.000000    1.485000
   131  Cl    c    -0.000609   -4.532609   -4.549849    0.000000    1.485000
   132  Cl    c     9.067478    4.528216    4.549622    0.000000    1.485000
   133  Cl    c    -4.559691    4.528216    4.549622    0.000000    1.485000
   134  Na    c     9.005570   -2.458702   -2.277332    0.000000    1.000000
   135  Na    c    -4.497783   -2.458702   -2.277332    0.000000    1.000000
   136  Na    c     4.507500    6.807848    6.665451    0.000000    1.000000
   137  Na    c     0.000287    6.807848    6.665451    0.000000    1.000000
   138  Na    c     2.253894   -4.477951    6.383352    0.000000    1.000000
   139  O     c     2.253894   -2.253154   -6.739708    0.000000    0.183000
   140  Cl    c     4.507063    0.007447    9.037718    0.000000    1.485000
   141  Cl    c     0.000724    0.007447    9.037718    0.000000    1.485000
   142  Na    c     4.499327   -6.928541    2.260641    0.000000    1.000000
   143  Na    c     0.008460   -6.928541    2.260641    0.000000    1.000000
   144  O     c     2.253894   -6.751920   -2.240771    0.000000    0.183000
   145  Cl    c     4.497503    9.057166    4.507563    0.000000    1.485000
   146  Cl    c     0.010285    9.057166    4.507563    0.000000    1.485000
   147  Cl    c     9.020819    0.002378   -4.530802    0.000000    1.485000
   148  Cl    c    -4.513032    0.002378   -4.530802    0.000000    1.485000
   149  Na    c     4.507623   -2.167801   -6.736750    0.000000    1.000000
   150  Na    c     0.000164   -2.167801   -6.736750    0.000000    1.000000
   151  Na    c     9.004192    6.482417    2.218463    0.000000    1.000000
   152  Na    c    -4.496405    6.482417    2.218463    0.000000    1.000000
   153  Na    c     6.789438    6.778731   -4.506787    0.000000    1.000000
   154  Na    c    -2.281651    6.778731   -4.506787    0.000000    1.000000
   155  O     c    -2.246784    2.246527   -6.751362    0.000000    0.183000
   156  O     c     6.754571    2.246527   -6.751362    0.000000    0.183000
   157  Na    c     2.253894   -2.521087    8.978479    0.000000    1.000000
   158  Na    c     2.253894   -6.989826    4.507759    0.000000    1.000000
   159  Na    c    -2.412231    8.980458    2.339565    0.000000    1.000000
   160  Na    c     6.920018    8.980458    2.339565    0.000000    1.000000
   161  Na    c    -2.393789    0.003620   -6.867663    0.000000    1.000000
   162  Na    c     6.901576    0.003620   -6.867663    0.000000    1.000000
   163  Cl    c     4.477752    4.500873    9.045754    0.000000    1.485000
   164  Cl    c     0.030035    4.500873    9.045754    0.000000    1.485000
   165  Cl    c     9.084893   -4.510223   -0.025476    0.000000    1.485000
   166  Cl    c    -4.577106   -4.510223   -0.025476    0.000000    1.485000
   167  Na    c     4.504216   -6.793761   -2.214438    0.000000    1.000000
   168  Na    c     0.003571   -6.793761   -2.214438    0.000000    1.000000
   169  Na    c     9.011335    2.389897    6.707343    0.000000    1.000000
   170  Na    c    -4.503548    2.389897    6.707343    0.000000    1.000000
   171  Na    c    11.041502    2.197121    0.000359    0.000000    1.000000
   172  Na    c    -6.533715    2.197121    0.000359    0.000000    1.000000
   173  O     c    11.228169    2.245499    2.253050    0.000000    0.183000
   174  O     c    -6.720382    2.245499    2.253050    0.000000    0.183000
   175  O     c     6.765624    6.761637    6.772864    0.000000    0.183000
   176  O     c    -2.257837    6.761637    6.772864    0.000000    0.183000
   177  Cl    c     9.054416    4.543429   -4.536906    0.000000    1.485000
   178  Cl    c    -4.546629    4.543429   -4.536906    0.000000    1.485000
   179  Na    c     9.021143    6.663556   -2.240180    0.000000    1.000000
   180  Na    c    -4.513356    6.663556   -2.240180    0.000000    1.000000
   181  Na    c    10.943175   -0.006921    2.273595    0.000000    1.000000
   182  Na    c    -6.435388   -0.006921    2.273595    0.000000    1.000000
   183  O     c     2.253894    6.733032   -6.746944    0.000000    0.183000
   184  Na    c    -2.268600    2.116517    9.014320    0.000000    1.000000
   185  Na    c     6.776387    2.116517    9.014320    0.000000    1.000000
   186  Na    c    -2.278497   -6.646342   -0.007600    0.000000    1.000000
   187  Na    c     6.786284   -6.646342   -0.007600    0.000000    1.000000
   188  Na    c    -2.292328    9.010090   -2.260321    0.000000    1.000000
   189  Na    c     6.800115    9.010090   -2.260321    0.000000    1.000000
   190  Na    c     6.685887    4.504426   -6.700265    0.000000    1.000000
   191  Na    c    -2.178099    4.504426   -6.700265    0.000000    1.000000
   192  O     c    -2.233361   -6.726809    2.247574    0.000000    0.183000
   193  O     c     6.741148   -6.726809    2.247574    0.000000    0.183000
   194  Na    c     6.707164   -4.511200    6.792977    0.000000    1.000000
   195  Na    c    -2.199376   -4.511200    6.792977    0.000000    1.000000
   196  O     c    11.256485    2.248151   -2.253912    0.000000    0.183000
   197  O     c    -6.748698    2.248151   -2.253912    0.000000    0.183000
   198  O     c    -2.256727   -2.246222   -6.764957    0.000000    0.183000
   199  O     c     6.764514   -2.246222   -6.764957    0.000000    0.183000
   200  Cl    c     4.512422    9.048301   -4.526206    0.000000    1.485000
   201  Cl    c    -0.004635    9.048301   -4.526206    0.000000    1.485000
   202  Na    c     4.503415    6.782401   -6.716654    0.000000    1.000000
   203  Na    c     0.004372    6.782401   -6.716654    0.000000    1.000000
   204  Na    c     2.253894    8.998456    6.583535    0.000000    1.000000
   205  Na    c    11.099059   -0.008110   -2.295001    0.000000    1.000000
   206  Na    c    -6.591272   -0.008110   -2.295001    0.000000    1.000000
   207  Na    c    11.495229    4.483878    2.216747    0.000000    1.000000
   208  Na    c    -6.987442    4.483878    2.216747    0.000000    1.000000
   209  Na    c     2.253894   -4.498695   -6.949583    0.000000    1.000000
   210  Cl    c     9.075206   -4.508975    4.539353    0.000000    1.485000
   211  Cl    c    -4.567419   -4.508975    4.539353    0.000000    1.485000
   212  Na    c     9.013343   -2.347109    6.720889    0.000000    1.000000
   213  Na    c    -4.505556   -2.347109    6.720889    0.000000    1.000000
   214  Na    c     2.253894    6.770840    8.981215    0.000000    1.000000
   215  Na    c     2.253894   -6.625257   -4.500878    0.000000    1.000000
   216  Na    c    11.324386    2.202630    4.504170    0.000000    1.000000
   217  Na    c    -6.816598    2.202630    4.504170    0.000000    1.000000
   218  Na    c    11.200626   -2.221995    0.000746    0.000000    1.000000
   219  Na    c    -6.692839   -2.221995    0.000746    0.000000    1.000000
   220  O     c    11.229606   -2.256504    2.253572    0.000000    0.183000
   221  O     c    -6.721819   -2.256504    2.253572    0.000000    0.183000
   222  O     c    -2.254927   -6.760546   -2.267060    0.000000    0.183000
   223  O     c     6.762714   -6.760546   -2.267060    0.000000    0.183000
   224  Na    c     2.253894    2.080615   -9.002123    0.000000    1.000000
   225  Na    c     2.253894   11.131557   -0.002652    0.000000    1.000000
   226  O     c     2.253894   11.258857    2.267419    0.000000    0.183000
   227  Na    c    -2.277479   -2.204926    9.011253    0.000000    1.000000
   228  Na    c     6.785267   -2.204926    9.011253    0.000000    1.000000
   229  Na    c    -2.253171   -6.703628    4.510146    0.000000    1.000000
   230  Na    c     6.760959   -6.703628    4.510146    0.000000    1.000000
   231  Na    c    11.381238    4.501030   -2.166122    0.000000    1.000000
   232  Na    c    -6.873450    4.501030   -2.166122    0.000000    1.000000
   233  O     c     2.253894   -6.745099    6.741202    0.000000    0.183000
   234  O     c    11.262143   -2.260756   -2.256346    0.000000    0.183000
   235  O     c    -6.754356   -2.260756   -2.256346    0.000000    0.183000
   236  Cl    c     4.478298    0.002817   -9.055221    0.000000    1.485000
   237  Cl    c     0.029490    0.002817   -9.055221    0.000000    1.485000
   238  Cl    c     9.033841    9.038096   -0.000357    0.000000    1.485000
   239  Cl    c    -4.526053    9.038096   -0.000357    0.000000    1.485000
   240  Na    c     4.514640   11.209055    2.200262    0.000000    1.000000
   241  Na    c    -0.006853   11.209055    2.200262    0.000000    1.000000
   242  Na    c     9.012466    2.338875   -6.629678    0.000000    1.000000
   243  Na    c    -4.504678    2.338875   -6.629678    0.000000    1.000000
   244  Cl    c     4.520313   -4.505618    9.068165    0.000000    1.485000
   245  Cl    c    -0.012526   -4.505618    9.068165    0.000000    1.485000
   246  Na    c     4.507669   -6.726589    6.741894    0.000000    1.000000
   247  Na    c     0.000118   -6.726589    6.741894    0.000000    1.000000
   248  O     c     2.253894   11.246769   -2.273512    0.000000    0.183000
   249  O     c     6.759138    6.764036   -6.759019    0.000000    0.183000
   250  O     c    -2.251351    6.764036   -6.759019    0.000000    0.183000
   251  Na    c    11.260660   -2.230361    4.507508    0.000000    1.000000
   252  Na    c    -6.752873   -2.230361    4.507508    0.000000    1.000000
   253  O     c     2.253894    2.259357   11.262456    0.000000    0.183000
   254  Cl    c     9.059369   -4.509928   -4.533887    0.000000    1.485000
   255  Cl    c    -4.551582   -4.509928   -4.533887    0.000000    1.485000
   256  Na    c     9.013703    6.668568    6.827910    0.000000    1.000000
   257  Na    c    -4.505915    6.668568    6.827910    0.000000    1.000000
   258  Na    c     2.253894   -0.011490   11.163116    0.000000    1.000000
   259  Na    c     2.253894   -9.045482    2.158870    0.000000    1.000000
   260  Na    c     2.253894   11.407000    4.513457    0.000000    1.000000
   261  Na    c     2.253894   -2.108123   -9.000622    0.000000    1.000000
   262  Na    c    11.415270    2.264610   -4.499781    0.000000    1.000000
[...]
    238 y          4.507787      4.591484     0.083697    Cartesian    1.86
    238 z          4.507787      4.627286     0.119499    Cartesian    2.65
    239 x          2.253894      2.253894     0.000000    Cartesian    0.00
    239 y          6.761681      6.780502     0.018821    Cartesian    0.28
    239 z          2.253894      2.232021    -0.021872    Cartesian   -0.97
    240 x         -2.253894     -2.260613    -0.006719    Cartesian    0.30
    240 y          2.253894      2.253992     0.000098    Cartesian    0.00
    240 z         -2.253894     -2.251225     0.002668    Cartesian   -0.12
    241 x          2.253894      2.253894     0.000000    Cartesian    0.00
    241 y          2.253894      2.217203    -0.036690    Cartesian   -1.63
    241 z          6.761681      6.742249    -0.019432    Cartesian   -0.29
    242 x         -2.253894     -2.206124     0.047769    Cartesian   -2.12
    242 y         -2.253894     -2.248726     0.005167    Cartesian   -0.23
    242 z          2.253894      2.255962     0.002069    Cartesian    0.09
    243 x          4.507787      4.511816     0.004028    Cartesian    0.09
    243 y         -0.000000     -0.034004    -0.034004    Cartesian *******
    243 z         -4.507787     -4.553179    -0.045392    Cartesian    1.01
    244 x          2.253894      2.253894     0.000000    Cartesian    0.00
    244 y          6.761681      6.722683    -0.038997    Cartesian   -0.58
    244 z         -2.253894     -2.238239     0.015654    Cartesian   -0.69
    245 x          4.507787      4.578964     0.071177    Cartesian    1.58
    245 y         -4.507787     -4.617333    -0.109546    Cartesian    2.43
    245 z          0.000000     -0.136055    -0.136055    Cartesian    0.00
    246 x          6.761681      6.767700     0.006019    Cartesian    0.09
    246 y         -2.253894     -2.257944    -0.004051    Cartesian    0.18
    246 z         -2.253894     -2.265829    -0.011935    Cartesian    0.53
    247 x          4.507787      4.550261     0.042474    Cartesian    0.94
    247 y          4.507787      4.512009     0.004221    Cartesian    0.09
    247 z         -4.507787     -4.544593    -0.036806    Cartesian    0.82
    248 x          2.253894      2.253894     0.000000    Cartesian    0.00
    248 y         -2.253894     -2.230077     0.023816    Cartesian   -1.06
    248 z          6.761681      6.714403    -0.047278    Cartesian   -0.70
    249 x          9.015574      9.033844     0.018270    Cartesian    0.20
    249 y         -0.000000     -0.007876    -0.007876    Cartesian *******
    249 z          0.000000     -0.007254    -0.007254    Cartesian    0.00
    250 x         -2.253894     -2.245085     0.008809    Cartesian   -0.39
    250 y          6.761681      6.718486    -0.043195    Cartesian   -0.64
    250 z          2.253894      2.261189     0.007295    Cartesian    0.32
    251 x          4.507787      4.621406     0.113619    Cartesian    2.52
    251 y         -4.507787     -4.628240    -0.120453    Cartesian    2.67
    251 z          4.507787      4.608408     0.100621    Cartesian    2.23
    252 x          6.761681      6.763127     0.001447    Cartesian    0.02
    252 y          2.253894      2.257057     0.003163    Cartesian    0.14
    252 z          6.761681      6.771581     0.009900    Cartesian    0.15
    253 x          9.015574      9.067488     0.051914    Cartesian    0.58
    253 y          4.507787      4.485397    -0.022391    Cartesian   -0.50
    253 z          0.000000     -0.013792    -0.013792    Cartesian    0.00
    254 x          2.253894      2.253894     0.000000    Cartesian    0.00
    254 y          2.253894      2.256197     0.002303    Cartesian    0.10
    254 z         -6.761681     -6.725885     0.035796    Cartesian   -0.53
    255 x          6.761681      6.772517     0.010836    Cartesian    0.16
    255 y          6.761681      6.762594     0.000913    Cartesian    0.01
    255 z         -2.253894     -2.264360    -0.010466    Cartesian    0.46
    256 x          9.015574      9.055517     0.039943    Cartesian    0.44
    256 y         -0.000000      0.001463     0.001463    Cartesian *******
    256 z          4.507787      4.534383     0.026595    Cartesian    0.59
    257 x          2.253894      2.253894     0.000000    Cartesian    0.00
    257 y          6.761681      6.740599    -0.021082    Cartesian   -0.31
    257 z          6.761681      6.710211    -0.051470    Cartesian   -0.76
    258 x          4.507787      4.526019     0.018232    Cartesian    0.40
    258 y          9.015574      9.028725     0.013151    Cartesian    0.15
    258 z          0.000000      0.000849     0.000849    Cartesian    0.00
    259 x          2.253894      2.253894     0.000000    Cartesian    0.00
    259 y         -6.761681     -6.799603    -0.037922    Cartesian    0.56
    259 z          2.253894      2.268113     0.014219    Cartesian    0.63
    260 x         -2.253894     -2.260341    -0.006447    Cartesian    0.29
    260 y         -2.253894     -2.259282    -0.005389    Cartesian    0.24
    260 z          6.761681      6.758951    -0.002730    Cartesian   -0.04
    261 x          4.507787      4.507501    -0.000287    Cartesian   -0.01
    261 y         -4.507787     -4.533015    -0.025228    Cartesian    0.56
    261 z         -4.507787     -4.552319    -0.044532    Cartesian    0.99
    262 x          9.015574      9.070185     0.054611    Cartesian    0.61
    262 y          4.507787      4.527241     0.019453    Cartesian    0.43
    262 z          4.507787      4.544507     0.036720    Cartesian    0.81
    263 x          2.253894      2.253894     0.000000    Cartesian    0.00
    263 y         -2.253894     -2.253183     0.000711    Cartesian   -0.03
    263 z         -6.761681     -6.739707     0.021974    Cartesian   -0.32
    264 x          4.507787      4.503993    -0.003794    Cartesian   -0.08
    264 y         -0.000000      0.010270     0.010270    Cartesian *******
    264 z          9.015574      9.037623     0.022049    Cartesian    0.24
    265 x          2.253894      2.253894     0.000000    Cartesian    0.00
    265 y         -6.761681     -6.751927     0.009754    Cartesian   -0.14
    265 z         -2.253894     -2.240730     0.013163    Cartesian   -0.58
    266 x          4.507787      4.489148    -0.018639    Cartesian   -0.41
    266 y          9.015574      9.060119     0.044545    Cartesian    0.49
    266 z          4.507787      4.505644    -0.002143    Cartesian   -0.05
    267 x          9.015574      9.022287     0.006713    Cartesian    0.07
    267 y         -0.000000      0.001730     0.001730    Cartesian *******
    267 z         -4.507787     -4.531785    -0.023998    Cartesian    0.53
    268 x         -2.253894     -2.246764     0.007129    Cartesian   -0.32
    268 y          2.253894      2.246517    -0.007377    Cartesian   -0.33
    268 z         -6.761681     -6.751374     0.010307    Cartesian   -0.15
    269 x          4.507787      4.476686    -0.031102    Cartesian   -0.69
    269 y          4.507787      4.499032    -0.008755    Cartesian   -0.19
    269 z          9.015574      9.047587     0.032013    Cartesian    0.36
    270 x          9.015574      9.091659     0.076085    Cartesian    0.84
    270 y         -4.507787     -4.507750     0.000037    Cartesian   -0.00
    270 z          0.000000     -0.025676    -0.025676    Cartesian    0.00
    271 x         11.269468     11.228163    -0.041305    Cartesian   -0.37
    271 y          2.253894      2.245533    -0.008361    Cartesian   -0.37
    271 z          2.253894      2.253071    -0.000823    Cartesian   -0.04
    272 x          6.761681      6.765625     0.003944    Cartesian    0.06
    272 y          6.761681      6.761635    -0.000046    Cartesian   -0.00
    272 z          6.761681      6.772884     0.011203    Cartesian    0.17
    273 x          9.015574      9.058427     0.042853    Cartesian    0.48
    273 y          4.507787      4.541953     0.034166    Cartesian    0.76
    273 z         -4.507787     -4.537758    -0.029970    Cartesian    0.66
    274 x          2.253894      2.253894     0.000000    Cartesian    0.00
    274 y          6.761681      6.733010    -0.028671    Cartesian   -0.42
    274 z         -6.761681     -6.746992     0.014688    Cartesian   -0.22
    275 x         -2.253894     -2.233309     0.020585    Cartesian   -0.91
    275 y         -6.761681     -6.726828     0.034853    Cartesian   -0.52
    275 z          2.253894      2.247573    -0.006321    Cartesian   -0.28
    276 x         11.269468     11.256481    -0.012987    Cartesian   -0.12
    276 y          2.253894      2.248166    -0.005728    Cartesian   -0.25
    276 z         -2.253894     -2.253939    -0.000045    Cartesian    0.00
    277 x         -2.253894     -2.256740    -0.002846    Cartesian    0.13
    277 y         -2.253894     -2.246209     0.007685    Cartesian   -0.34
    277 z         -6.761681     -6.764963    -0.003282    Cartesian    0.05
    278 x          4.507787      4.508204     0.000417    Cartesian    0.01
    278 y          9.015574      9.052146     0.036571    Cartesian    0.41
    278 z         -4.507787     -4.527653    -0.019866    Cartesian    0.44
    279 x          9.015574      9.081132     0.065558    Cartesian    0.73
    279 y         -4.507787     -4.505047     0.002741    Cartesian   -0.06
    279 z          4.507787      4.537960     0.030173    Cartesian    0.67
    280 x         11.269468     11.229611    -0.039857    Cartesian   -0.35
    280 y         -2.253894     -2.256542    -0.002648    Cartesian    0.12
    280 z          2.253894      2.253575    -0.000319    Cartesian   -0.01
    281 x         -2.253894     -2.254915    -0.001022    Cartesian    0.05
    281 y         -6.761681     -6.760554     0.001127    Cartesian   -0.02
    281 z         -2.253894     -2.267078    -0.013184    Cartesian    0.58
    282 x          2.253894      2.253894     0.000000    Cartesian    0.00
    282 y         11.269468     11.258837    -0.010631    Cartesian   -0.09
    282 z          2.253894      2.267476     0.013582    Cartesian    0.60
    283 x          2.253894      2.253894     0.000000    Cartesian    0.00
    283 y         -6.761681     -6.745155     0.016526    Cartesian   -0.24
    283 z          6.761681      6.741154    -0.020527    Cartesian   -0.30
    284 x         11.269468     11.262125    -0.007343    Cartesian   -0.07
    284 y         -2.253894     -2.260790    -0.006896    Cartesian    0.31
    284 z         -2.253894     -2.256359    -0.002465    Cartesian    0.11
    285 x          4.507787      4.470910    -0.036877    Cartesian   -0.82
    285 y         -0.000000      0.003624     0.003624    Cartesian *******
    285 z         -9.015574     -9.059450    -0.043876    Cartesian    0.49
    286 x          9.015574      9.035620     0.020046    Cartesian    0.22
    286 y          9.015574      9.042716     0.027142    Cartesian    0.30
    286 z          0.000000     -0.000139    -0.000139    Cartesian    0.00
    287 x          4.507787      4.517826     0.010039    Cartesian    0.22
    287 y         -4.507787     -4.504757     0.003030    Cartesian   -0.07
    287 z          9.015574      9.073819     0.058245    Cartesian    0.65
    288 x          2.253894      2.253894     0.000000    Cartesian    0.00
    288 y         11.269468     11.246776    -0.022692    Cartesian   -0.20
    288 z         -2.253894     -2.273574    -0.019681    Cartesian    0.87
    289 x          6.761681      6.759138    -0.002543    Cartesian   -0.04
    289 y          6.761681      6.764049     0.002368    Cartesian    0.04
    289 z         -6.761681     -6.758997     0.002684    Cartesian   -0.04
    290 x          2.253894      2.253894     0.000000    Cartesian    0.00
    290 y          2.253894      2.259399     0.005505    Cartesian    0.24
    290 z         11.269468     11.262436    -0.007032    Cartesian   -0.06
    291 x          9.015574      9.064613     0.049038    Cartesian    0.54
    291 y         -4.507787     -4.507100     0.000687    Cartesian   -0.02
    291 z         -4.507787     -4.535388    -0.027601    Cartesian    0.61
    292 x         11.269468     11.264896    -0.004572    Cartesian   -0.04
    292 y          6.761681      6.731417    -0.030264    Cartesian   -0.45
    292 z          2.253894      2.251034    -0.002859    Cartesian   -0.13
    293 x          4.507787      4.522245     0.014458    Cartesian    0.32
    293 y          4.507787      4.499189    -0.008598    Cartesian   -0.19
    293 z         -9.015574     -9.027100    -0.011526    Cartesian    0.13
    294 x          4.507787      4.476166    -0.031621    Cartesian   -0.70
    294 y         -9.015574     -9.054041    -0.038466    Cartesian    0.43
    294 z          0.000000      0.010505     0.010505    Cartesian    0.00
    295 x          9.015574      9.028663     0.013089    Cartesian    0.15
    295 y         -0.000000     -0.009783    -0.009783    Cartesian *******
    295 z          9.015574      9.060279     0.044704    Cartesian    0.50
    296 x         11.269468     11.273784     0.004316    Cartesian    0.04
    296 y          2.253894      2.257103     0.003210    Cartesian    0.14
    296 z          6.761681      6.758838    -0.002843    Cartesian   -0.04
    297 x          9.015574      9.029340     0.013766    Cartesian    0.15
    297 y          9.015574      9.073193     0.057618    Cartesian    0.64
    297 z          4.507787      4.509110     0.001323    Cartesian    0.03
    298 x         -2.253894     -2.263545    -0.009652    Cartesian    0.43
    298 y         11.269468     11.256105    -0.013363    Cartesian   -0.12
    298 z          2.253894      2.256830     0.002936    Cartesian    0.13
    299 x         11.269468     11.275915     0.006447    Cartesian    0.06
    299 y          6.761681      6.757534    -0.004147    Cartesian   -0.06
    299 z         -2.253894     -2.244867     0.009027    Cartesian   -0.40
    300 x          6.761681      6.768945     0.007264    Cartesian    0.11
    300 y         -6.761681     -6.768128    -0.006447    Cartesian    0.10
    300 z          6.761681      6.773222     0.011541    Cartesian    0.17
    301 x          2.253894      2.253894     0.000000    Cartesian    0.00
    301 y         -2.253894     -2.278616    -0.024722    Cartesian    1.10
    301 z         11.269468     11.249742    -0.019726    Cartesian   -0.18
    302 x          9.015574      9.054803     0.039228    Cartesian    0.44
    302 y          4.507787      4.524834     0.017047    Cartesian    0.38
    302 z          9.015574      9.024991     0.009416    Cartesian    0.10
    303 x          2.253894      2.253894     0.000000    Cartesian    0.00
    303 y         -6.761681     -6.752484     0.009197    Cartesian   -0.14
    303 z         -6.761681     -6.769551    -0.007870    Cartesian    0.12
    304 x          4.507787      4.495313    -0.012475    Cartesian   -0.28
    304 y         -9.015574     -9.033887    -0.018313    Cartesian    0.20
    304 z          4.507787      4.490431    -0.017356    Cartesian   -0.39
    305 x         -2.253894     -2.259054    -0.005160    Cartesian    0.23
    305 y         11.269468     11.268550    -0.000918    Cartesian   -0.01
    305 z         -2.253894     -2.252629     0.001265    Cartesian   -0.06
    306 x          6.761681      6.765413     0.003733    Cartesian    0.06
    306 y          2.253894      2.241592    -0.012301    Cartesian   -0.55
    306 z         11.269468     11.269877     0.000409    Cartesian    0.00
    307 x         11.269468     11.270100     0.000632    Cartesian    0.01
    307 y         -2.253894     -2.254929    -0.001036    Cartesian    0.05
    307 z          6.761681      6.766010     0.004329    Cartesian    0.06
    308 x         13.523362     13.639144     0.115782    Cartesian    0.86
    308 y         -0.000000      0.011427     0.011427    Cartesian *******
    308 z          0.000000      0.014467     0.014467    Cartesian    0.00
    309 x          4.507787      4.539518     0.031731    Cartesian    0.70
    309 y          9.015574      9.029460     0.013886    Cartesian    0.15
    309 z          9.015574      9.049797     0.034223    Cartesian    0.38
    310 x          2.253894      2.253894     0.000000    Cartesian    0.00
    310 y         11.269468     11.266616    -0.002852    Cartesian   -0.03
    310 z          6.761681      6.759750    -0.001930    Cartesian   -0.03
    311 x          9.015574      9.012201    -0.003373    Cartesian   -0.04
    311 y          9.015574      9.045789     0.030215    Cartesian    0.34
    311 z         -4.507787     -4.531495    -0.023707    Cartesian    0.53
    312 x          2.253894      2.253894     0.000000    Cartesian    0.00
    312 y          6.761681      6.765270     0.003590    Cartesian    0.05
    312 z         11.269468     11.264089    -0.005379    Cartesian   -0.05
    313 x         13.523362     13.549424     0.026062    Cartesian    0.19
    313 y          4.507787      4.540345     0.032558    Cartesian    0.72
    313 z          0.000000     -0.002769    -0.002769    Cartesian    0.00
    314 x          4.507787      4.508454     0.000667    Cartesian    0.01
    314 y         -4.507787     -4.525646    -0.017859    Cartesian    0.40
    314 z         -9.015574     -9.045275    -0.029700    Cartesian    0.33
    315 x         11.269468     11.276110     0.006642    Cartesian    0.06
    315 y          2.253894      2.262558     0.008664    Cartesian    0.38
    315 z         -6.761681     -6.753356     0.008325    Cartesian   -0.12
    316 x         -2.253894     -2.258662    -0.004769    Cartesian    0.21
    316 y         -2.253894     -2.252102     0.001792    Cartesian   -0.08
    316 z         11.269468     11.276416     0.006948    Cartesian    0.06
    317 x         13.523362     13.579270     0.055908    Cartesian    0.41
    317 y         -0.000000      0.004490     0.004490    Cartesian *******
    317 z          4.507787      4.480147    -0.027640    Cartesian   -0.61
    318 x          4.507787      4.541108     0.033320    Cartesian    0.74
    318 y         -9.015574     -9.046071    -0.030496    Cartesian    0.34
    318 z         -4.507787     -4.534516    -0.026729    Cartesian    0.59
--------------------------------------------------------------------------------


  Time to end of optimisation  =       80.0605 seconds


  Peak dynamic memory used =      93.04 MB 


  Timing analysis for GULP :

--------------------------------------------------------------------------------
  Task / Subroutine                                          Time (Seconds)
--------------------------------------------------------------------------------
  Calculation of reciprocal space energy and derivatives          0.0007
  Calculation of reciprocal space energy using symmetry           0.0010
  Calculation of real space energy and derivatives                0.0040
  Calculation of real space energy using symmetry                 0.0097
  Calculation for region 1 energy and derivatives (2-b)          43.4911
  Calculation for region 2a energy                               33.5613
  Calculation for region 2b energy                                0.0124
  Calculation and manipulation of Hessian matrix                  0.2019
  Calculation of matrix inversion                                 2.4899
  Symmetry generation of equivalent positions                     0.0049
--------------------------------------------------------------------------------
  Total CPU time                                                 80.0606
--------------------------------------------------------------------------------


  Dump file written as Na3OCl.grs


  Job Finished at 22:36.06 30th November   2020                               

