********************************************************************************
*                       GENERAL UTILITY LATTICE PROGRAM                        *
*                                 Julian Gale                                  *
*                       Curtin Institute for Computation                       *
*                    School of Molecular and Life Sciences                     *
*                    Curtin University, Western Australia                      *
********************************************************************************
* Version = 5.2.0 * Last modified =  10th September 2020                       *
********************************************************************************
*  optimise     - perform optimisation run                                     *
*  conp         - constant pressure calculation                                *
*  property     - calculate properties for final geometry                      *
*  defect       - perform defect calculation after bulk run                    *
*  compare      - compare initial and final structures                         *
********************************************************************************

  Job Started  at 22:35.20 30th November   2020                               

  Number of CPUs =     1


  Total number of configurations input =      1

********************************************************************************
*  Input for Configuration =   1                                               *
********************************************************************************

  Formula = ClONa3                                                      

  Number of irreducible atoms/shells =       5


  Total number atoms/shells =       7

  Dimensionality = 3               :  Bulk   


  Symmetry :

  Crystal family                   :  Cubic       
  Crystal class  (Groth - 1921)    :  Cubic Hexakisoctahedral              

  Space group (centrosymmetric)    :  P M 3 M         

  Patterson group                  :  P m -3 m 

  Cartesian lattice vectors (Angstroms) :

        4.504000    0.000000    0.000000
        0.000000    4.504000    0.000000
        0.000000    0.000000    4.504000

  Cell parameters (Angstroms/Degrees):

  a =       4.5040    alpha =  90.0000
  b =       4.5040    beta  =  90.0000
  c =       4.5040    gamma =  90.0000

  Initial cell volume =          91.368216 Angs**3

  Temperature of configuration =   0.00     K 

  Pressure of configuration =         0.000 GPa 

  Fractional coordinates of asymmetric unit :

--------------------------------------------------------------------------------
   No.  Atomic       x           y          z         Charge      Occupancy
        Label      (Frac)      (Frac)     (Frac)        (e)         (Frac)  
--------------------------------------------------------------------------------
      1 Cl    c    0.000000    0.000000    0.000000     1.48500    1.000000    
      2 O     c    0.500000    0.500000    0.500000     0.18300    1.000000    
      3 Na    c    0.500000    0.500000    0.000000     1.00000    1.000000    
      4 Cl    s    0.000000    0.000000    0.000000    -2.48500    1.000000    
      5 O     s    0.500000    0.500000    0.500000    -2.18300    1.000000    
--------------------------------------------------------------------------------


  Constraints : 

--------------------------------------------------------------------------------
  Constraint no.      Unconstrained     Constrained    Coefficient    Offset
                         Variable         Variable
--------------------------------------------------------------------------------
           1              Strain 1        Strain 2       1.00000      0.0000
           2              Strain 1        Strain 3       1.00000      0.0000
--------------------------------------------------------------------------------


********************************************************************************
*  General input information                                                   *
********************************************************************************

  Species output for all configurations : 

--------------------------------------------------------------------------------
  Species    Type    Atomic    Atomic    Charge       Radii (Angs)     Library
                     Number     Mass       (e)     Cova   Ionic  VDW   Symbol
--------------------------------------------------------------------------------
    Na       Core       11      22.99   1.000000   0.970  0.000  2.300          
    O        Core        8      16.00   0.183000   0.730  0.000  1.360          
    O        Shell       8       0.00  -2.183000   0.730  0.000  1.360          
    Cl       Core       17      35.45   1.485000   0.990  0.000  1.650          
    Cl       Shell      17       0.00  -2.485000   0.990  0.000  1.650          
    Mg       Core       12      24.31   0.415000   1.100  0.000  0.000          
    Mg       Shell      12       0.00   1.585000   1.100  0.000  0.000          
    Ca       Core       20      40.08  -1.135000   0.990  0.000  0.000          
    Ca       Shell      20       0.00   3.135000   0.990  0.000  0.000          
    Sr       Core       38      87.62  -1.251000   1.120  0.000  0.000          
    Sr       Shell      38       0.00   3.251000   1.120  0.000  0.000          
    Ba       Core       56     137.33  -7.203000   1.340  0.000  0.000          
    Ba       Shell      56       0.00   9.203000   1.340  0.000  0.000          
--------------------------------------------------------------------------------


  Lattice summation method               =    Ewald          (3-D)
                                         =    Parry          (2-D)
                                         =    Saunders et al (1-D)
  Accuracy factor for lattice sums       =   12.000


  Analytic derivatives to be used

  Time limit = Infinity

  Maximum range for interatomic potentials =    100000.000000 Angstroms

  General interatomic potentials :

--------------------------------------------------------------------------------
Atom  Types   Potential      Parameter       Value         Units   Cutoffs(Ang)
  1     2                                                            Min /  Max 
--------------------------------------------------------------------------------
O    c O    s Spring (c-s)  Spring k 2       593.71600    eV*Ang^-2 0.000  0.800
                            Spring k 4       0.0000000    eV*Ang^-4 
--------------------------------------------------------------------------------
Cl   c Cl   s Spring (c-s)  Spring k 2       29.380000    eV*Ang^-2 0.000  0.800
                            Spring k 4       0.0000000    eV*Ang^-4 
--------------------------------------------------------------------------------
Mg   c Mg   s Spring (c-s)  Spring k 2       361.60000    eV*Ang^-2 0.000  0.800
                            Spring k 4       0.0000000    eV*Ang^-4 
--------------------------------------------------------------------------------
Ca   c Ca   s Spring (c-s)  Spring k 2       110.20000    eV*Ang^-2 0.000  0.800
                            Spring k 4       0.0000000    eV*Ang^-4 
--------------------------------------------------------------------------------
Sr   c Sr   s Spring (c-s)  Spring k 2       71.700000    eV*Ang^-2 0.000  0.800
                            Spring k 4       0.0000000    eV*Ang^-4 
--------------------------------------------------------------------------------
Ba   c Ba   s Spring (c-s)  Spring k 2       495.20000    eV*Ang^-2 0.000  0.800
                            Spring k 4       0.0000000    eV*Ang^-4 
--------------------------------------------------------------------------------
Na   c Na   c Buckingham    Buckingham A     1788.1900    eV        0.000 12.000
                            Buckingham rho  0.15900000    Ang       
                            Buckingham C     0.0000000    eV*Ang^6  
--------------------------------------------------------------------------------
Na   c O    s Buckingham    Buckingham A     1226.8400    eV        0.000 12.000
                            Buckingham rho  0.30700000    Ang       
                            Buckingham C     0.0000000    eV*Ang^6  
--------------------------------------------------------------------------------
Na   c Cl   s Buckingham    Buckingham A     2314.7000    eV        0.000 12.000
                            Buckingham rho  0.29000000    Ang       
                            Buckingham C     0.0000000    eV*Ang^6  
--------------------------------------------------------------------------------
O    s O    s Buckingham    Buckingham A     22764.300    eV        0.000 12.000
                            Buckingham rho  0.14900000    Ang       
                            Buckingham C     13.190000    eV*Ang^6  
--------------------------------------------------------------------------------
O    s Cl   s Buckingham    Buckingham A     8286.9100    eV        0.000 12.000
                            Buckingham rho  0.25900000    Ang       
                            Buckingham C     62.200000    eV*Ang^6  
--------------------------------------------------------------------------------
Cl   s Cl   s Buckingham    Buckingham A     1227.2000    eV        0.000 12.000
                            Buckingham rho  0.32100000    Ang       
                            Buckingham C     14.530000    eV*Ang^6  
--------------------------------------------------------------------------------
O    s Mg   s Buckingham    Buckingham A     1428.5000    eV        0.000 12.000
                            Buckingham rho  0.29450000    Ang       
                            Buckingham C     0.0000000    eV*Ang^6  
--------------------------------------------------------------------------------
Mg   s Cl   s Buckingham    Buckingham A     4914.5400    eV        0.000 12.000
                            Buckingham rho  0.25700000    Ang       
                            Buckingham C     0.0000000    eV*Ang^6  
--------------------------------------------------------------------------------
O    s Ca   s Buckingham    Buckingham A     1090.4000    eV        0.000 12.000
                            Buckingham rho  0.34370000    Ang       
                            Buckingham C     0.0000000    eV*Ang^6  
--------------------------------------------------------------------------------
Cl   s Ca   s Buckingham    Buckingham A     2302.0000    eV        0.000 12.000
                            Buckingham rho  0.34020000    Ang       
                            Buckingham C     0.0000000    eV*Ang^6  
--------------------------------------------------------------------------------
O    s Sr   s Buckingham    Buckingham A     959.10000    eV        0.000 12.000
                            Buckingham rho  0.37210000    Ang       
                            Buckingham C     0.0000000    eV*Ang^6  
--------------------------------------------------------------------------------
Cl   s Sr   s Buckingham    Buckingham A     2191.0900    eV        0.000 12.000
                            Buckingham rho  0.34570000    Ang       
                            Buckingham C     0.0000000    eV*Ang^6  
--------------------------------------------------------------------------------
O    s Ba   s Buckingham    Buckingham A     905.70000    eV        0.000 12.000
                            Buckingham rho  0.39760000    Ang       
                            Buckingham C     0.0000000    eV*Ang^6  
--------------------------------------------------------------------------------
Cl   s Ba   s Buckingham    Buckingham A     2704.5500    eV        0.000 12.000
                            Buckingham rho  0.35280000    Ang       
                            Buckingham C     0.0000000    eV*Ang^6  
--------------------------------------------------------------------------------

********************************************************************************
*  Output for configuration   1                                                *
********************************************************************************


  Components of energy : 

--------------------------------------------------------------------------------
  Interatomic potentials     =           5.13022605 eV    
  Monopole - monopole (real) =         -10.03624526 eV    
  Monopole - monopole (recip)=         -29.53581274 eV    
  Monopole - monopole (total)=         -39.57205800 eV    
--------------------------------------------------------------------------------
  Total lattice energy       =         -34.44183194 eV    
--------------------------------------------------------------------------------
  Total lattice energy       =           -3323.1103 kJ/(mole unit cells)
--------------------------------------------------------------------------------


  Number of variables =        1

  Maximum number of calculations  =          1000
  Maximum Hessian update interval =            10
  Maximum step size               =   1.000000000
  Maximum parameter tolerance     =   0.000010000
  Maximum function  tolerance     =   0.000010000
  Maximum gradient  tolerance     =   0.001000000
  Maximum gradient  component     =   0.010000000

  Symmetry constrained optimisation

  Symmetry used for second derivatives

  Cell parameters to be optimised using strains

  Newton-Raphson optimiser to be used

  BFGS hessian update to be used

  Lower half triangular hessian to be used

  Start of bulk optimisation :

  Cycle:      0 Energy:       -34.441832  Gnorm:      0.196570  CPU:    0.016
  ** Hessian calculated **
  Cycle:      1 Energy:       -34.441914  Gnorm:      0.000103  CPU:    0.020


  **** Optimisation achieved ****


  Final energy =     -34.44191447 eV
  Final Gnorm  =       0.00000000

  Components of energy : 

--------------------------------------------------------------------------------
  Interatomic potentials     =           5.09689708 eV    
  Monopole - monopole (real) =         -10.02781331 eV    
  Monopole - monopole (recip)=         -29.51099824 eV    
  Monopole - monopole (total)=         -39.53881155 eV    
--------------------------------------------------------------------------------
  Total lattice energy       =         -34.44191447 eV    
--------------------------------------------------------------------------------
  Total lattice energy       =           -3323.1183 kJ/(mole unit cells)
--------------------------------------------------------------------------------

  Final asymmetric unit coordinates :

--------------------------------------------------------------------------------
   No.  Atomic        x           y           z         Radius
        Label       (Frac)      (Frac)      (Frac)       (Angs) 
--------------------------------------------------------------------------------
     1  Cl    c     0.000000    0.000000    0.000000    0.000000
     2  O     c     0.500000    0.500000    0.500000    0.000000
     3  Na    c     0.500000    0.500000    0.000000    0.000000
     4  Cl    s     0.000000    0.000000    0.000000    0.000000
     5  O     s     0.500000    0.500000    0.500000    0.000000
--------------------------------------------------------------------------------

  Final Cartesian lattice vectors (Angstroms) :

        4.507787    0.000000    0.000000
        0.000000    4.507787    0.000000
        0.000000    0.000000    4.507787


  Final cell parameters and derivatives :

--------------------------------------------------------------------------------
       a            4.507787 Angstrom     dE/de1(xx)     0.000000 eV/strain
       b            4.507787 Angstrom     dE/de2(yy)     0.000000 eV/strain
       c            4.507787 Angstrom     dE/de3(zz)     0.000000 eV/strain
       alpha       90.000000 Degrees      dE/de4(yz)     0.000000 eV/strain
       beta        90.000000 Degrees      dE/de5(xz)     0.000000 eV/strain
       gamma       90.000000 Degrees      dE/de6(xy)     0.000000 eV/strain
--------------------------------------------------------------------------------

  Primitive cell volume =            91.598892 Angs**3

  Density of cell =      2.183054 g/cm**3

  Non-primitive cell volume =            91.598892 Angs**3


  Final internal derivatives :

--------------------------------------------------------------------------------
   No.  Atomic          a             b             c           Radius
        Label          (eV)          (eV)          (eV)        (eV/Angs)
--------------------------------------------------------------------------------
      1 Cl    c       0.000000      0.000000      0.000000      0.000000
      2 O     c       0.000000      0.000000      0.000000      0.000000
      3 Na    c       0.000000      0.000000      0.000000      0.000000
      4 Cl    s       0.000000      0.000000      0.000000      0.000000
      5 O     s       0.000000      0.000000      0.000000      0.000000
--------------------------------------------------------------------------------
  Maximum abs         0.000000      0.000000      0.000000      0.000000
--------------------------------------------------------------------------------

  Comparison of initial and final structures : 

--------------------------------------------------------------------------------
  Parameter   Initial value   Final value   Difference    Units      Percent
--------------------------------------------------------------------------------
    Volume        91.368216     91.598892     0.230676    Angs**3      0.25
    a              4.504000      4.507787     0.003787    Angstroms    0.08
    b              4.504000      4.507787     0.003787    Angstroms    0.08
    c              4.504000      4.507787     0.003787    Angstroms    0.08
    alpha         90.000000     90.000000     0.000000    Degrees      0.00
    beta          90.000000     90.000000     0.000000    Degrees      0.00
    gamma         90.000000     90.000000     0.000000    Degrees      0.00
      1 x          0.000000      0.000000     0.000000    Fractional   0.00
      1 y          0.000000      0.000000     0.000000    Fractional   0.00
      1 z          0.000000      0.000000     0.000000    Fractional   0.00
      2 x          0.500000      0.500000     0.000000    Fractional   0.00
      2 y          0.500000      0.500000     0.000000    Fractional   0.00
      2 z          0.500000      0.500000     0.000000    Fractional   0.00
      3 x          0.500000      0.500000     0.000000    Fractional   0.00
      3 y          0.500000      0.500000     0.000000    Fractional   0.00
      3 z          0.000000      0.000000     0.000000    Fractional   0.00
      4 x          0.000000      0.000000     0.000000    Fractional   0.00
      4 y          0.000000      0.000000     0.000000    Fractional   0.00
      4 z          0.000000      0.000000     0.000000    Fractional   0.00
      5 x          0.500000      0.500000     0.000000    Fractional   0.00
      5 y          0.500000      0.500000     0.000000    Fractional   0.00
      5 z          0.500000      0.500000     0.000000    Fractional   0.00
--------------------------------------------------------------------------------


  Born effective charge tensors : 

-------------------------------------------------------------------------------
  Atom             x           y             z
-------------------------------------------------------------------------------
    1 Cl    x      -1.0181     -0.0000      0.0000
            y      -0.0000     -1.0181      0.0000
            z       0.0000      0.0000     -1.0181
-------------------------------------------------------------------------------
    2 O     x      -2.2647      0.0000     -0.0000
            y       0.0000     -2.2647     -0.0000
            z      -0.0000     -0.0000     -2.2647
-------------------------------------------------------------------------------
    3 Na    x       1.2258     -0.0000      0.0000
            y      -0.0000      1.2258     -0.0000
            z       0.0000     -0.0000      0.8313
-------------------------------------------------------------------------------




  Elastic Constant Matrix: (Units=GPa)

-------------------------------------------------------------------------------
  Indices      1         2         3         4         5         6    
-------------------------------------------------------------------------------
       1     95.8177   20.0737   20.0737   -0.0000   -0.0000    0.0000
       2     20.0737   95.8177   20.0737   -0.0000   -0.0000    0.0000
       3     20.0737   20.0737   95.8177   -0.0000   -0.0000    0.0000
       4     -0.0000   -0.0000   -0.0000   20.0737   -0.0000    0.0000
       5     -0.0000   -0.0000   -0.0000   -0.0000   20.0737    0.0000
       6      0.0000    0.0000    0.0000    0.0000    0.0000   20.0737
-------------------------------------------------------------------------------


  Elastic Compliance Matrix: (Units=1/GPa)

-------------------------------------------------------------------------------
  Indices      1         2         3         4         5         6    
-------------------------------------------------------------------------------
       1    0.011253 -0.001949 -0.001949  0.000000  0.000000 -0.000000
       2   -0.001949  0.011253 -0.001949  0.000000  0.000000  0.000000
       3   -0.001949 -0.001949  0.011253  0.000000  0.000000 -0.000000
       4    0.000000  0.000000  0.000000  0.049816  0.000000 -0.000000
       5    0.000000  0.000000  0.000000  0.000000  0.049816 -0.000000
       6   -0.000000  0.000000 -0.000000 -0.000000 -0.000000  0.049816
-------------------------------------------------------------------------------

  Mechanical properties :

-------------------------------------------------------------------------------
  Convention :                    Reuss         Voigt         Hill
-------------------------------------------------------------------------------
  Bulk  Modulus (GPa)     =      45.32174      45.32174      45.32174
  Shear Modulus (GPa)     =      24.72085      27.19304      25.95695
-------------------------------------------------------------------------------
  Velocity S-wave (km/s)  =       3.36511       3.52937       3.44822
  Velocity P-wave (km/s)  =       5.98827       6.11304       6.05098
-------------------------------------------------------------------------------
  Compressibility (1/GPa) =    0.02206447
-------------------------------------------------------------------------------
  Stress axis :                     x             y             z
-------------------------------------------------------------------------------
  Youngs Moduli (GPa)     =      88.86373      88.86373      88.86373
-------------------------------------------------------------------------------
  Poissons Ratio (x)      =                     0.17321       0.17321
  Poissons Ratio (y)      =       0.17321                     0.17321
  Poissons Ratio (z)      =       0.17321       0.17321
-------------------------------------------------------------------------------


  Piezoelectric Strain Matrix: (Units=C/m**2)

-------------------------------------------------------------------------------
  Indices      1         2         3         4         5         6    
-------------------------------------------------------------------------------
       x    -0.00000  -0.00000  -0.00000   0.00000  -0.00000  -0.00000
       y    -0.00000  -0.00000   0.00000  -0.00000   0.00000   0.00000
       z    -0.00000  -0.00000  -0.00000  -0.00000   0.00000   0.00000
-------------------------------------------------------------------------------


  Piezoelectric Stress Matrix: (Units=10**-11 C/N)

-------------------------------------------------------------------------------
  Indices      1         2         3         4         5         6    
-------------------------------------------------------------------------------
       x    -0.00000   0.00000   0.00000   0.00000  -0.00000  -0.00000
       y    -0.00000  -0.00000   0.00000  -0.00000   0.00000   0.00000
       z     0.00000   0.00000  -0.00000  -0.00000   0.00000   0.00000
-------------------------------------------------------------------------------


  Static dielectric constant tensor : 

-------------------------------------------------------------------------------
              x         y         z
-------------------------------------------------------------------------------
       x    22.84729   0.00000   0.00000
       y     0.00000  22.84729  -0.00000
       z     0.00000  -0.00000  22.84729
--------------------------------------------------------------------------------

  High frequency dielectric constant tensor : 

-------------------------------------------------------------------------------
              x         y         z
-------------------------------------------------------------------------------
       x     1.47557   0.00000  -0.00000
       y     0.00000   1.47557  -0.00000
       z    -0.00000  -0.00000   1.47557
-------------------------------------------------------------------------------

  Static refractive indices : 

-------------------------------------------------------------------------------
    1 =    4.77988      2 =    4.77988      3 =    4.77988
-------------------------------------------------------------------------------

  High frequency refractive indices : 

-------------------------------------------------------------------------------
    1 =    1.21473      2 =    1.21473      3 =    1.21473
-------------------------------------------------------------------------------


  Time to end of optimisation =       0.0290 seconds

********************************************************************************
*  Defect calculation for configuration   1 :                                  *
********************************************************************************

  Total number of defects =      3

  Total charge on defect  =  -1.00

  Defect centre is at   0.5000   0.3300   0.1700  Frac

  Region 1 radius =  12.0000      Number of ions =    553

  Number of symmetry inequivalent region 1 ions  =    319

  Region 2 radius =  16.0000      Number of ions =    768

  Number of symmetry inequivalent region 2a ions =    420

  Region 2a mode = 4 : screened electrostatics due to region 1 
                       neglect correction to region 1 forces from 2a
                       region 2a displacements based on defects only

  Region 2a ions will only interact with defects in region 1

  Vacancies:

--------------------------------------------------------------------------------
    Specification type     Symbol/Number         x          y          z
--------------------------------------------------------------------------------
    Fractional                               0.500000   0.500000   0.000000
    Fractional                               0.500000   0.000000   0.500000
--------------------------------------------------------------------------------

  Interstitials:

--------------------------------------------------------------------------------
    Specification type     Symbol/Number         x          y          z
--------------------------------------------------------------------------------
    Atom/Fractional         Na               0.500000   0.330000   0.170000
--------------------------------------------------------------------------------


  Symmetry reduced region 1 (Relative to defect centre) :

--------------------------------------------------------------------------------
   No.   Atomic       x            y             z       Radius  Multiplicity   
         Label      (Angs)       (Angs)        (Angs)    (Angs)     
--------------------------------------------------------------------------------
     1  Na    c      0.0000       0.0000       0.0000 *  0.0000     1    Defect
     2  O     c      0.0000       0.7663 *     1.4876 *  0.0000     1          
     3  Na    c      2.2539 *     0.7663 *     1.4876 *  0.0000     2          
     4  Cl    c      2.2539 *    -1.4876 *    -0.7663 *  0.0000     2          
     5  O     c      0.0000       0.7663 *    -3.0202 *  0.0000     1          
     6  Na    c      0.0000       3.0202 *     1.4876 *  0.0000     1          
     7  Na    c      0.0000      -1.4876 *    -3.0202 *  0.0000     1          
     8  Na    c      0.0000       0.7663 *     3.7415 *  0.0000     1          
     9  Na    c      0.0000      -3.7415 *    -0.7663 *  0.0000     1          
    10  Cl    c      2.2539 *     3.0202 *    -0.7663 *  0.0000     2          
    11  Na    c      2.2539 *     0.7663 *    -3.0202 *  0.0000     2          
    12  O     c      0.0000      -3.7415 *     1.4876 *  0.0000     1          
    13  Na    c      0.0000       3.0202 *    -3.0202 *  0.0000     1          
    14  Cl    c      2.2539 *    -1.4876 *     3.7415 *  0.0000     2          
    15  Na    c      2.2539 *    -3.7415 *     1.4876 *  0.0000     2          
    16  Na    c     -4.5078 *     0.7663 *    -0.7663 *  0.0000     2          
    17  O     c      0.0000      -3.7415 *    -3.0202 *  0.0000     1          
    18  O     c     -4.5078 *     0.7663 *     1.4876 *  0.0000     2          
    19  Na    c     -4.5078 *    -1.4876 *     1.4876 *  0.0000     2          
    20  Na    c      0.0000      -3.7415 *     3.7415 *  0.0000     1          
    21  Cl    c      2.2539 *     3.0202 *     3.7415 *  0.0000     2          
    22  Na    c      2.2539 *    -3.7415 *    -3.0202 *  0.0000     2          
    23  Na    c      0.0000       0.7663 *    -5.2741 *  0.0000     1          
    24  Na    c      0.0000       5.2741 *    -0.7663 *  0.0000     1          
    25  O     c      0.0000       5.2741 *     1.4876 *  0.0000     1          
    26  O     c     -4.5078 *     0.7663 *    -3.0202 *  0.0000     2          
    27  Na    c     -4.5078 *     3.0202 *     1.4876 *  0.0000     2          
    28  Na    c     -4.5078 *    -1.4876 *    -3.0202 *  0.0000     2          
    29  Na    c     -4.5078 *    -3.7415 *    -0.7663 *  0.0000     2          
    30  Na    c     -4.5078 *     0.7663 *     3.7415 *  0.0000     2          
    31  Cl    c      2.2539 *    -1.4876 *    -5.2741 *  0.0000     2          
    32  Na    c      2.2539 *     5.2741 *     1.4876 *  0.0000     2          
    33  O     c      0.0000       0.7663 *     5.9954 *  0.0000     1          
    34  O     c     -4.5078 *    -3.7415 *     1.4876 *  0.0000     2          
    35  O     c      0.0000       5.2741 *    -3.0202 *  0.0000     1          
    36  Na    c      0.0000      -1.4876 *     5.9954 *  0.0000     1          
    37  Na    c      0.0000      -5.9954 *     1.4876 *  0.0000     1          
    38  Na    c     -4.5078 *     3.0202 *    -3.0202 *  0.0000     2          
    39  Na    c      2.2539 *     0.7663 *     5.9954 *  0.0000     2          
    40  Cl    c      2.2539 *    -5.9954 *    -0.7663 *  0.0000     2          
    41  Na    c      0.0000       5.2741 *     3.7415 *  0.0000     1          
    42  Na    c      0.0000      -3.7415 *    -5.2741 *  0.0000     1          
    43  Cl    c      2.2539 *     3.0202 *    -5.2741 *  0.0000     2          
    44  Na    c      2.2539 *     5.2741 *    -3.0202 *  0.0000     2          
    45  O     c     -4.5078 *    -3.7415 *    -3.0202 *  0.0000     2          
    46  Na    c      0.0000       3.0202 *     5.9954 *  0.0000     1          
    47  Na    c      0.0000      -5.9954 *    -3.0202 *  0.0000     1          
    48  Na    c     -4.5078 *    -3.7415 *     3.7415 *  0.0000     2          
    49  Cl    c      6.7617 *    -1.4876 *    -0.7663 *  0.0000     2          
    50  Na    c      6.7617 *     0.7663 *     1.4876 *  0.0000     2          
    51  Na    c     -4.5078 *     0.7663 *    -5.2741 *  0.0000     2          
    52  Na    c     -4.5078 *     5.2741 *    -0.7663 *  0.0000     2          
    53  O     c      0.0000      -3.7415 *     5.9954 *  0.0000     1          
    54  O     c     -4.5078 *     5.2741 *     1.4876 *  0.0000     2          
    55  Na    c      2.2539 *    -3.7415 *     5.9954 *  0.0000     2          
    56  Cl    c      2.2539 *    -5.9954 *     3.7415 *  0.0000     2          
    57  Cl    c      6.7617 *     3.0202 *    -0.7663 *  0.0000     2          
    58  Na    c      6.7617 *     0.7663 *    -3.0202 *  0.0000     2          
    59  Na    c      0.0000       5.2741 *    -5.2741 *  0.0000     1          
    60  O     c     -4.5078 *     0.7663 *     5.9954 *  0.0000     2          
    61  O     c     -4.5078 *     5.2741 *    -3.0202 *  0.0000     2          
    62  O     c      0.0000       0.7663 *    -7.5280 *  0.0000     1          
    63  Na    c      4.5078 *    -1.4876 *     5.9954 *  0.0000     2          
    64  Na    c     -4.5078 *    -5.9954 *     1.4876 *  0.0000     2          
    65  Na    c      0.0000       7.5280 *     1.4876 *  0.0000     1          
    66  Na    c      0.0000      -1.4876 *    -7.5280 *  0.0000     1          
    67  Cl    c      6.7617 *    -1.4876 *     3.7415 *  0.0000     2          
    68  Na    c      6.7617 *    -3.7415 *     1.4876 *  0.0000     2          
    69  Na    c      4.5078 *    -3.7415 *    -5.2741 *  0.0000     2          
    70  Na    c     -4.5078 *     5.2741 *     3.7415 *  0.0000     2          
    71  Cl    c      2.2539 *     7.5280 *    -0.7663 *  0.0000     2          
    72  Na    c      2.2539 *     0.7663 *    -7.5280 *  0.0000     2          
    73  O     c      0.0000       5.2741 *     5.9954 *  0.0000     1          
    74  Na    c     -4.5078 *     3.0202 *     5.9954 *  0.0000     2          
    75  Na    c     -4.5078 *    -5.9954 *    -3.0202 *  0.0000     2          
    76  Na    c      0.0000       3.0202 *    -7.5280 *  0.0000     1          
    77  Na    c      0.0000       7.5280 *    -3.0202 *  0.0000     1          
    78  Na    c      0.0000       0.7663 *     8.2493 *  0.0000     1          
    79  Na    c      0.0000      -8.2493 *    -0.7663 *  0.0000     1          
    80  Cl    c      2.2539 *    -5.9954 *    -5.2741 *  0.0000     2          
    81  Cl    c      6.7617 *     3.0202 *     3.7415 *  0.0000     2          
    82  Na    c      2.2539 *     5.2741 *     5.9954 *  0.0000     2          
    83  Na    c      6.7617 *    -3.7415 *    -3.0202 *  0.0000     2          
    84  O     c     -4.5078 *    -3.7415 *     5.9954 *  0.0000     2          
    85  O     c      0.0000      -8.2493 *     1.4876 *  0.0000     1          
    86  O     c      0.0000      -3.7415 *    -7.5280 *  0.0000     1          
    87  Na    c      0.0000      -5.9954 *     5.9954 *  0.0000     1          
    88  Na    c      2.2539 *    -8.2493 *     1.4876 *  0.0000     2          
    89  Cl    c      2.2539 *    -1.4876 *     8.2493 *  0.0000     2          
    90  Cl    c      2.2539 *     7.5280 *     3.7415 *  0.0000     2          
    91  Na    c      6.7617 *     5.2741 *     1.4876 *  0.0000     2          
    92  Cl    c      6.7617 *    -1.4876 *    -5.2741 *  0.0000     2          
    93  Na    c      2.2539 *    -3.7415 *    -7.5280 *  0.0000     2          
    94  Na    c      4.5078 *     5.2741 *    -5.2741 *  0.0000     2          
    95  O     c      0.0000      -8.2493 *    -3.0202 *  0.0000     1          
    96  O     c      4.5078 *     0.7663 *    -7.5280 *  0.0000     2          
    97  Na    c      4.5078 *     7.5280 *     1.4876 *  0.0000     2          
    98  Na    c     -4.5078 *    -1.4876 *    -7.5280 *  0.0000     2          
    99  Na    c      0.0000      -3.7415 *     8.2493 *  0.0000     1          
   100  Na    c      0.0000      -8.2493 *     3.7415 *  0.0000     1          
   101  Cl    c      2.2539 *     3.0202 *     8.2493 *  0.0000     2          
   102  Na    c      2.2539 *    -8.2493 *    -3.0202 *  0.0000     2          
   103  Na    c      6.7617 *     0.7663 *     5.9954 *  0.0000     2          
   104  Cl    c      6.7617 *    -5.9954 *    -0.7663 *  0.0000     2          
   105  Na    c      9.0156 *     0.7663 *    -0.7663 *  0.0000     2          
   106  Cl    c      6.7617 *     3.0202 *    -5.2741 *  0.0000     2          
   107  Na    c      6.7617 *     5.2741 *    -3.0202 *  0.0000     2          
   108  O     c      4.5078 *     5.2741 *     5.9954 *  0.0000     2          
   109  O     c      9.0156 *     0.7663 *     1.4876 *  0.0000     2          
   110  O     c      0.0000       5.2741 *    -7.5280 *  0.0000     1          
   111  Na    c      9.0156 *    -1.4876 *     1.4876 *  0.0000     2          
   112  Na    c      4.5078 *     7.5280 *    -3.0202 *  0.0000     2          
   113  Na    c      4.5078 *     3.0202 *    -7.5280 *  0.0000     2          
   114  Na    c      4.5078 *     0.7663 *     8.2493 *  0.0000     2          
   115  Na    c     -4.5078 *    -8.2493 *    -0.7663 *  0.0000     2          
   116  Cl    c      2.2539 *     7.5280 *    -5.2741 *  0.0000     2          
   117  Na    c      2.2539 *     5.2741 *    -7.5280 *  0.0000     2          
   118  O     c     -4.5078 *    -8.2493 *     1.4876 *  0.0000     2          
   119  O     c      9.0156 *     0.7663 *    -3.0202 *  0.0000     2          
   120  O     c     -4.5078 *    -3.7415 *    -7.5280 *  0.0000     2          
   121  Na    c     -4.5078 *    -5.9954 *     5.9954 *  0.0000     2          
   122  Na    c      0.0000       7.5280 *     5.9954 *  0.0000     1          
   123  Na    c      9.0156 *     3.0202 *     1.4876 *  0.0000     2          
   124  Na    c      9.0156 *    -1.4876 *    -3.0202 *  0.0000     2          
   125  Na    c      0.0000      -5.9954 *    -7.5280 *  0.0000     1          
   126  Cl    c      6.7617 *    -5.9954 *     3.7415 *  0.0000     2          
   127  Na    c      6.7617 *    -3.7415 *     5.9954 *  0.0000     2          
   128  Na    c      0.0000       5.2741 *     8.2493 *  0.0000     1          
   129  Na    c      0.0000      -8.2493 *    -5.2741 *  0.0000     1          
   130  Na    c      9.0156 *     0.7663 *     3.7415 *  0.0000     2          
   131  Na    c      9.0156 *    -3.7415 *    -0.7663 *  0.0000     2          
   132  Na    c      0.0000       0.7663 *    -9.7819 *  0.0000     1          
   133  Na    c      0.0000       9.7819 *    -0.7663 *  0.0000     1          
   134  O     c      9.0156 *    -3.7415 *     1.4876 *  0.0000     2          
   135  O     c     -4.5078 *    -8.2493 *    -3.0202 *  0.0000     2          
   136  O     c      0.0000       9.7819 *     1.4876 *  0.0000     1          
   137  Na    c      9.0156 *     3.0202 *    -3.0202 *  0.0000     2          
   138  Na    c     -4.5078 *    -8.2493 *     3.7415 *  0.0000     2          
   139  Na    c      4.5078 *    -3.7415 *     8.2493 *  0.0000     2          
   140  Na    c      2.2539 *     9.7819 *     1.4876 *  0.0000     2          
   141  Cl    c      2.2539 *    -1.4876 *    -9.7819 *  0.0000     2          
   142  Cl    c      6.7617 *     7.5280 *    -0.7663 *  0.0000     2          
   143  Na    c      6.7617 *     0.7663 *    -7.5280 *  0.0000     2          
   144  O     c      0.0000      -8.2493 *     5.9954 *  0.0000     1          
   145  O     c      9.0156 *    -3.7415 *    -3.0202 *  0.0000     2          
   146  O     c      0.0000       9.7819 *    -3.0202 *  0.0000     1          
   147  O     c      4.5078 *     5.2741 *    -7.5280 *  0.0000     2          
   148  Na    c      2.2539 *    -8.2493 *     5.9954 *  0.0000     2          
   149  Cl    c      2.2539 *    -5.9954 *     8.2493 *  0.0000     2          
   150  Na    c      9.0156 *    -3.7415 *     3.7415 *  0.0000     2          
   151  Na    c      6.7617 *     5.2741 *     5.9954 *  0.0000     2          
   152  Cl    c      6.7617 *    -5.9954 *    -5.2741 *  0.0000     2          
   153  Na    c      0.0000       9.7819 *     3.7415 *  0.0000     1          
   154  Na    c      0.0000      -3.7415 *    -9.7819 *  0.0000     1          
   155  Na    c      9.0156 *     0.7663 *    -5.2741 *  0.0000     2          
   156  Na    c      9.0156 *     5.2741 *    -0.7663 *  0.0000     2          
   157  Cl    c      2.2539 *     3.0202 *    -9.7819 *  0.0000     2          
   158  Na    c      2.2539 *     9.7819 *    -3.0202 *  0.0000     2          
   159  O     c      0.0000       0.7663 *    10.5031 *  0.0000     1          
   160  O     c      9.0156 *     5.2741 *     1.4876 *  0.0000     2          
   161  Na    c      0.0000      -1.4876 *    10.5031 *  0.0000     1          
   162  Na    c      0.0000     -10.5031 *     1.4876 *  0.0000     1          
   163  Na    c      4.5078 *     7.5280 *     5.9954 *  0.0000     2          
   164  Na    c      4.5078 *    -5.9954 *    -7.5280 *  0.0000     2          
   165  Na    c      0.0000       7.5280 *    -7.5280 *  0.0000     1          
   166  Na    c      2.2539 *     0.7663 *    10.5031 *  0.0000     2          
   167  Cl    c      6.7617 *    -1.4876 *     8.2493 *  0.0000     2          
   168  Na    c      6.7617 *    -8.2493 *     1.4876 *  0.0000     2          
   169  Cl    c      2.2539 *   -10.5031 *    -0.7663 *  0.0000     2          
   170  Na    c     -4.5078 *     5.2741 *     8.2493 *  0.0000     2          
   171  Na    c     -4.5078 *    -8.2493 *    -5.2741 *  0.0000     2          
   172  Cl    c      6.7617 *     7.5280 *     3.7415 *  0.0000     2          
   173  Na    c      6.7617 *    -3.7415 *    -7.5280 *  0.0000     2          
   174  Na    c     -4.5078 *     0.7663 *    -9.7819 *  0.0000     2          
   175  Na    c     -4.5078 *     9.7819 *    -0.7663 *  0.0000     2          
   176  O     c      9.0156 *     0.7663 *     5.9954 *  0.0000     2          
   177  O     c     -4.5078 *     9.7819 *     1.4876 *  0.0000     2          
   178  O     c      9.0156 *     5.2741 *    -3.0202 *  0.0000     2          
   179  Na    c      0.0000       3.0202 *    10.5031 *  0.0000     1          
   180  Na    c      9.0156 *    -1.4876 *     5.9954 *  0.0000     2          
   181  Na    c      9.0156 *    -5.9954 *     1.4876 *  0.0000     2          
   182  Na    c      0.0000     -10.5031 *    -3.0202 *  0.0000     1          
   183  Cl    c      6.7617 *     3.0202 *     8.2493 *  0.0000     2          
   184  Na    c      6.7617 *    -8.2493 *    -3.0202 *  0.0000     2          
   185  Na    c      9.0156 *     5.2741 *     3.7415 *  0.0000     2          
   186  Na    c      9.0156 *    -3.7415 *    -5.2741 *  0.0000     2          
   187  Na    c      0.0000       5.2741 *    -9.7819 *  0.0000     1          
   188  Na    c      0.0000       9.7819 *    -5.2741 *  0.0000     1          
   189  O     c      0.0000      -3.7415 *    10.5031 *  0.0000     1          
   190  O     c     -4.5078 *    -8.2493 *     5.9954 *  0.0000     2          
   191  O     c      0.0000      -8.2493 *    -7.5280 *  0.0000     1          
   192  O     c     -4.5078 *     9.7819 *    -3.0202 *  0.0000     2          
   193  Na    c      9.0156 *     3.0202 *     5.9954 *  0.0000     2          
   194  Na    c      9.0156 *    -5.9954 *    -3.0202 *  0.0000     2          
   195  Na    c      2.2539 *    -3.7415 *    10.5031 *  0.0000     2          
   196  Cl    c      2.2539 *   -10.5031 *     3.7415 *  0.0000     2          
   197  Cl    c     11.2695 *    -1.4876 *    -0.7663 *  0.0000     2          
   198  Cl    c      2.2539 *     7.5280 *     8.2493 *  0.0000     2          
   199  Na    c     11.2695 *     0.7663 *     1.4876 *  0.0000     2          
   200  Na    c      2.2539 *    -8.2493 *    -7.5280 *  0.0000     2          
   201  Na    c     -4.5078 *     9.7819 *     3.7415 *  0.0000     2          
   202  Na    c     -4.5078 *    -3.7415 *    -9.7819 *  0.0000     2          
   203  Cl    c      6.7617 *     7.5280 *    -5.2741 *  0.0000     2          
   204  Na    c      6.7617 *     5.2741 *    -7.5280 *  0.0000     2          
   205  O     c      4.5078 *     0.7663 *    10.5031 *  0.0000     2          
   206  O     c      9.0156 *    -3.7415 *     5.9954 *  0.0000     2          
   207  O     c      0.0000       9.7819 *     5.9954 *  0.0000     1          
   208  Na    c     -4.5078 *    -1.4876 *    10.5031 *  0.0000     2          
   209  Na    c      4.5078 *   -10.5031 *     1.4876 *  0.0000     2          
   210  Na    c      4.5078 *     7.5280 *    -7.5280 *  0.0000     2          
   211  Na    c      0.0000      -8.2493 *     8.2493 *  0.0000     1          
   212  Cl    c     11.2695 *     3.0202 *    -0.7663 *  0.0000     2          
   213  Na    c      2.2539 *     9.7819 *     5.9954 *  0.0000     2          
   214  Na    c     11.2695 *     0.7663 *    -3.0202 *  0.0000     2          
   215  Cl    c      2.2539 *    -5.9954 *    -9.7819 *  0.0000     2          
   216  Na    c      9.0156 *     5.2741 *    -5.2741 *  0.0000     2          
   217  O     c      0.0000       5.2741 *    10.5031 *  0.0000     1          
   218  O     c      9.0156 *     0.7663 *    -7.5280 *  0.0000     2          
   219  Na    c     -4.5078 *     3.0202 *    10.5031 *  0.0000     2          
   220  Na    c      4.5078 *   -10.5031 *    -3.0202 *  0.0000     2          
   221  Na    c      9.0156 *     7.5280 *     1.4876 *  0.0000     2          
   222  Na    c      9.0156 *    -1.4876 *    -7.5280 *  0.0000     2          
   223  Cl    c     11.2695 *    -1.4876 *     3.7415 *  0.0000     2          
   224  Na    c     11.2695 *    -3.7415 *     1.4876 *  0.0000     2          
   225  Na    c      2.2539 *     5.2741 *    10.5031 *  0.0000     2          
   226  Cl    c      2.2539 *   -10.5031 *    -5.2741 *  0.0000     2          
   227  Cl    c      6.7617 *    -1.4876 *    -9.7819 *  0.0000     2          
   228  Na    c      6.7617 *     9.7819 *     1.4876 *  0.0000     2          
   229  Na    c      4.5078 *     5.2741 *    -9.7819 *  0.0000     2          
   230  Na    c      4.5078 *     9.7819 *    -5.2741 *  0.0000     2          
   231  O     s      0.0000       0.7663 *     1.4876 *  0.0000     1          
   232  Cl    s      2.2539 *    -1.4876 *    -0.7663 *  0.0000     2          
   233  O     s      0.0000       0.7663 *    -3.0202 *  0.0000     1          
   234  Cl    s      2.2539 *     3.0202 *    -0.7663 *  0.0000     2          
   235  O     s      0.0000      -3.7415 *     1.4876 *  0.0000     1          
   236  Cl    s      2.2539 *    -1.4876 *     3.7415 *  0.0000     2          
   237  O     s      0.0000      -3.7415 *    -3.0202 *  0.0000     1          
   238  O     s     -4.5078 *     0.7663 *     1.4876 *  0.0000     2          
   239  Cl    s      2.2539 *     3.0202 *     3.7415 *  0.0000     2          
   240  O     s      0.0000       5.2741 *     1.4876 *  0.0000     1          
   241  O     s     -4.5078 *     0.7663 *    -3.0202 *  0.0000     2          
   242  Cl    s      2.2539 *    -1.4876 *    -5.2741 *  0.0000     2          
   243  O     s      0.0000       0.7663 *     5.9954 *  0.0000     1          
   244  O     s     -4.5078 *    -3.7415 *     1.4876 *  0.0000     2          
   245  O     s      0.0000       5.2741 *    -3.0202 *  0.0000     1          
   246  Cl    s      2.2539 *    -5.9954 *    -0.7663 *  0.0000     2          
   247  Cl    s      2.2539 *     3.0202 *    -5.2741 *  0.0000     2          
   248  O     s     -4.5078 *    -3.7415 *    -3.0202 *  0.0000     2          
   249  Cl    s      6.7617 *    -1.4876 *    -0.7663 *  0.0000     2          
   250  O     s      0.0000      -3.7415 *     5.9954 *  0.0000     1          
   251  O     s     -4.5078 *     5.2741 *     1.4876 *  0.0000     2          
   252  Cl    s      2.2539 *    -5.9954 *     3.7415 *  0.0000     2          
   253  Cl    s      6.7617 *     3.0202 *    -0.7663 *  0.0000     2          
   254  O     s     -4.5078 *     0.7663 *     5.9954 *  0.0000     2          
   255  O     s     -4.5078 *     5.2741 *    -3.0202 *  0.0000     2          
   256  O     s      0.0000       0.7663 *    -7.5280 *  0.0000     1          
   257  Cl    s      6.7617 *    -1.4876 *     3.7415 *  0.0000     2          
   258  Cl    s      2.2539 *     7.5280 *    -0.7663 *  0.0000     2          
   259  O     s      0.0000       5.2741 *     5.9954 *  0.0000     1          
   260  Cl    s      2.2539 *    -5.9954 *    -5.2741 *  0.0000     2          
   261  Cl    s      6.7617 *     3.0202 *     3.7415 *  0.0000     2          
   262  O     s     -4.5078 *    -3.7415 *     5.9954 *  0.0000     2          
   263  O     s      0.0000      -8.2493 *     1.4876 *  0.0000     1          
   264  O     s      0.0000      -3.7415 *    -7.5280 *  0.0000     1          
   265  Cl    s      2.2539 *    -1.4876 *     8.2493 *  0.0000     2          
   266  Cl    s      2.2539 *     7.5280 *     3.7415 *  0.0000     2          
   267  Cl    s      6.7617 *    -1.4876 *    -5.2741 *  0.0000     2          
   268  O     s      0.0000      -8.2493 *    -3.0202 *  0.0000     1          
   269  O     s      4.5078 *     0.7663 *    -7.5280 *  0.0000     2          
   270  Cl    s      2.2539 *     3.0202 *     8.2493 *  0.0000     2          
   271  Cl    s      6.7617 *    -5.9954 *    -0.7663 *  0.0000     2          
   272  Cl    s      6.7617 *     3.0202 *    -5.2741 *  0.0000     2          
   273  O     s      4.5078 *     5.2741 *     5.9954 *  0.0000     2          
   274  O     s      9.0156 *     0.7663 *     1.4876 *  0.0000     2          
   275  O     s      0.0000       5.2741 *    -7.5280 *  0.0000     1          
   276  Cl    s      2.2539 *     7.5280 *    -5.2741 *  0.0000     2          
   277  O     s     -4.5078 *    -8.2493 *     1.4876 *  0.0000     2          
   278  O     s      9.0156 *     0.7663 *    -3.0202 *  0.0000     2          
   279  O     s     -4.5078 *    -3.7415 *    -7.5280 *  0.0000     2          
   280  Cl    s      6.7617 *    -5.9954 *     3.7415 *  0.0000     2          
   281  O     s      9.0156 *    -3.7415 *     1.4876 *  0.0000     2          
   282  O     s     -4.5078 *    -8.2493 *    -3.0202 *  0.0000     2          
   283  O     s      0.0000       9.7819 *     1.4876 *  0.0000     1          
   284  Cl    s      2.2539 *    -1.4876 *    -9.7819 *  0.0000     2          
   285  Cl    s      6.7617 *     7.5280 *    -0.7663 *  0.0000     2          
   286  O     s      0.0000      -8.2493 *     5.9954 *  0.0000     1          
   287  O     s      9.0156 *    -3.7415 *    -3.0202 *  0.0000     2          
   288  O     s      0.0000       9.7819 *    -3.0202 *  0.0000     1          
   289  O     s      4.5078 *     5.2741 *    -7.5280 *  0.0000     2          
   290  Cl    s      2.2539 *    -5.9954 *     8.2493 *  0.0000     2          
   291  Cl    s      6.7617 *    -5.9954 *    -5.2741 *  0.0000     2          
   292  Cl    s      2.2539 *     3.0202 *    -9.7819 *  0.0000     2          
   293  O     s      0.0000       0.7663 *    10.5031 *  0.0000     1          
   294  O     s      9.0156 *     5.2741 *     1.4876 *  0.0000     2          
   295  Cl    s      6.7617 *    -1.4876 *     8.2493 *  0.0000     2          
   296  Cl    s      2.2539 *   -10.5031 *    -0.7663 *  0.0000     2          
   297  Cl    s      6.7617 *     7.5280 *     3.7415 *  0.0000     2          
   298  O     s      9.0156 *     0.7663 *     5.9954 *  0.0000     2          
   299  O     s     -4.5078 *     9.7819 *     1.4876 *  0.0000     2          
   300  O     s      9.0156 *     5.2741 *    -3.0202 *  0.0000     2          
   301  Cl    s      6.7617 *     3.0202 *     8.2493 *  0.0000     2          
   302  O     s      0.0000      -3.7415 *    10.5031 *  0.0000     1          
   303  O     s     -4.5078 *    -8.2493 *     5.9954 *  0.0000     2          
   304  O     s      0.0000      -8.2493 *    -7.5280 *  0.0000     1          
   305  O     s     -4.5078 *     9.7819 *    -3.0202 *  0.0000     2          
   306  Cl    s      2.2539 *   -10.5031 *     3.7415 *  0.0000     2          
   307  Cl    s     11.2695 *    -1.4876 *    -0.7663 *  0.0000     2          
   308  Cl    s      2.2539 *     7.5280 *     8.2493 *  0.0000     2          
   309  Cl    s      6.7617 *     7.5280 *    -5.2741 *  0.0000     2          
   310  O     s      4.5078 *     0.7663 *    10.5031 *  0.0000     2          
   311  O     s      9.0156 *    -3.7415 *     5.9954 *  0.0000     2          
   312  O     s      0.0000       9.7819 *     5.9954 *  0.0000     1          
   313  Cl    s     11.2695 *     3.0202 *    -0.7663 *  0.0000     2          
   314  Cl    s      2.2539 *    -5.9954 *    -9.7819 *  0.0000     2          
   315  O     s      0.0000       5.2741 *    10.5031 *  0.0000     1          
   316  O     s      9.0156 *     0.7663 *    -7.5280 *  0.0000     2          
   317  Cl    s     11.2695 *    -1.4876 *     3.7415 *  0.0000     2          
   318  Cl    s      2.2539 *   -10.5031 *    -5.2741 *  0.0000     2          
   319  Cl    s      6.7617 *    -1.4876 *    -9.7819 *  0.0000     2          
--------------------------------------------------------------------------------

  Components of defect energy : 

--------------------------------------------------------------------------------
  Region 1 - region 1                   =     -1.70025863 eV
  Region 1 - region 2a (unrelaxed)      =     11.55317118 eV
  Region 1 - 2a (relaxed - correction)  =     -0.28766587 eV
  Region 1 (Total)                      =      9.56524668 eV
  Region 2a                             =      0.14375643 eV
  Region 2b                             =     -0.43107652 eV
--------------------------------------------------------------------------------
  Total defect energy                   =      9.27792659 eV
--------------------------------------------------------------------------------

  Largest displacement in region 2 =   0.0244 Angstroms


  Number of variables =      871

  Maximum number of calculations  =        1000
  Maximum Hessian update interval =          10
  Maximum step size               =   1.0000000
  Maximum parameter tolerance     =   0.0000100
  Maximum function  tolerance     =   0.0000100
  Maximum gradient  tolerance     =   0.0010000

  Symmetry adapted optimisation

  Symmetry to be used for second derivatives

  Newton-Raphson optimiser to be used

  BFGS hessian update to be used

  Lower half triangular hessian to be used

  Start of defect optimisation :

  Cycle:      0 Defect Energy:   9.277927  Gnorm:     0.023547  CPU:    2.752
  ** Hessian calculated **
  Cycle:      1 Defect Energy:   8.305370  Gnorm:     0.020018  CPU:   12.001
  ** Hessian calculated **
  Cycle:      2 Defect Energy:   6.500471  Gnorm:     0.009857  CPU:   18.703
  Cycle:      3 Defect Energy:   5.620494  Gnorm:     0.006498  CPU:   22.518
  Cycle:      4 Defect Energy:   5.338893  Gnorm:     0.006726  CPU:   27.086
  Cycle:      5 Defect Energy:   5.162119  Gnorm:     0.003842  CPU:   31.432
  Cycle:      6 Defect Energy:   5.121305  Gnorm:     0.002089  CPU:   32.363
  Cycle:      7 Defect Energy:   5.072499  Gnorm:     0.001763  CPU:   33.306
  Cycle:      8 Defect Energy:   5.007759  Gnorm:     0.001741  CPU:   34.239
  Cycle:      9 Defect Energy:   4.924782  Gnorm:     0.002330  CPU:   35.207
  Cycle:     10 Defect Energy:   4.848878  Gnorm:     0.002608  CPU:   36.232
  Cycle:     11 Defect Energy:   4.798015  Gnorm:     0.002662  CPU:   37.129
  ** Hessian calculated **
  Cycle:     12 Defect Energy:   4.775529  Gnorm:     0.001689  CPU:   39.544
  Cycle:     13 Defect Energy:   4.751073  Gnorm:     0.001438  CPU:   40.153
  Cycle:     14 Defect Energy:   4.723433  Gnorm:     0.001346  CPU:   42.985
  Cycle:     15 Defect Energy:   4.698677  Gnorm:     0.001378  CPU:   45.489
  Cycle:     16 Defect Energy:   4.676651  Gnorm:     0.001334  CPU:   46.600
  Cycle:     17 Defect Energy:   4.656178  Gnorm:     0.001357  CPU:   47.720
  Cycle:     18 Defect Energy:   4.635996  Gnorm:     0.001466  CPU:   48.859
  Cycle:     19 Defect Energy:   4.617484  Gnorm:     0.001410  CPU:   50.039
  Cycle:     20 Defect Energy:   4.598084  Gnorm:     0.001295  CPU:   51.090
  Cycle:     21 Defect Energy:   4.579336  Gnorm:     0.001373  CPU:   52.139
  ** Hessian calculated **
  Cycle:     22 Defect Energy:   4.554425  Gnorm:     0.001270  CPU:   54.921
  Cycle:     23 Defect Energy:   4.523248  Gnorm:     0.001108  CPU:   55.957
  Cycle:     24 Defect Energy:   4.523141  Gnorm:     0.001103  CPU:   56.955
  ** Hessian calculated **
  Cycle:     25 Defect Energy:   4.477574  Gnorm:     0.000774  CPU:   59.548
  Cycle:     26 Defect Energy:   4.457024  Gnorm:     0.000557  CPU:   60.513
  ** Hessian calculated **
  Cycle:     27 Defect Energy:   4.445377  Gnorm:     0.000390  CPU:   63.022
  Cycle:     28 Defect Energy:   4.439512  Gnorm:     0.000274  CPU:   64.018
  Cycle:     29 Defect Energy:   4.436358  Gnorm:     0.000191  CPU:   64.946
  Cycle:     30 Defect Energy:   4.434526  Gnorm:     0.000133  CPU:   65.877
  Cycle:     31 Defect Energy:   4.433262  Gnorm:     0.000095  CPU:   66.840
  Cycle:     32 Defect Energy:   4.432097  Gnorm:     0.000081  CPU:   67.858
  Cycle:     33 Defect Energy:   4.430802  Gnorm:     0.000112  CPU:   68.760
  Cycle:     34 Defect Energy:   4.429947  Gnorm:     0.000168  CPU:   69.655
  Cycle:     35 Defect Energy:   4.429325  Gnorm:     0.000231  CPU:   70.547
  Cycle:     36 Defect Energy:   4.428932  Gnorm:     0.000352  CPU:   71.468
  ** Hessian calculated **
  Cycle:     37 Defect Energy:   4.428096  Gnorm:     0.000208  CPU:   74.091
  Cycle:     38 Defect Energy:   4.427735  Gnorm:     0.000163  CPU:   78.041
  Cycle:     39 Defect Energy:   4.427404  Gnorm:     0.000149  CPU:   79.164
  Cycle:     40 Defect Energy:   4.427083  Gnorm:     0.000141  CPU:   80.302
  Cycle:     41 Defect Energy:   4.426835  Gnorm:     0.000143  CPU:   81.497
  Cycle:     42 Defect Energy:   4.426555  Gnorm:     0.000148  CPU:   82.612
  Cycle:     43 Defect Energy:   4.426324  Gnorm:     0.000151  CPU:   83.769
  Cycle:     44 Defect Energy:   4.426030  Gnorm:     0.000150  CPU:   84.817
  Cycle:     45 Defect Energy:   4.425777  Gnorm:     0.000149  CPU:   85.879
  Cycle:     46 Defect Energy:   4.425444  Gnorm:     0.000145  CPU:   86.928
  ** Hessian calculated **
  Cycle:     47 Defect Energy:   4.425377  Gnorm:     0.000134  CPU:   89.899
  Cycle:     48 Defect Energy:   4.425268  Gnorm:     0.000130  CPU:   90.937
  Cycle:     49 Defect Energy:   4.425154  Gnorm:     0.000125  CPU:   91.956
  Cycle:     50 Defect Energy:   4.424975  Gnorm:     0.000122  CPU:   92.978
  Cycle:     51 Defect Energy:   4.424764  Gnorm:     0.000119  CPU:   94.070
  Cycle:     52 Defect Energy:   4.424457  Gnorm:     0.000120  CPU:   95.032
  Cycle:     53 Defect Energy:   4.424085  Gnorm:     0.000132  CPU:   95.988
  Cycle:     54 Defect Energy:   4.423520  Gnorm:     0.000146  CPU:   97.032
  Cycle:     55 Defect Energy:   4.422776  Gnorm:     0.000190  CPU:   97.972
  Cycle:     56 Defect Energy:   4.421637  Gnorm:     0.000252  CPU:   98.913
  ** Hessian calculated **
  Cycle:     57 Defect Energy:   4.420961  Gnorm:     0.000217  CPU:  101.504
  Cycle:     58 Defect Energy:   4.420184  Gnorm:     0.000200  CPU:  102.441
  Cycle:     59 Defect Energy:   4.419140  Gnorm:     0.000189  CPU:  103.355
  Cycle:     60 Defect Energy:   4.417909  Gnorm:     0.000180  CPU:  104.272
  Cycle:     61 Defect Energy:   4.416532  Gnorm:     0.000186  CPU:  105.177
  Cycle:     62 Defect Energy:   4.415203  Gnorm:     0.000207  CPU:  106.159
  Cycle:     63 Defect Energy:   4.413325  Gnorm:     0.000259  CPU:  106.772
  Cycle:     64 Defect Energy:   4.410818  Gnorm:     0.000320  CPU:  109.698
  Cycle:     65 Defect Energy:   4.406975  Gnorm:     0.000418  CPU:  112.163
  Cycle:     66 Defect Energy:   4.402014  Gnorm:     0.000558  CPU:  113.282
  ** Hessian calculated **
  Cycle:     67 Defect Energy:   4.398507  Gnorm:     0.000508  CPU:  116.235
  Cycle:     68 Defect Energy:   4.394134  Gnorm:     0.000483  CPU:  117.412
  Cycle:     69 Defect Energy:   4.388438  Gnorm:     0.000452  CPU:  118.464
  Cycle:     70 Defect Energy:   4.381894  Gnorm:     0.000427  CPU:  119.524
  Cycle:     71 Defect Energy:   4.376606  Gnorm:     0.000421  CPU:  120.589
  Cycle:     72 Defect Energy:   4.372672  Gnorm:     0.000442  CPU:  121.672
  Cycle:     73 Defect Energy:   4.368377  Gnorm:     0.000486  CPU:  122.701
  Cycle:     74 Defect Energy:   4.363827  Gnorm:     0.000537  CPU:  123.725
  Cycle:     75 Defect Energy:   4.358454  Gnorm:     0.000590  CPU:  124.734
  Cycle:     76 Defect Energy:   4.351923  Gnorm:     0.000669  CPU:  125.737
  ** Hessian calculated **
  Cycle:     77 Defect Energy:   4.348988  Gnorm:     0.000635  CPU:  128.442
  Cycle:     78 Defect Energy:   4.345149  Gnorm:     0.000624  CPU:  129.405
  Cycle:     79 Defect Energy:   4.339968  Gnorm:     0.000591  CPU:  130.357
  Cycle:     80 Defect Energy:   4.333525  Gnorm:     0.000576  CPU:  131.357
  Cycle:     81 Defect Energy:   4.326256  Gnorm:     0.000575  CPU:  132.289
  Cycle:     82 Defect Energy:   4.320169  Gnorm:     0.000592  CPU:  133.215
  Cycle:     83 Defect Energy:   4.313768  Gnorm:     0.000634  CPU:  134.162
  Cycle:     84 Defect Energy:   4.306982  Gnorm:     0.000682  CPU:  135.144
  Cycle:     85 Defect Energy:   4.299089  Gnorm:     0.000750  CPU:  136.056
  Cycle:     86 Defect Energy:   4.291236  Gnorm:     0.000814  CPU:  136.952
  ** Hessian calculated **
  Cycle:     87 Defect Energy:   4.287226  Gnorm:     0.000785  CPU:  139.327
  Cycle:     88 Defect Energy:   4.282169  Gnorm:     0.000775  CPU:  140.312
  Cycle:     89 Defect Energy:   4.275282  Gnorm:     0.000742  CPU:  141.250
  Cycle:     90 Defect Energy:   4.267736  Gnorm:     0.000728  CPU:  145.364
  Cycle:     91 Defect Energy:   4.262563  Gnorm:     0.000722  CPU:  146.492
  Cycle:     92 Defect Energy:   4.258816  Gnorm:     0.000732  CPU:  147.632
  Cycle:     93 Defect Energy:   4.255355  Gnorm:     0.000734  CPU:  148.783
  Cycle:     94 Defect Energy:   4.252024  Gnorm:     0.000752  CPU:  149.913
  Cycle:     95 Defect Energy:   4.247797  Gnorm:     0.000771  CPU:  151.016
  Cycle:     96 Defect Energy:   4.242731  Gnorm:     0.000794  CPU:  152.183
  ** Hessian calculated **
  Cycle:     97 Defect Energy:   4.230021  Gnorm:     0.000775  CPU:  154.997
  Cycle:     98 Defect Energy:   4.208127  Gnorm:     0.000710  CPU:  156.146
  Cycle:     99 Defect Energy:   4.172422  Gnorm:     0.000471  CPU:  157.158
  Cycle:    100 Defect Energy:   4.160286  Gnorm:     0.000313  CPU:  158.166
  Cycle:    101 Defect Energy:   4.155042  Gnorm:     0.000187  CPU:  159.172
  Cycle:    102 Defect Energy:   4.152762  Gnorm:     0.000125  CPU:  160.186
  Cycle:    103 Defect Energy:   4.152111  Gnorm:     0.000067  CPU:  161.307
  Cycle:    104 Defect Energy:   4.151784  Gnorm:     0.000052  CPU:  162.276
  Cycle:    105 Defect Energy:   4.151677  Gnorm:     0.000030  CPU:  163.246
  Cycle:    106 Defect Energy:   4.151633  Gnorm:     0.000021  CPU:  164.218
  ** Hessian calculated **
  Cycle:    107 Defect Energy:   4.151615  Gnorm:     0.000014  CPU:  166.779


  **** Optimisation achieved ****


  Final defect energy  =        4.15160748
  Final defect Gnorm   =        0.00001016

  Components of defect energy : 

--------------------------------------------------------------------------------
  Region 1 - region 1                   =     -5.70295231 eV
  Region 1 - region 2a (unrelaxed)      =     10.39256355 eV
  Region 1 - 2a (relaxed - correction)  =     -0.21505261 eV
  Region 1 (Total)                      =      4.47455862 eV
  Region 2a                             =      0.10746756 eV
  Region 2b                             =     -0.43041871 eV
--------------------------------------------------------------------------------
  Total defect energy                   =      4.15160748 eV
--------------------------------------------------------------------------------

  Largest displacement in region 2 =   0.0258 Angstroms

  Final coordinates of region 1 :

--------------------------------------------------------------------------------
   No.  Atomic        x           y           z          Radius      Charge
        Label       (Angs)      (Angs)      (Angs)       (Angs)       (e) 
--------------------------------------------------------------------------------
     1  Na    c     2.253894    1.487570    0.107787    0.000000    1.000000
     2  O     c     2.253894    2.294846    2.205964    0.000000    0.183000
     3  Na    c     4.445779    1.933737    2.237510    0.000000    1.000000
     4  Na    c     0.062008    1.933737    2.237510    0.000000    1.000000
     5  Cl    c     4.656569   -0.051750   -0.081334    0.000000    1.485000
     6  Cl    c    -0.148782   -0.051750   -0.081334    0.000000    1.485000
     7  O     c     2.253894    2.180320   -2.184351    0.000000    0.183000
     8  Na    c     2.253894    4.486635    2.054417    0.000000    1.000000
     9  Na    c     2.253894   -0.019006   -2.703490    0.000000    1.000000
    10  Na    c     2.253894    1.851667    4.395277    0.000000    1.000000
    11  Na    c     2.253894   -1.964800    0.056490    0.000000    1.000000
    12  Cl    c     4.617970    4.621832   -0.045215    0.000000    1.485000
    13  Cl    c    -0.110183    4.621832   -0.045215    0.000000    1.485000
    14  Na    c     4.506950    2.159345   -2.166399    0.000000    1.000000
    15  Na    c     0.000837    2.159345   -2.166399    0.000000    1.000000
    16  O     c     2.253894   -2.321412    2.251655    0.000000    0.183000
    17  Na    c     2.253894    4.428487   -1.705294    0.000000    1.000000
    18  Cl    c     4.609529    0.003704    4.635353    0.000000    1.485000
    19  Cl    c    -0.101742    0.003704    4.635353    0.000000    1.485000
    20  Na    c     4.431266   -1.852998    2.288941    0.000000    1.000000
    21  Na    c     0.076521   -1.852998    2.288941    0.000000    1.000000
    22  Na    c    -2.187251    2.647171    0.007574    0.000000    1.000000
    23  Na    c     6.695038    2.647171    0.007574    0.000000    1.000000
    24  O     c     2.253894   -2.236420   -2.247849    0.000000    0.183000
    25  O     c    -2.232353    2.241047    2.245312    0.000000    0.183000
    26  O     c     6.740141    2.241047    2.245312    0.000000    0.183000
    27  Na    c    -2.461968    0.007591    1.866535    0.000000    1.000000
    28  Na    c     6.969755    0.007591    1.866535    0.000000    1.000000
    29  Na    c     2.253894   -1.821217    4.418915    0.000000    1.000000
    30  Cl    c     4.552847    4.636835    4.619371    0.000000    1.485000
    31  Cl    c    -0.045060    4.636835    4.619371    0.000000    1.485000
    32  Na    c     4.514594   -2.147346   -2.293474    0.000000    1.000000
    33  Na    c    -0.006807   -2.147346   -2.293474    0.000000    1.000000
    34  Na    c     2.253894    2.641209   -4.438107    0.000000    1.000000
    35  Na    c     2.253894    7.117320   -0.018399    0.000000    1.000000
    36  O     c     2.253894    6.790546    2.205243    0.000000    0.183000
    37  O     c    -2.262845    2.260457   -2.240516    0.000000    0.183000
    38  O     c     6.770632    2.260457   -2.240516    0.000000    0.183000
    39  Na    c    -2.003154    4.478331    2.600001    0.000000    1.000000
    40  Na    c     6.510941    4.478331    2.600001    0.000000    1.000000
    41  Na    c    -2.361885    0.004100   -1.891275    0.000000    1.000000
    42  Na    c     6.869673    0.004100   -1.891275    0.000000    1.000000
    43  Na    c    -2.050014   -2.597936    0.002496    0.000000    1.000000
    44  Na    c     6.557801   -2.597936    0.002496    0.000000    1.000000
    45  Na    c    -2.293906    1.884278    4.494350    0.000000    1.000000
    46  Na    c     6.801693    1.884278    4.494350    0.000000    1.000000
    47  Cl    c     4.525330   -0.016481   -4.522478    0.000000    1.485000
    48  Cl    c    -0.017542   -0.016481   -4.522478    0.000000    1.485000
    49  Na    c     4.505234    6.787945    2.094621    0.000000    1.000000
    50  Na    c     0.002553    6.787945    2.094621    0.000000    1.000000
    51  O     c     2.253894    2.238561    6.703789    0.000000    0.183000
    52  O     c    -2.218288   -2.223402    2.237487    0.000000    0.183000
    53  O     c     6.726075   -2.223402    2.237487    0.000000    0.183000
    54  O     c     2.253894    6.709235   -2.227805    0.000000    0.183000
    55  Na    c     2.253894    0.001653    7.052812    0.000000    1.000000
    56  Na    c     2.253894   -4.506725    2.273553    0.000000    1.000000
    57  Na    c    -2.159419    4.497813   -2.626321    0.000000    1.000000
    58  Na    c     6.667207    4.497813   -2.626321    0.000000    1.000000
    59  Na    c     4.510041    2.316333    6.635851    0.000000    1.000000
    60  Na    c    -0.002254    2.316333    6.635851    0.000000    1.000000
    61  Cl    c     4.548179   -4.629575   -0.081870    0.000000    1.485000
    62  Cl    c    -0.040392   -4.629575   -0.081870    0.000000    1.485000
    63  Na    c     2.253894    6.708739    4.468550    0.000000    1.000000
    64  Na    c     2.253894   -2.667775   -4.478337    0.000000    1.000000
    65  Cl    c     4.515874    4.494078   -4.555996    0.000000    1.485000
    66  Cl    c    -0.008087    4.494078   -4.555996    0.000000    1.485000
    67  Na    c     4.516206    6.697517   -2.160949    0.000000    1.000000
    68  Na    c    -0.008418    6.697517   -2.160949    0.000000    1.000000
    69  O     c    -2.265670   -2.251321   -2.244123    0.000000    0.183000
    70  O     c     6.773457   -2.251321   -2.244123    0.000000    0.183000
    71  Na    c     2.253894    4.470397    6.436570    0.000000    1.000000
    72  Na    c     2.253894   -4.481602   -1.891875    0.000000    1.000000
    73  Na    c    -2.346052   -1.924508    4.497412    0.000000    1.000000
    74  Na    c     6.853840   -1.924508    4.497412    0.000000    1.000000
    75  Cl    c     9.101674   -0.030267   -0.020879    0.000000    1.485000
    76  Cl    c    -4.593887   -0.030267   -0.020879    0.000000    1.485000
    77  Na    c     8.998344    2.488563    2.234464    0.000000    1.000000
    78  Na    c    -4.490557    2.488563    2.234464    0.000000    1.000000
    79  Na    c    -2.286361    1.891676   -4.484866    0.000000    1.000000
    80  Na    c     6.794148    1.891676   -4.484866    0.000000    1.000000
    81  Na    c    -2.363101    6.417187   -0.003168    0.000000    1.000000
    82  Na    c     6.870888    6.417187   -0.003168    0.000000    1.000000
    83  O     c     2.253894   -2.238856    6.700699    0.000000    0.183000
    84  O     c    -2.248506    6.728155    2.258787    0.000000    0.183000
    85  O     c     6.756293    6.728155    2.258787    0.000000    0.183000
    86  Na    c     4.505676   -2.318030    6.603316    0.000000    1.000000
    87  Na    c     0.002111   -2.318030    6.603316    0.000000    1.000000
    88  Cl    c     4.560608   -4.653001    4.618939    0.000000    1.485000
    89  Cl    c    -0.052821   -4.653001    4.618939    0.000000    1.485000
    90  Cl    c     9.080119    4.494202   -0.002516    0.000000    1.485000
    91  Cl    c    -4.572332    4.494202   -0.002516    0.000000    1.485000
    92  Na    c     9.020032    2.381392   -2.186633    0.000000    1.000000
    93  Na    c    -4.512245    2.381392   -2.186633    0.000000    1.000000
    94  Na    c     2.253894    6.382999   -4.474914    0.000000    1.000000
    95  O     c    -2.260476    2.252518    6.747667    0.000000    0.183000
    96  O     c     6.768263    2.252518    6.747667    0.000000    0.183000
    97  O     c    -2.271907    6.743441   -2.268136    0.000000    0.183000
    98  O     c     6.779694    6.743441   -2.268136    0.000000    0.183000
    99  O     c     2.253894    2.267371   -6.713859    0.000000    0.183000
   100  Na    c     6.606779    0.005519    7.065058    0.000000    1.000000
   101  Na    c    -2.098992    0.005519    7.065058    0.000000    1.000000
   102  Na    c    -2.016981   -4.461811    2.570043    0.000000    1.000000
   103  Na    c     6.524769   -4.461811    2.570043    0.000000    1.000000
   104  Na    c     2.253894    9.030764    2.457021    0.000000    1.000000
   105  Na    c     2.253894    0.001066   -6.469072    0.000000    1.000000
   106  Cl    c     9.049496    0.002998    4.559387    0.000000    1.485000
   107  Cl    c    -4.541709    0.002998    4.559387    0.000000    1.485000
   108  Na    c     8.983888   -2.454961    2.117823    0.000000    1.000000
   109  Na    c    -4.476101   -2.454961    2.117823    0.000000    1.000000
   110  Na    c     6.875656   -1.941503   -4.496172    0.000000    1.000000
   111  Na    c    -2.367868   -1.941503   -4.496172    0.000000    1.000000
   112  Na    c    -2.080582    7.041032    4.498315    0.000000    1.000000
   113  Na    c     6.588369    7.041032    4.498315    0.000000    1.000000
   114  Cl    c     4.523968    9.034672   -0.004285    0.000000    1.485000
   115  Cl    c    -0.016180    9.034672   -0.004285    0.000000    1.485000
   116  Na    c     4.507850    2.277641   -6.645675    0.000000    1.000000
   117  Na    c    -0.000063    2.277641   -6.645675    0.000000    1.000000
   118  O     c     2.253894    6.720990    6.744917    0.000000    0.183000
   119  Na    c    -2.351777    4.508651    6.444978    0.000000    1.000000
   120  Na    c     6.859565    4.508651    6.444978    0.000000    1.000000
   121  Na    c    -2.205468   -4.491313   -2.572156    0.000000    1.000000
   122  Na    c     6.713255   -4.491313   -2.572156    0.000000    1.000000
   123  Na    c     2.253894    4.490161   -7.069854    0.000000    1.000000
   124  Na    c     2.253894    8.970256   -2.549667    0.000000    1.000000
   125  Na    c     2.253894    2.479463    8.975745    0.000000    1.000000
   126  Na    c     2.253894   -6.903538   -0.000539    0.000000    1.000000
   127  Cl    c     4.515196   -4.524869   -4.559526    0.000000    1.485000
   128  Cl    c    -0.007409   -4.524869   -4.559526    0.000000    1.485000
   129  Cl    c     9.061184    4.506050    4.502961    0.000000    1.485000
   130  Cl    c    -4.553396    4.506050    4.502961    0.000000    1.485000
   131  Na    c     4.512418    6.628564    6.812911    0.000000    1.000000
   132  Na    c    -0.004630    6.628564    6.812911    0.000000    1.000000
   133  Na    c     9.017119   -2.330182   -2.073069    0.000000    1.000000
   134  Na    c    -4.509332   -2.330182   -2.073069    0.000000    1.000000
   135  O     c    -2.250794   -2.239408    6.760308    0.000000    0.183000
   136  O     c     6.758581   -2.239408    6.760308    0.000000    0.183000
   137  O     c     2.253894   -6.794313    2.238136    0.000000    0.183000
   138  O     c     2.253894   -2.265574   -6.715822    0.000000    0.183000
   139  Na    c     2.253894   -4.490816    6.460378    0.000000    1.000000
   140  Na    c     4.500982   -6.790012    2.161969    0.000000    1.000000
   141  Na    c     0.006806   -6.790012    2.161969    0.000000    1.000000
   142  Cl    c     4.501001    0.006471    9.066473    0.000000    1.485000
   143  Cl    c     0.006786    0.006471    9.066473    0.000000    1.485000
   144  Cl    c     4.471894    9.071300    4.494542    0.000000    1.485000
   145  Cl    c     0.035893    9.071300    4.494542    0.000000    1.485000
   146  Na    c     9.005132    6.580594    2.403936    0.000000    1.000000
   147  Na    c    -4.497345    6.580594    2.403936    0.000000    1.000000
   148  Cl    c     9.056209    0.009497   -4.549184    0.000000    1.485000
   149  Cl    c    -4.548421    0.009497   -4.549184    0.000000    1.485000
   150  Na    c     4.511453   -2.246931   -6.637492    0.000000    1.000000
   151  Na    c    -0.003666   -2.246931   -6.637492    0.000000    1.000000
   152  Na    c     6.733363    7.106106   -4.493167    0.000000    1.000000
   153  Na    c    -2.225575    7.106106   -4.493167    0.000000    1.000000
   154  O     c     2.253894   -6.744377   -2.243659    0.000000    0.183000
   155  O     c     6.761737    2.235839   -6.740617    0.000000    0.183000
   156  O     c    -2.253950    2.235839   -6.740617    0.000000    0.183000
   157  Na    c     6.846268    8.984831    2.012818    0.000000    1.000000
   158  Na    c    -2.338481    8.984831    2.012818    0.000000    1.000000
   159  Na    c    -2.218555    0.004759   -7.072247    0.000000    1.000000
   160  Na    c     6.726342    0.004759   -7.072247    0.000000    1.000000
   161  Na    c     2.253894   -2.459140    8.973074    0.000000    1.000000
   162  Na    c     2.253894   -6.827681    4.494167    0.000000    1.000000
   163  Cl    c     4.514509    4.543205    9.068540    0.000000    1.485000
   164  Cl    c    -0.006721    4.543205    9.068540    0.000000    1.485000
   165  Na    c     4.511695   -6.702745   -2.197510    0.000000    1.000000
   166  Na    c    -0.003908   -6.702745   -2.197510    0.000000    1.000000
   167  Na    c     9.014126    2.098143    6.769496    0.000000    1.000000
   168  Na    c    -4.506339    2.098143    6.769496    0.000000    1.000000
   169  Cl    c     9.079484   -4.511365   -0.015860    0.000000    1.485000
   170  Cl    c    -4.571697   -4.511365   -0.015860    0.000000    1.485000
   171  Na    c    11.269470    1.913857    0.007411    0.000000    1.000000
   172  Na    c    -6.761683    1.913857    0.007411    0.000000    1.000000
   173  Cl    c     9.062079    4.519093   -4.515439    0.000000    1.485000
   174  Cl    c    -4.554291    4.519093   -4.515439    0.000000    1.485000
   175  Na    c     9.025012    6.654948   -2.343013    0.000000    1.000000
   176  Na    c    -4.517225    6.654948   -2.343013    0.000000    1.000000
   177  O     c     6.771859    6.774253    6.744087    0.000000    0.183000
   178  O     c    -2.264072    6.774253    6.744087    0.000000    0.183000
   179  O     c    11.256059    2.249159    2.249133    0.000000    0.183000
   180  O     c    -6.748272    2.249159    2.249133    0.000000    0.183000
   181  O     c     2.253894    6.719637   -6.749848    0.000000    0.183000
   182  Na    c    11.068568    0.005608    2.527743    0.000000    1.000000
   183  Na    c    -6.560781    0.005608    2.527743    0.000000    1.000000
   184  Na    c     6.808897    8.992002   -1.975752    0.000000    1.000000
   185  Na    c    -2.301109    8.992002   -1.975752    0.000000    1.000000
   186  Na    c     6.799911    4.500690   -6.483607    0.000000    1.000000
   187  Na    c    -2.292124    4.500690   -6.483607    0.000000    1.000000
   188  Na    c     6.746725    2.518898    8.996317    0.000000    1.000000
   189  Na    c    -2.238938    2.518898    8.996317    0.000000    1.000000
   190  Na    c    -2.310199   -6.489281   -0.006009    0.000000    1.000000
   191  Na    c     6.817987   -6.489281   -0.006009    0.000000    1.000000
   192  Cl    c     4.502896    9.056214   -4.535103    0.000000    1.485000
   193  Cl    c     0.004891    9.056214   -4.535103    0.000000    1.485000
   194  Na    c     4.505034    6.711915   -6.707036    0.000000    1.000000
   195  Na    c     0.002753    6.711915   -6.707036    0.000000    1.000000
[...]
    239 y          4.507787      4.648686     0.140898    Cartesian    3.13
    239 z          4.507787      4.633686     0.125899    Cartesian    2.79
    240 x          2.253894      2.253894     0.000000    Cartesian    0.00
    240 y          6.761681      6.790654     0.028973    Cartesian    0.43
    240 z          2.253894      2.205207    -0.048686    Cartesian   -2.16
    241 x         -2.253894     -2.262853    -0.008959    Cartesian    0.40
    241 y          2.253894      2.260477     0.006584    Cartesian    0.29
    241 z         -2.253894     -2.240513     0.013381    Cartesian   -0.59
    242 x          4.507787      4.521631     0.013844    Cartesian    0.31
    242 y         -0.000000     -0.017842    -0.017842    Cartesian *******
    242 z         -4.507787     -4.521757    -0.013970    Cartesian    0.31
    243 x          2.253894      2.253894     0.000000    Cartesian    0.00
    243 y          2.253894      2.238600    -0.015294    Cartesian   -0.68
    243 z          6.761681      6.703839    -0.057842    Cartesian   -0.86
    244 x         -2.253894     -2.218347     0.035546    Cartesian   -1.58
    244 y         -2.253894     -2.223409     0.030484    Cartesian   -1.35
    244 z          2.253894      2.237458    -0.016436    Cartesian   -0.73
    245 x          2.253894      2.253894     0.000000    Cartesian    0.00
    245 y          6.761681      6.709315    -0.052366    Cartesian   -0.77
    245 z         -2.253894     -2.227737     0.026157    Cartesian   -1.16
    246 x          4.507787      4.560176     0.052388    Cartesian    1.16
    246 y         -4.507787     -4.639428    -0.131641    Cartesian    2.92
    246 z          0.000000     -0.095347    -0.095347    Cartesian    0.00
    247 x          4.507787      4.515834     0.008047    Cartesian    0.18
    247 y          4.507787      4.493241    -0.014546    Cartesian   -0.32
    247 z         -4.507787     -4.560041    -0.052254    Cartesian    1.16
    248 x         -2.253894     -2.265669    -0.011776    Cartesian    0.52
    248 y         -2.253894     -2.251347     0.002547    Cartesian   -0.11
    248 z         -2.253894     -2.244112     0.009782    Cartesian   -0.43
    249 x          9.015574      9.098573     0.082998    Cartesian    0.92
    249 y         -0.000000     -0.031414    -0.031414    Cartesian *******
    249 z          0.000000     -0.020696    -0.020696    Cartesian    0.00
    250 x          2.253894      2.253894     0.000000    Cartesian    0.00
    250 y         -2.253894     -2.238868     0.015026    Cartesian   -0.67
    250 z          6.761681      6.700727    -0.060954    Cartesian   -0.90
    251 x         -2.253894     -2.248472     0.005422    Cartesian   -0.24
    251 y          6.761681      6.728167    -0.033513    Cartesian   -0.50
    251 z          2.253894      2.258817     0.004924    Cartesian    0.22
    252 x          4.507787      4.573746     0.065959    Cartesian    1.46
    252 y         -4.507787     -4.665128    -0.157341    Cartesian    3.49
    252 z          4.507787      4.630740     0.122953    Cartesian    2.73
    253 x          9.015574      9.078182     0.062608    Cartesian    0.69
    253 y          4.507787      4.491831    -0.015956    Cartesian   -0.35
    253 z          0.000000     -0.001495    -0.001495    Cartesian    0.00
    254 x         -2.253894     -2.260479    -0.006585    Cartesian    0.29
    254 y          2.253894      2.252485    -0.001408    Cartesian   -0.06
    254 z          6.761681      6.747680    -0.014001    Cartesian   -0.21
    255 x         -2.253894     -2.271923    -0.018029    Cartesian    0.80
    255 y          6.761681      6.743444    -0.018237    Cartesian   -0.27
    255 z         -2.253894     -2.268183    -0.014289    Cartesian    0.63
    256 x          2.253894      2.253894     0.000000    Cartesian    0.00
    256 y          2.253894      2.267428     0.013534    Cartesian    0.60
    256 z         -6.761681     -6.713887     0.047794    Cartesian   -0.71
    257 x          9.015574      9.048752     0.033177    Cartesian    0.37
    257 y         -0.000000      0.003240     0.003240    Cartesian *******
    257 z          4.507787      4.558952     0.051165    Cartesian    1.14
    258 x          4.507787      4.524136     0.016349    Cartesian    0.36
    258 y          9.015574      9.031621     0.016047    Cartesian    0.18
    258 z          0.000000     -0.003702    -0.003702    Cartesian    0.00
    259 x          2.253894      2.253894     0.000000    Cartesian    0.00
    259 y          6.761681      6.720947    -0.040734    Cartesian   -0.60
    259 z          6.761681      6.744918    -0.016763    Cartesian   -0.25
    260 x          4.507787      4.513702     0.005915    Cartesian    0.13
    260 y         -4.507787     -4.522634    -0.014846    Cartesian    0.33
    260 z         -4.507787     -4.562824    -0.055037    Cartesian    1.22
    261 x          9.015574      9.064377     0.048803    Cartesian    0.54
    261 y          4.507787      4.507219    -0.000569    Cartesian   -0.01
    261 z          4.507787      4.500714    -0.007073    Cartesian   -0.16
    262 x         -2.253894     -2.250790     0.003103    Cartesian   -0.14
    262 y         -2.253894     -2.239393     0.014501    Cartesian   -0.64
    262 z          6.761681      6.760349    -0.001332    Cartesian   -0.02
    263 x          2.253894      2.253894     0.000000    Cartesian    0.00
    263 y         -6.761681     -6.794392    -0.032712    Cartesian    0.48
    263 z          2.253894      2.238106    -0.015787    Cartesian   -0.70
    264 x          2.253894      2.253894     0.000000    Cartesian    0.00
    264 y         -2.253894     -2.265646    -0.011752    Cartesian    0.52
    264 z         -6.761681     -6.715805     0.045876    Cartesian   -0.68
    265 x          4.507787      4.504420    -0.003367    Cartesian   -0.07
    265 y         -0.000000      0.007337     0.007337    Cartesian *******
    265 z          9.015574      9.067415     0.051840    Cartesian    0.58
    266 x          4.507787      4.472224    -0.035563    Cartesian   -0.79
    266 y          9.015574      9.073485     0.057910    Cartesian    0.64
    266 z          4.507787      4.490481    -0.017306    Cartesian   -0.38
    267 x          9.015574      9.053970     0.038395    Cartesian    0.43
    267 y         -0.000000      0.009055     0.009055    Cartesian *******
    267 z         -4.507787     -4.550327    -0.042540    Cartesian    0.94
    268 x          2.253894      2.253894     0.000000    Cartesian    0.00
    268 y         -6.761681     -6.744403     0.017278    Cartesian   -0.26
    268 z         -2.253894     -2.243587     0.010307    Cartesian   -0.46
    269 x          6.761681      6.761737     0.000056    Cartesian    0.00
    269 y          2.253894      2.235791    -0.018103    Cartesian   -0.80
    269 z         -6.761681     -6.740642     0.021039    Cartesian   -0.31
    270 x          4.507787      4.515608     0.007821    Cartesian    0.17
    270 y          4.507787      4.546810     0.039023    Cartesian    0.87
    270 z          9.015574      9.073765     0.058191    Cartesian    0.65
    271 x          9.015574      9.081827     0.066252    Cartesian    0.73
    271 y         -4.507787     -4.508607    -0.000820    Cartesian    0.02
    271 z          0.000000     -0.016197    -0.016197    Cartesian    0.00
    272 x          9.015574      9.062672     0.047098    Cartesian    0.52
    272 y          4.507787      4.520562     0.012774    Cartesian    0.28
    272 z         -4.507787     -4.516574    -0.008787    Cartesian    0.19
    273 x          6.761681      6.771865     0.010185    Cartesian    0.15
    273 y          6.761681      6.774304     0.012623    Cartesian    0.19
    273 z          6.761681      6.744079    -0.017602    Cartesian   -0.26
    274 x         11.269468     11.256068    -0.013400    Cartesian   -0.12
    274 y          2.253894      2.249174    -0.004719    Cartesian   -0.21
    274 z          2.253894      2.249133    -0.004761    Cartesian   -0.21
    275 x          2.253894      2.253894     0.000000    Cartesian    0.00
    275 y          6.761681      6.719589    -0.042092    Cartesian   -0.62
    275 z         -6.761681     -6.749909     0.011772    Cartesian   -0.17
    276 x          4.507787      4.502991    -0.004796    Cartesian   -0.11
    276 y          9.015574      9.058884     0.043309    Cartesian    0.48
    276 z         -4.507787     -4.536728    -0.028941    Cartesian    0.64
    277 x         -2.253894     -2.237798     0.016095    Cartesian   -0.71
    277 y         -6.761681     -6.718604     0.043077    Cartesian   -0.64
    277 z          2.253894      2.258261     0.004367    Cartesian    0.19
    278 x         11.269468     11.273288     0.003820    Cartesian    0.03
    278 y          2.253894      2.244691    -0.009203    Cartesian   -0.41
    278 z         -2.253894     -2.236539     0.017355    Cartesian   -0.77
    279 x         -2.253894     -2.256435    -0.002541    Cartesian    0.11
    279 y         -2.253894     -2.228900     0.024994    Cartesian   -1.11
    279 z         -6.761681     -6.759353     0.002328    Cartesian   -0.03
    280 x          9.015574      9.058628     0.043053    Cartesian    0.48
    280 y         -4.507787     -4.500426     0.007362    Cartesian   -0.16
    280 z          4.507787      4.488118    -0.019669    Cartesian   -0.44
    281 x         11.269468     11.246018    -0.023450    Cartesian   -0.21
    281 y         -2.253894     -2.240310     0.013583    Cartesian   -0.60
    281 z          2.253894      2.263168     0.009274    Cartesian    0.41
    282 x         -2.253894     -2.260820    -0.006926    Cartesian    0.31
    282 y         -6.761681     -6.741516     0.020165    Cartesian   -0.30
    282 z         -2.253894     -2.276648    -0.022754    Cartesian    1.01
    283 x          2.253894      2.253894     0.000000    Cartesian    0.00
    283 y         11.269468     11.267025    -0.002443    Cartesian   -0.02
    283 z          2.253894      2.263159     0.009265    Cartesian    0.41
    284 x          4.507787      4.476271    -0.031516    Cartesian   -0.70
    284 y         -0.000000      0.000326     0.000326    Cartesian *******
    284 z         -9.015574     -9.058271    -0.042697    Cartesian    0.47
    285 x          9.015574      9.043122     0.027548    Cartesian    0.31
    285 y          9.015574      9.062397     0.046823    Cartesian    0.52
    285 z          0.000000     -0.015865    -0.015865    Cartesian    0.00
    286 x          2.253894      2.253894     0.000000    Cartesian    0.00
    286 y         -6.761681     -6.749275     0.012406    Cartesian   -0.18
    286 z          6.761681      6.749230    -0.012451    Cartesian   -0.18
    287 x         11.269468     11.270293     0.000825    Cartesian    0.01
    287 y         -2.253894     -2.244619     0.009274    Cartesian   -0.41
    287 z         -2.253894     -2.248833     0.005061    Cartesian   -0.22
    288 x          2.253894      2.253894     0.000000    Cartesian    0.00
    288 y         11.269468     11.242129    -0.027339    Cartesian   -0.24
    288 z         -2.253894     -2.284075    -0.030181    Cartesian    1.34
    289 x          6.761681      6.758623    -0.003057    Cartesian   -0.05
    289 y          6.761681      6.769319     0.007638    Cartesian    0.11
    289 z         -6.761681     -6.730892     0.030789    Cartesian   -0.46
    290 x          4.507787      4.515484     0.007697    Cartesian    0.17
    290 y         -4.507787     -4.513698    -0.005911    Cartesian    0.13
    290 z          9.015574      9.079635     0.064060    Cartesian    0.71
    291 x          9.015574      9.045835     0.030260    Cartesian    0.34
    291 y         -4.507787     -4.519843    -0.012056    Cartesian    0.27
    291 z         -4.507787     -4.534908    -0.027121    Cartesian    0.60
    292 x          4.507787      4.542067     0.034280    Cartesian    0.76
    292 y          4.507787      4.520686     0.012898    Cartesian    0.29
    292 z         -9.015574     -9.056592    -0.041018    Cartesian    0.45
    293 x          2.253894      2.253894     0.000000    Cartesian    0.00
    293 y          2.253894      2.263224     0.009330    Cartesian    0.41
    293 z         11.269468     11.248113    -0.021355    Cartesian   -0.19
    294 x         11.269468     11.268097    -0.001371    Cartesian   -0.01
    294 y          6.761681      6.737054    -0.024627    Cartesian   -0.36
    294 z          2.253894      2.252629    -0.001264    Cartesian   -0.06
    295 x          9.015574      9.037485     0.021910    Cartesian    0.24
    295 y         -0.000000      0.000208     0.000208    Cartesian *******
    295 z          9.015574      9.020371     0.004797    Cartesian    0.05
    296 x          4.507787      4.513157     0.005370    Cartesian    0.12
    296 y         -9.015574     -9.055922    -0.040347    Cartesian    0.45
    296 z          0.000000     -0.005433    -0.005433    Cartesian    0.00
    297 x          9.015574      9.042198     0.026624    Cartesian    0.30
    297 y          9.015574      9.042614     0.027039    Cartesian    0.30
    297 z          4.507787      4.500369    -0.007418    Cartesian   -0.16
    298 x         11.269468     11.271019     0.001551    Cartesian    0.01
    298 y          2.253894      2.263680     0.009786    Cartesian    0.43
    298 z          6.761681      6.756741    -0.004940    Cartesian   -0.07
    299 x         -2.253894     -2.262838    -0.008944    Cartesian    0.40
    299 y         11.269468     11.256597    -0.012871    Cartesian   -0.11
    299 z          2.253894      2.231698    -0.022196    Cartesian   -0.98
    300 x         11.269468     11.273983     0.004515    Cartesian    0.04
    300 y          6.761681      6.759059    -0.002622    Cartesian   -0.04
    300 z         -2.253894     -2.230913     0.022981    Cartesian   -1.02
    301 x          9.015574      9.071690     0.056115    Cartesian    0.62
    301 y          4.507787      4.519946     0.012159    Cartesian    0.27
    301 z          9.015574      9.048820     0.033246    Cartesian    0.37
    302 x          2.253894      2.253894     0.000000    Cartesian    0.00
    302 y         -2.253894     -2.259256    -0.005362    Cartesian    0.24
    302 z         11.269468     11.250292    -0.019176    Cartesian   -0.17
    303 x         -2.253894     -2.265690    -0.011796    Cartesian    0.52
    303 y         -6.761681     -6.771456    -0.009776    Cartesian    0.14
    303 z          6.761681      6.757180    -0.004500    Cartesian   -0.07
    304 x          2.253894      2.253894     0.000000    Cartesian    0.00
    304 y         -6.761681     -6.740884     0.020797    Cartesian   -0.31
    304 z         -6.761681     -6.772544    -0.010863    Cartesian    0.16
    305 x         -2.253894     -2.256067    -0.002173    Cartesian    0.10
    305 y         11.269468     11.258450    -0.011018    Cartesian   -0.10
    305 z         -2.253894     -2.230458     0.023436    Cartesian   -1.04
    306 x          4.507787      4.501317    -0.006470    Cartesian   -0.14
    306 y         -9.015574     -9.061098    -0.045524    Cartesian    0.50
    306 z          4.507787      4.494157    -0.013630    Cartesian   -0.30
    307 x         13.523362     13.593280     0.069919    Cartesian    0.52
    307 y         -0.000000      0.001430     0.001430    Cartesian *******
    307 z          0.000000      0.008182     0.008182    Cartesian    0.00
    308 x          4.507787      4.546156     0.038369    Cartesian    0.85
    308 y          9.015574      9.062482     0.046907    Cartesian    0.52
    308 z          9.015574      9.030374     0.014800    Cartesian    0.16
    309 x          9.015574      9.026805     0.011231    Cartesian    0.12
    309 y          9.015574      9.020198     0.004624    Cartesian    0.05
    309 z         -4.507787     -4.532958    -0.025171    Cartesian    0.56
    310 x          6.761681      6.761969     0.000289    Cartesian    0.00
    310 y          2.253894      2.275604     0.021710    Cartesian    0.96
    310 z         11.269468     11.258560    -0.010908    Cartesian   -0.10
    311 x         11.269468     11.270682     0.001214    Cartesian    0.01
    311 y         -2.253894     -2.255833    -0.001939    Cartesian    0.09
    311 z          6.761681      6.759360    -0.002321    Cartesian   -0.03
    312 x          2.253894      2.253894     0.000000    Cartesian    0.00
    312 y         11.269468     11.270860     0.001392    Cartesian    0.01
    312 z          6.761681      6.762405     0.000724    Cartesian    0.01
    313 x         13.523362     13.573478     0.050116    Cartesian    0.37
    313 y          4.507787      4.524783     0.016995    Cartesian    0.38
    313 z          0.000000     -0.006330    -0.006330    Cartesian    0.00
    314 x          4.507787      4.494874    -0.012914    Cartesian   -0.29
    314 y         -4.507787     -4.520995    -0.013207    Cartesian    0.29
    314 z         -9.015574     -9.061475    -0.045901    Cartesian    0.51
    315 x          2.253894      2.253894     0.000000    Cartesian    0.00
    315 y          6.761681      6.766447     0.004766    Cartesian    0.07
    315 z         11.269468     11.261693    -0.007775    Cartesian   -0.07
    316 x         11.269468     11.276557     0.007089    Cartesian    0.06
    316 y          2.253894      2.268310     0.014416    Cartesian    0.64
    316 z         -6.761681     -6.750778     0.010903    Cartesian   -0.16
    317 x         13.523362     13.597391     0.074030    Cartesian    0.55
    317 y         -0.000000      0.001951     0.001951    Cartesian *******
    317 z          4.507787      4.505761    -0.002026    Cartesian   -0.04
    318 x          4.507787      4.543962     0.036174    Cartesian    0.80
    318 y         -9.015574     -9.053923    -0.038348    Cartesian    0.43
    318 z         -4.507787     -4.538049    -0.030261    Cartesian    0.67
    319 x          9.015574      9.021985     0.006411    Cartesian    0.07
    319 y         -0.000000     -0.001958    -0.001958    Cartesian *******
    319 z         -9.015574     -9.019798    -0.004224    Cartesian    0.05
--------------------------------------------------------------------------------


  Time to end of optimisation  =      167.7469 seconds


  Peak dynamic memory used =      94.26 MB 


  Timing analysis for GULP :

--------------------------------------------------------------------------------
  Task / Subroutine                                          Time (Seconds)
--------------------------------------------------------------------------------
  Calculation of reciprocal space energy and derivatives          0.0007
  Calculation of reciprocal space energy using symmetry           0.0010
  Calculation of real space energy and derivatives                0.0038
  Calculation of real space energy using symmetry                 0.0093
  Calculation for region 1 energy and derivatives (2-b)          92.2969
  Calculation for region 2a energy                               68.8029
  Calculation for region 2b energy                                0.0274
  Calculation and manipulation of Hessian matrix                  0.2154
  Calculation of matrix inversion                                 5.8317
  Symmetry generation of equivalent positions                     0.0047
--------------------------------------------------------------------------------
  Total CPU time                                                167.7470
--------------------------------------------------------------------------------


  Dump file written as Na3OCl.grs


  Job Finished at 22:38.25 30th November   2020                               

