********************************************************************************
*                       GENERAL UTILITY LATTICE PROGRAM                        *
*                                 Julian Gale                                  *
*                       Curtin Institute for Computation                       *
*                    School of Molecular and Life Sciences                     *
*                    Curtin University, Western Australia                      *
********************************************************************************
* Version = 5.2.0 * Last modified =  10th September 2020                       *
********************************************************************************
*  optimise     - perform optimisation run                                     *
*  conp         - constant pressure calculation                                *
*  property     - calculate properties for final geometry                      *
*  defect       - perform defect calculation after bulk run                    *
*  compare      - compare initial and final structures                         *
********************************************************************************

  Job Started  at 22:37.32 30th November   2020                               

  Number of CPUs =     1


  Total number of configurations input =      1

********************************************************************************
*  Input for Configuration =   1                                               *
********************************************************************************

  Formula = ClONa3                                                      

  Number of irreducible atoms/shells =       5


  Total number atoms/shells =       7

  Dimensionality = 3               :  Bulk   


  Symmetry :

  Crystal family                   :  Cubic       
  Crystal class  (Groth - 1921)    :  Cubic Hexakisoctahedral              

  Space group (centrosymmetric)    :  P M 3 M         

  Patterson group                  :  P m -3 m 

  Cartesian lattice vectors (Angstroms) :

        4.504000    0.000000    0.000000
        0.000000    4.504000    0.000000
        0.000000    0.000000    4.504000

  Cell parameters (Angstroms/Degrees):

  a =       4.5040    alpha =  90.0000
  b =       4.5040    beta  =  90.0000
  c =       4.5040    gamma =  90.0000

  Initial cell volume =          91.368216 Angs**3

  Temperature of configuration =   0.00     K 

  Pressure of configuration =         0.000 GPa 

  Fractional coordinates of asymmetric unit :

--------------------------------------------------------------------------------
   No.  Atomic       x           y          z         Charge      Occupancy
        Label      (Frac)      (Frac)     (Frac)        (e)         (Frac)  
--------------------------------------------------------------------------------
      1 Cl    c    0.000000    0.000000    0.000000     1.48500    1.000000    
      2 O     c    0.500000    0.500000    0.500000     0.18300    1.000000    
      3 Na    c    0.500000    0.500000    0.000000     1.00000    1.000000    
      4 Cl    s    0.000000    0.000000    0.000000    -2.48500    1.000000    
      5 O     s    0.500000    0.500000    0.500000    -2.18300    1.000000    
--------------------------------------------------------------------------------


  Constraints : 

--------------------------------------------------------------------------------
  Constraint no.      Unconstrained     Constrained    Coefficient    Offset
                         Variable         Variable
--------------------------------------------------------------------------------
           1              Strain 1        Strain 2       1.00000      0.0000
           2              Strain 1        Strain 3       1.00000      0.0000
--------------------------------------------------------------------------------


********************************************************************************
*  General input information                                                   *
********************************************************************************

  Species output for all configurations : 

--------------------------------------------------------------------------------
  Species    Type    Atomic    Atomic    Charge       Radii (Angs)     Library
                     Number     Mass       (e)     Cova   Ionic  VDW   Symbol
--------------------------------------------------------------------------------
    Na       Core       11      22.99   1.000000   0.970  0.000  2.300          
    O        Core        8      16.00   0.183000   0.730  0.000  1.360          
    O        Shell       8       0.00  -2.183000   0.730  0.000  1.360          
    Cl       Core       17      35.45   1.485000   0.990  0.000  1.650          
    Cl       Shell      17       0.00  -2.485000   0.990  0.000  1.650          
    Mg       Core       12      24.31   0.415000   1.100  0.000  0.000          
    Mg       Shell      12       0.00   1.585000   1.100  0.000  0.000          
    Ca       Core       20      40.08  -1.135000   0.990  0.000  0.000          
    Ca       Shell      20       0.00   3.135000   0.990  0.000  0.000          
    Sr       Core       38      87.62  -1.251000   1.120  0.000  0.000          
    Sr       Shell      38       0.00   3.251000   1.120  0.000  0.000          
    Ba       Core       56     137.33  -7.203000   1.340  0.000  0.000          
    Ba       Shell      56       0.00   9.203000   1.340  0.000  0.000          
--------------------------------------------------------------------------------


  Lattice summation method               =    Ewald          (3-D)
                                         =    Parry          (2-D)
                                         =    Saunders et al (1-D)
  Accuracy factor for lattice sums       =   12.000


  Analytic derivatives to be used

  Time limit = Infinity

  Maximum range for interatomic potentials =    100000.000000 Angstroms

  General interatomic potentials :

--------------------------------------------------------------------------------
Atom  Types   Potential      Parameter       Value         Units   Cutoffs(Ang)
  1     2                                                            Min /  Max 
--------------------------------------------------------------------------------
O    c O    s Spring (c-s)  Spring k 2       593.71600    eV*Ang^-2 0.000  0.800
                            Spring k 4       0.0000000    eV*Ang^-4 
--------------------------------------------------------------------------------
Cl   c Cl   s Spring (c-s)  Spring k 2       29.380000    eV*Ang^-2 0.000  0.800
                            Spring k 4       0.0000000    eV*Ang^-4 
--------------------------------------------------------------------------------
Mg   c Mg   s Spring (c-s)  Spring k 2       361.60000    eV*Ang^-2 0.000  0.800
                            Spring k 4       0.0000000    eV*Ang^-4 
--------------------------------------------------------------------------------
Ca   c Ca   s Spring (c-s)  Spring k 2       110.20000    eV*Ang^-2 0.000  0.800
                            Spring k 4       0.0000000    eV*Ang^-4 
--------------------------------------------------------------------------------
Sr   c Sr   s Spring (c-s)  Spring k 2       71.700000    eV*Ang^-2 0.000  0.800
                            Spring k 4       0.0000000    eV*Ang^-4 
--------------------------------------------------------------------------------
Ba   c Ba   s Spring (c-s)  Spring k 2       495.20000    eV*Ang^-2 0.000  0.800
                            Spring k 4       0.0000000    eV*Ang^-4 
--------------------------------------------------------------------------------
Na   c Na   c Buckingham    Buckingham A     1788.1900    eV        0.000 12.000
                            Buckingham rho  0.15900000    Ang       
                            Buckingham C     0.0000000    eV*Ang^6  
--------------------------------------------------------------------------------
Na   c O    s Buckingham    Buckingham A     1226.8400    eV        0.000 12.000
                            Buckingham rho  0.30700000    Ang       
                            Buckingham C     0.0000000    eV*Ang^6  
--------------------------------------------------------------------------------
Na   c Cl   s Buckingham    Buckingham A     2314.7000    eV        0.000 12.000
                            Buckingham rho  0.29000000    Ang       
                            Buckingham C     0.0000000    eV*Ang^6  
--------------------------------------------------------------------------------
O    s O    s Buckingham    Buckingham A     22764.300    eV        0.000 12.000
                            Buckingham rho  0.14900000    Ang       
                            Buckingham C     13.190000    eV*Ang^6  
--------------------------------------------------------------------------------
O    s Cl   s Buckingham    Buckingham A     8286.9100    eV        0.000 12.000
                            Buckingham rho  0.25900000    Ang       
                            Buckingham C     62.200000    eV*Ang^6  
--------------------------------------------------------------------------------
Cl   s Cl   s Buckingham    Buckingham A     1227.2000    eV        0.000 12.000
                            Buckingham rho  0.32100000    Ang       
                            Buckingham C     14.530000    eV*Ang^6  
--------------------------------------------------------------------------------
O    s Mg   s Buckingham    Buckingham A     1428.5000    eV        0.000 12.000
                            Buckingham rho  0.29450000    Ang       
                            Buckingham C     0.0000000    eV*Ang^6  
--------------------------------------------------------------------------------
Mg   s Cl   s Buckingham    Buckingham A     4914.5400    eV        0.000 12.000
                            Buckingham rho  0.25700000    Ang       
                            Buckingham C     0.0000000    eV*Ang^6  
--------------------------------------------------------------------------------
O    s Ca   s Buckingham    Buckingham A     1090.4000    eV        0.000 12.000
                            Buckingham rho  0.34370000    Ang       
                            Buckingham C     0.0000000    eV*Ang^6  
--------------------------------------------------------------------------------
Cl   s Ca   s Buckingham    Buckingham A     2302.0000    eV        0.000 12.000
                            Buckingham rho  0.34020000    Ang       
                            Buckingham C     0.0000000    eV*Ang^6  
--------------------------------------------------------------------------------
O    s Sr   s Buckingham    Buckingham A     959.10000    eV        0.000 12.000
                            Buckingham rho  0.37210000    Ang       
                            Buckingham C     0.0000000    eV*Ang^6  
--------------------------------------------------------------------------------
Cl   s Sr   s Buckingham    Buckingham A     2191.0900    eV        0.000 12.000
                            Buckingham rho  0.34570000    Ang       
                            Buckingham C     0.0000000    eV*Ang^6  
--------------------------------------------------------------------------------
O    s Ba   s Buckingham    Buckingham A     905.70000    eV        0.000 12.000
                            Buckingham rho  0.39760000    Ang       
                            Buckingham C     0.0000000    eV*Ang^6  
--------------------------------------------------------------------------------
Cl   s Ba   s Buckingham    Buckingham A     2704.5500    eV        0.000 12.000
                            Buckingham rho  0.35280000    Ang       
                            Buckingham C     0.0000000    eV*Ang^6  
--------------------------------------------------------------------------------

********************************************************************************
*  Output for configuration   1                                                *
********************************************************************************


  Components of energy : 

--------------------------------------------------------------------------------
  Interatomic potentials     =           5.13022605 eV    
  Monopole - monopole (real) =         -10.03624526 eV    
  Monopole - monopole (recip)=         -29.53581274 eV    
  Monopole - monopole (total)=         -39.57205800 eV    
--------------------------------------------------------------------------------
  Total lattice energy       =         -34.44183194 eV    
--------------------------------------------------------------------------------
  Total lattice energy       =           -3323.1103 kJ/(mole unit cells)
--------------------------------------------------------------------------------


  Number of variables =        1

  Maximum number of calculations  =          1000
  Maximum Hessian update interval =            10
  Maximum step size               =   1.000000000
  Maximum parameter tolerance     =   0.000010000
  Maximum function  tolerance     =   0.000010000
  Maximum gradient  tolerance     =   0.001000000
  Maximum gradient  component     =   0.010000000

  Symmetry constrained optimisation

  Symmetry used for second derivatives

  Cell parameters to be optimised using strains

  Newton-Raphson optimiser to be used

  BFGS hessian update to be used

  Lower half triangular hessian to be used

  Start of bulk optimisation :

  Cycle:      0 Energy:       -34.441832  Gnorm:      0.196570  CPU:    0.017
  ** Hessian calculated **
  Cycle:      1 Energy:       -34.441914  Gnorm:      0.000103  CPU:    0.022


  **** Optimisation achieved ****


  Final energy =     -34.44191447 eV
  Final Gnorm  =       0.00000000

  Components of energy : 

--------------------------------------------------------------------------------
  Interatomic potentials     =           5.09689708 eV    
  Monopole - monopole (real) =         -10.02781331 eV    
  Monopole - monopole (recip)=         -29.51099824 eV    
  Monopole - monopole (total)=         -39.53881155 eV    
--------------------------------------------------------------------------------
  Total lattice energy       =         -34.44191447 eV    
--------------------------------------------------------------------------------
  Total lattice energy       =           -3323.1183 kJ/(mole unit cells)
--------------------------------------------------------------------------------

  Final asymmetric unit coordinates :

--------------------------------------------------------------------------------
   No.  Atomic        x           y           z         Radius
        Label       (Frac)      (Frac)      (Frac)       (Angs) 
--------------------------------------------------------------------------------
     1  Cl    c     0.000000    0.000000    0.000000    0.000000
     2  O     c     0.500000    0.500000    0.500000    0.000000
     3  Na    c     0.500000    0.500000    0.000000    0.000000
     4  Cl    s     0.000000    0.000000    0.000000    0.000000
     5  O     s     0.500000    0.500000    0.500000    0.000000
--------------------------------------------------------------------------------

  Final Cartesian lattice vectors (Angstroms) :

        4.507787    0.000000    0.000000
        0.000000    4.507787    0.000000
        0.000000    0.000000    4.507787


  Final cell parameters and derivatives :

--------------------------------------------------------------------------------
       a            4.507787 Angstrom     dE/de1(xx)     0.000000 eV/strain
       b            4.507787 Angstrom     dE/de2(yy)     0.000000 eV/strain
       c            4.507787 Angstrom     dE/de3(zz)     0.000000 eV/strain
       alpha       90.000000 Degrees      dE/de4(yz)     0.000000 eV/strain
       beta        90.000000 Degrees      dE/de5(xz)     0.000000 eV/strain
       gamma       90.000000 Degrees      dE/de6(xy)     0.000000 eV/strain
--------------------------------------------------------------------------------

  Primitive cell volume =            91.598892 Angs**3

  Density of cell =      2.183054 g/cm**3

  Non-primitive cell volume =            91.598892 Angs**3


  Final internal derivatives :

--------------------------------------------------------------------------------
   No.  Atomic          a             b             c           Radius
        Label          (eV)          (eV)          (eV)        (eV/Angs)
--------------------------------------------------------------------------------
      1 Cl    c       0.000000      0.000000      0.000000      0.000000
      2 O     c       0.000000      0.000000      0.000000      0.000000
      3 Na    c       0.000000      0.000000      0.000000      0.000000
      4 Cl    s       0.000000      0.000000      0.000000      0.000000
      5 O     s       0.000000      0.000000      0.000000      0.000000
--------------------------------------------------------------------------------
  Maximum abs         0.000000      0.000000      0.000000      0.000000
--------------------------------------------------------------------------------

  Comparison of initial and final structures : 

--------------------------------------------------------------------------------
  Parameter   Initial value   Final value   Difference    Units      Percent
--------------------------------------------------------------------------------
    Volume        91.368216     91.598892     0.230676    Angs**3      0.25
    a              4.504000      4.507787     0.003787    Angstroms    0.08
    b              4.504000      4.507787     0.003787    Angstroms    0.08
    c              4.504000      4.507787     0.003787    Angstroms    0.08
    alpha         90.000000     90.000000     0.000000    Degrees      0.00
    beta          90.000000     90.000000     0.000000    Degrees      0.00
    gamma         90.000000     90.000000     0.000000    Degrees      0.00
      1 x          0.000000      0.000000     0.000000    Fractional   0.00
      1 y          0.000000      0.000000     0.000000    Fractional   0.00
      1 z          0.000000      0.000000     0.000000    Fractional   0.00
      2 x          0.500000      0.500000     0.000000    Fractional   0.00
      2 y          0.500000      0.500000     0.000000    Fractional   0.00
      2 z          0.500000      0.500000     0.000000    Fractional   0.00
      3 x          0.500000      0.500000     0.000000    Fractional   0.00
      3 y          0.500000      0.500000     0.000000    Fractional   0.00
      3 z          0.000000      0.000000     0.000000    Fractional   0.00
      4 x          0.000000      0.000000     0.000000    Fractional   0.00
      4 y          0.000000      0.000000     0.000000    Fractional   0.00
      4 z          0.000000      0.000000     0.000000    Fractional   0.00
      5 x          0.500000      0.500000     0.000000    Fractional   0.00
      5 y          0.500000      0.500000     0.000000    Fractional   0.00
      5 z          0.500000      0.500000     0.000000    Fractional   0.00
--------------------------------------------------------------------------------


  Born effective charge tensors : 

-------------------------------------------------------------------------------
  Atom             x           y             z
-------------------------------------------------------------------------------
    1 Cl    x      -1.0181     -0.0000      0.0000
            y      -0.0000     -1.0181      0.0000
            z       0.0000      0.0000     -1.0181
-------------------------------------------------------------------------------
    2 O     x      -2.2647      0.0000     -0.0000
            y       0.0000     -2.2647     -0.0000
            z      -0.0000     -0.0000     -2.2647
-------------------------------------------------------------------------------
    3 Na    x       1.2258     -0.0000      0.0000
            y      -0.0000      1.2258     -0.0000
            z       0.0000     -0.0000      0.8313
-------------------------------------------------------------------------------




  Elastic Constant Matrix: (Units=GPa)

-------------------------------------------------------------------------------
  Indices      1         2         3         4         5         6    
-------------------------------------------------------------------------------
       1     95.8177   20.0737   20.0737   -0.0000   -0.0000    0.0000
       2     20.0737   95.8177   20.0737   -0.0000   -0.0000    0.0000
       3     20.0737   20.0737   95.8177   -0.0000   -0.0000    0.0000
       4     -0.0000   -0.0000   -0.0000   20.0737   -0.0000    0.0000
       5     -0.0000   -0.0000   -0.0000   -0.0000   20.0737    0.0000
       6      0.0000    0.0000    0.0000    0.0000    0.0000   20.0737
-------------------------------------------------------------------------------


  Elastic Compliance Matrix: (Units=1/GPa)

-------------------------------------------------------------------------------
  Indices      1         2         3         4         5         6    
-------------------------------------------------------------------------------
       1    0.011253 -0.001949 -0.001949  0.000000  0.000000 -0.000000
       2   -0.001949  0.011253 -0.001949  0.000000  0.000000  0.000000
       3   -0.001949 -0.001949  0.011253  0.000000  0.000000 -0.000000
       4    0.000000  0.000000  0.000000  0.049816  0.000000 -0.000000
       5    0.000000  0.000000  0.000000  0.000000  0.049816 -0.000000
       6   -0.000000  0.000000 -0.000000 -0.000000 -0.000000  0.049816
-------------------------------------------------------------------------------

  Mechanical properties :

-------------------------------------------------------------------------------
  Convention :                    Reuss         Voigt         Hill
-------------------------------------------------------------------------------
  Bulk  Modulus (GPa)     =      45.32174      45.32174      45.32174
  Shear Modulus (GPa)     =      24.72085      27.19304      25.95695
-------------------------------------------------------------------------------
  Velocity S-wave (km/s)  =       3.36511       3.52937       3.44822
  Velocity P-wave (km/s)  =       5.98827       6.11304       6.05098
-------------------------------------------------------------------------------
  Compressibility (1/GPa) =    0.02206447
-------------------------------------------------------------------------------
  Stress axis :                     x             y             z
-------------------------------------------------------------------------------
  Youngs Moduli (GPa)     =      88.86373      88.86373      88.86373
-------------------------------------------------------------------------------
  Poissons Ratio (x)      =                     0.17321       0.17321
  Poissons Ratio (y)      =       0.17321                     0.17321
  Poissons Ratio (z)      =       0.17321       0.17321
-------------------------------------------------------------------------------


  Piezoelectric Strain Matrix: (Units=C/m**2)

-------------------------------------------------------------------------------
  Indices      1         2         3         4         5         6    
-------------------------------------------------------------------------------
       x    -0.00000  -0.00000  -0.00000   0.00000  -0.00000  -0.00000
       y    -0.00000  -0.00000   0.00000  -0.00000   0.00000   0.00000
       z    -0.00000  -0.00000  -0.00000  -0.00000   0.00000   0.00000
-------------------------------------------------------------------------------


  Piezoelectric Stress Matrix: (Units=10**-11 C/N)

-------------------------------------------------------------------------------
  Indices      1         2         3         4         5         6    
-------------------------------------------------------------------------------
       x    -0.00000   0.00000   0.00000   0.00000  -0.00000  -0.00000
       y    -0.00000  -0.00000   0.00000  -0.00000   0.00000   0.00000
       z     0.00000   0.00000  -0.00000  -0.00000   0.00000   0.00000
-------------------------------------------------------------------------------


  Static dielectric constant tensor : 

-------------------------------------------------------------------------------
              x         y         z
-------------------------------------------------------------------------------
       x    22.84729   0.00000   0.00000
       y     0.00000  22.84729  -0.00000
       z     0.00000  -0.00000  22.84729
--------------------------------------------------------------------------------

  High frequency dielectric constant tensor : 

-------------------------------------------------------------------------------
              x         y         z
-------------------------------------------------------------------------------
       x     1.47557   0.00000  -0.00000
       y     0.00000   1.47557  -0.00000
       z    -0.00000  -0.00000   1.47557
-------------------------------------------------------------------------------

  Static refractive indices : 

-------------------------------------------------------------------------------
    1 =    4.77988      2 =    4.77988      3 =    4.77988
-------------------------------------------------------------------------------

  High frequency refractive indices : 

-------------------------------------------------------------------------------
    1 =    1.21473      2 =    1.21473      3 =    1.21473
-------------------------------------------------------------------------------


  Time to end of optimisation =       0.0322 seconds

********************************************************************************
*  Defect calculation for configuration   1 :                                  *
********************************************************************************

  Total number of defects =      3

  Total charge on defect  =  -1.00

  Defect centre is at   0.5000   0.3900   0.1100  Frac

  Region 1 radius =  12.0000      Number of ions =    562

  Number of symmetry inequivalent region 1 ions  =    326

  Region 2 radius =  16.0000      Number of ions =    747

  Number of symmetry inequivalent region 2a ions =    407

  Region 2a mode = 4 : screened electrostatics due to region 1 
                       neglect correction to region 1 forces from 2a
                       region 2a displacements based on defects only

  Region 2a ions will only interact with defects in region 1

  Vacancies:

--------------------------------------------------------------------------------
    Specification type     Symbol/Number         x          y          z
--------------------------------------------------------------------------------
    Fractional                               0.500000   0.500000   0.000000
    Fractional                               0.500000   0.000000   0.500000
--------------------------------------------------------------------------------

  Interstitials:

--------------------------------------------------------------------------------
    Specification type     Symbol/Number         x          y          z
--------------------------------------------------------------------------------
    Atom/Fractional         Na               0.500000   0.390000   0.110000
--------------------------------------------------------------------------------


  Symmetry reduced region 1 (Relative to defect centre) :

--------------------------------------------------------------------------------
   No.   Atomic       x            y             z       Radius  Multiplicity   
         Label      (Angs)       (Angs)        (Angs)    (Angs)     
--------------------------------------------------------------------------------
     1  Na    c      0.0000       0.0000       0.0000 *  0.0000     1    Defect
     2  O     c      0.0000       0.4959 *     1.7580 *  0.0000     1          
     3  O     c      0.0000       0.4959 *    -2.7498 *  0.0000     1          
     4  Na    c      2.2539 *     0.4959 *     1.7580 *  0.0000     2          
     5  Cl    c      2.2539 *    -1.7580 *    -0.4959 *  0.0000     2          
     6  Na    c      0.0000       2.7498 *     1.7580 *  0.0000     1          
     7  Na    c      0.0000      -1.7580 *    -2.7498 *  0.0000     1          
     8  Cl    c      2.2539 *     2.7498 *    -0.4959 *  0.0000     2          
     9  Na    c      2.2539 *     0.4959 *    -2.7498 *  0.0000     2          
    10  Na    c      0.0000       2.7498 *    -2.7498 *  0.0000     1          
    11  Na    c      0.0000       0.4959 *     4.0119 *  0.0000     1          
    12  Na    c      0.0000      -4.0119 *    -0.4959 *  0.0000     1          
    13  O     c      0.0000      -4.0119 *     1.7580 *  0.0000     1          
    14  Na    c     -4.5078 *     0.4959 *    -0.4959 *  0.0000     2          
    15  O     c      0.0000      -4.0119 *    -2.7498 *  0.0000     1          
    16  O     c     -4.5078 *     0.4959 *     1.7580 *  0.0000     2          
    17  Cl    c      2.2539 *    -1.7580 *     4.0119 *  0.0000     2          
    18  Na    c      2.2539 *    -4.0119 *     1.7580 *  0.0000     2          
    19  Na    c      0.0000       0.4959 *    -5.0036 *  0.0000     1          
    20  Na    c      0.0000       5.0036 *    -0.4959 *  0.0000     1          
    21  Na    c     -4.5078 *    -1.7580 *     1.7580 *  0.0000     2          
    22  O     c      0.0000       5.0036 *     1.7580 *  0.0000     1          
    23  O     c     -4.5078 *     0.4959 *    -2.7498 *  0.0000     2          
    24  Cl    c      2.2539 *     2.7498 *     4.0119 *  0.0000     2          
    25  Na    c      2.2539 *    -4.0119 *    -2.7498 *  0.0000     2          
    26  Na    c     -4.5078 *     2.7498 *     1.7580 *  0.0000     2          
    27  Na    c     -4.5078 *    -1.7580 *    -2.7498 *  0.0000     2          
    28  Na    c      0.0000      -4.0119 *     4.0119 *  0.0000     1          
    29  O     c      0.0000       5.0036 *    -2.7498 *  0.0000     1          
    30  Cl    c      2.2539 *    -1.7580 *    -5.0036 *  0.0000     2          
    31  Na    c      2.2539 *     5.0036 *     1.7580 *  0.0000     2          
    32  Na    c     -4.5078 *     2.7498 *    -2.7498 *  0.0000     2          
    33  Na    c     -4.5078 *     0.4959 *     4.0119 *  0.0000     2          
    34  Na    c     -4.5078 *    -4.0119 *    -0.4959 *  0.0000     2          
    35  Cl    c      2.2539 *     2.7498 *    -5.0036 *  0.0000     2          
    36  Na    c      2.2539 *     5.0036 *    -2.7498 *  0.0000     2          
    37  O     c      0.0000       0.4959 *     6.2658 *  0.0000     1          
    38  O     c     -4.5078 *    -4.0119 *     1.7580 *  0.0000     2          
    39  Na    c      0.0000       5.0036 *     4.0119 *  0.0000     1          
    40  Na    c      0.0000      -4.0119 *    -5.0036 *  0.0000     1          
    41  Na    c      0.0000      -1.7580 *     6.2658 *  0.0000     1          
    42  Na    c      0.0000      -6.2658 *     1.7580 *  0.0000     1          
    43  O     c     -4.5078 *    -4.0119 *    -2.7498 *  0.0000     2          
    44  Na    c      2.2539 *     0.4959 *     6.2658 *  0.0000     2          
    45  Cl    c      2.2539 *    -6.2658 *    -0.4959 *  0.0000     2          
    46  Na    c     -4.5078 *     0.4959 *    -5.0036 *  0.0000     2          
    47  Na    c     -4.5078 *     5.0036 *    -0.4959 *  0.0000     2          
    48  Na    c      0.0000       2.7498 *     6.2658 *  0.0000     1          
    49  Na    c      0.0000      -6.2658 *    -2.7498 *  0.0000     1          
    50  O     c     -4.5078 *     5.0036 *     1.7580 *  0.0000     2          
    51  Cl    c      6.7617 *    -1.7580 *    -0.4959 *  0.0000     2          
    52  Na    c      6.7617 *     0.4959 *     1.7580 *  0.0000     2          
    53  Na    c      0.0000       5.0036 *    -5.0036 *  0.0000     1          
    54  Na    c     -4.5078 *    -4.0119 *     4.0119 *  0.0000     2          
    55  O     c      0.0000       0.4959 *    -7.2575 *  0.0000     1          
    56  O     c     -4.5078 *     5.0036 *    -2.7498 *  0.0000     2          
    57  Cl    c      6.7617 *     2.7498 *    -0.4959 *  0.0000     2          
    58  Na    c      6.7617 *     0.4959 *    -2.7498 *  0.0000     2          
    59  O     c      0.0000      -4.0119 *     6.2658 *  0.0000     1          
    60  Na    c      0.0000       7.2575 *     1.7580 *  0.0000     1          
    61  Na    c      0.0000      -1.7580 *    -7.2575 *  0.0000     1          
    62  Cl    c      2.2539 *     7.2575 *    -0.4959 *  0.0000     2          
    63  Na    c      2.2539 *     0.4959 *    -7.2575 *  0.0000     2          
    64  O     c     -4.5078 *     0.4959 *     6.2658 *  0.0000     2          
    65  Na    c      0.0000       2.7498 *    -7.2575 *  0.0000     1          
    66  Na    c      0.0000       7.2575 *    -2.7498 *  0.0000     1          
    67  Na    c      2.2539 *    -4.0119 *     6.2658 *  0.0000     2          
    68  Cl    c      2.2539 *    -6.2658 *     4.0119 *  0.0000     2          
    69  Na    c     -4.5078 *     5.0036 *     4.0119 *  0.0000     2          
    70  Na    c     -4.5078 *    -4.0119 *    -5.0036 *  0.0000     2          
    71  Na    c     -4.5078 *    -1.7580 *     6.2658 *  0.0000     2          
    72  Na    c      4.5078 *    -6.2658 *     1.7580 *  0.0000     2          
    73  O     c      0.0000       5.0036 *     6.2658 *  0.0000     1          
    74  Cl    c      6.7617 *    -1.7580 *     4.0119 *  0.0000     2          
    75  Na    c      6.7617 *    -4.0119 *     1.7580 *  0.0000     2          
    76  Na    c      4.5078 *     2.7498 *     6.2658 *  0.0000     2          
    77  Na    c      4.5078 *    -6.2658 *    -2.7498 *  0.0000     2          
    78  O     c      0.0000      -4.0119 *    -7.2575 *  0.0000     1          
    79  Cl    c      2.2539 *    -6.2658 *    -5.0036 *  0.0000     2          
    80  Na    c      2.2539 *     5.0036 *     6.2658 *  0.0000     2          
    81  Cl    c      6.7617 *     2.7498 *     4.0119 *  0.0000     2          
    82  Na    c      6.7617 *    -4.0119 *    -2.7498 *  0.0000     2          
    83  Na    c     -4.5078 *     5.0036 *    -5.0036 *  0.0000     2          
    84  Na    c      0.0000       0.4959 *     8.5197 *  0.0000     1          
    85  Na    c      0.0000      -8.5197 *    -0.4959 *  0.0000     1          
    86  O     c      4.5078 *     0.4959 *    -7.2575 *  0.0000     2          
    87  Cl    c      2.2539 *     7.2575 *     4.0119 *  0.0000     2          
    88  Na    c      2.2539 *    -4.0119 *    -7.2575 *  0.0000     2          
    89  Cl    c      6.7617 *    -1.7580 *    -5.0036 *  0.0000     2          
    90  Na    c      6.7617 *     5.0036 *     1.7580 *  0.0000     2          
    91  O     c     -4.5078 *    -4.0119 *     6.2658 *  0.0000     2          
    92  O     c      0.0000      -8.5197 *     1.7580 *  0.0000     1          
    93  Na    c     -4.5078 *     7.2575 *     1.7580 *  0.0000     2          
    94  Na    c     -4.5078 *    -1.7580 *    -7.2575 *  0.0000     2          
    95  O     c      0.0000       5.0036 *    -7.2575 *  0.0000     1          
    96  Cl    c      6.7617 *     2.7498 *    -5.0036 *  0.0000     2          
    97  Na    c      6.7617 *     5.0036 *    -2.7498 *  0.0000     2          
    98  Na    c      0.0000      -6.2658 *     6.2658 *  0.0000     1          
    99  O     c      0.0000      -8.5197 *    -2.7498 *  0.0000     1          
   100  Na    c      4.5078 *     2.7498 *    -7.2575 *  0.0000     2          
   101  Na    c     -4.5078 *     7.2575 *    -2.7498 *  0.0000     2          
   102  Cl    c      2.2539 *    -1.7580 *     8.5197 *  0.0000     2          
   103  Na    c      2.2539 *    -8.5197 *     1.7580 *  0.0000     2          
   104  Na    c      9.0156 *     0.4959 *    -0.4959 *  0.0000     2          
   105  Cl    c      2.2539 *     7.2575 *    -5.0036 *  0.0000     2          
   106  Na    c      2.2539 *     5.0036 *    -7.2575 *  0.0000     2          
   107  O     c     -4.5078 *     5.0036 *     6.2658 *  0.0000     2          
   108  O     c      9.0156 *     0.4959 *     1.7580 *  0.0000     2          
   109  Na    c      6.7617 *     0.4959 *     6.2658 *  0.0000     2          
   110  Cl    c      2.2539 *     2.7498 *     8.5197 *  0.0000     2          
   111  Cl    c      6.7617 *    -6.2658 *    -0.4959 *  0.0000     2          
   112  Na    c      2.2539 *    -8.5197 *    -2.7498 *  0.0000     2          
   113  Na    c      9.0156 *    -1.7580 *     1.7580 *  0.0000     2          
   114  Na    c      0.0000      -4.0119 *     8.5197 *  0.0000     1          
   115  Na    c      0.0000      -8.5197 *     4.0119 *  0.0000     1          
   116  O     c     -4.5078 *    -4.0119 *    -7.2575 *  0.0000     2          
   117  O     c      9.0156 *     0.4959 *    -2.7498 *  0.0000     2          
   118  Na    c      0.0000       0.4959 *    -9.5114 *  0.0000     1          
   119  Na    c      0.0000       9.5114 *    -0.4959 *  0.0000     1          
   120  Na    c      0.0000       7.2575 *     6.2658 *  0.0000     1          
   121  Na    c      0.0000      -6.2658 *    -7.2575 *  0.0000     1          
   122  Na    c      9.0156 *     2.7498 *     1.7580 *  0.0000     2          
   123  Na    c      9.0156 *    -1.7580 *    -2.7498 *  0.0000     2          
   124  Na    c      4.5078 *     0.4959 *     8.5197 *  0.0000     2          
   125  Na    c     -4.5078 *    -8.5197 *    -0.4959 *  0.0000     2          
   126  O     c      0.0000       9.5114 *     1.7580 *  0.0000     1          
   127  O     c     -4.5078 *    -8.5197 *     1.7580 *  0.0000     2          
   128  Na    c      9.0156 *     2.7498 *    -2.7498 *  0.0000     2          
   129  Na    c      9.0156 *     0.4959 *     4.0119 *  0.0000     2          
   130  Na    c      9.0156 *    -4.0119 *    -0.4959 *  0.0000     2          
   131  Na    c      0.0000       5.0036 *     8.5197 *  0.0000     1          
   132  Na    c      0.0000      -8.5197 *    -5.0036 *  0.0000     1          
   133  O     c      0.0000       9.5114 *    -2.7498 *  0.0000     1          
   134  O     c     -4.5078 *     5.0036 *    -7.2575 *  0.0000     2          
   135  Cl    c      2.2539 *    -1.7580 *    -9.5114 *  0.0000     2          
   136  Na    c      2.2539 *     9.5114 *     1.7580 *  0.0000     2          
   137  Cl    c      6.7617 *     7.2575 *    -0.4959 *  0.0000     2          
   138  Na    c      6.7617 *     0.4959 *    -7.2575 *  0.0000     2          
   139  Na    c      4.5078 *    -6.2658 *     6.2658 *  0.0000     2          
   140  O     c      9.0156 *    -4.0119 *     1.7580 *  0.0000     2          
   141  O     c     -4.5078 *    -8.5197 *    -2.7498 *  0.0000     2          
   142  Na    c      6.7617 *    -4.0119 *     6.2658 *  0.0000     2          
   143  Cl    c      6.7617 *    -6.2658 *     4.0119 *  0.0000     2          
   144  Cl    c      2.2539 *     2.7498 *    -9.5114 *  0.0000     2          
   145  Na    c      2.2539 *     9.5114 *    -2.7498 *  0.0000     2          
   146  O     c      9.0156 *    -4.0119 *    -2.7498 *  0.0000     2          
   147  Na    c      0.0000       7.2575 *    -7.2575 *  0.0000     1          
   148  Na    c      0.0000       9.5114 *     4.0119 *  0.0000     1          
   149  Na    c      0.0000      -4.0119 *    -9.5114 *  0.0000     1          
   150  Na    c      9.0156 *     0.4959 *    -5.0036 *  0.0000     2          
   151  Na    c      9.0156 *     5.0036 *    -0.4959 *  0.0000     2          
   152  Na    c     -4.5078 *    -4.0119 *     8.5197 *  0.0000     2          
   153  Na    c     -4.5078 *    -8.5197 *     4.0119 *  0.0000     2          
   154  O     c      9.0156 *     5.0036 *     1.7580 *  0.0000     2          
   155  Na    c      6.7617 *     5.0036 *     6.2658 *  0.0000     2          
   156  Cl    c      6.7617 *    -6.2658 *    -5.0036 *  0.0000     2          
   157  Na    c     -4.5078 *     0.4959 *    -9.5114 *  0.0000     2          
   158  Na    c     -4.5078 *     9.5114 *    -0.4959 *  0.0000     2          
   159  O     c      0.0000      -8.5197 *     6.2658 *  0.0000     1          
   160  Na    c     -4.5078 *     7.2575 *     6.2658 *  0.0000     2          
   161  Na    c      4.5078 *    -6.2658 *    -7.2575 *  0.0000     2          
   162  Na    c      9.0156 *    -4.0119 *     4.0119 *  0.0000     2          
   163  O     c     -4.5078 *     9.5114 *     1.7580 *  0.0000     2          
   164  O     c      9.0156 *     5.0036 *    -2.7498 *  0.0000     2          
   165  Cl    c      6.7617 *     7.2575 *     4.0119 *  0.0000     2          
   166  Na    c      6.7617 *    -4.0119 *    -7.2575 *  0.0000     2          
   167  Na    c      0.0000       5.0036 *    -9.5114 *  0.0000     1          
   168  Na    c      0.0000       9.5114 *    -5.0036 *  0.0000     1          
   169  O     c      0.0000       0.4959 *    10.7736 *  0.0000     1          
   170  Cl    c      2.2539 *    -6.2658 *     8.5197 *  0.0000     2          
   171  Na    c      2.2539 *    -8.5197 *     6.2658 *  0.0000     2          
   172  Na    c     -4.5078 *     5.0036 *     8.5197 *  0.0000     2          
   173  Na    c     -4.5078 *    -8.5197 *    -5.0036 *  0.0000     2          
   174  O     c     -4.5078 *     9.5114 *    -2.7498 *  0.0000     2          
   175  Na    c      0.0000      -1.7580 *    10.7736 *  0.0000     1          
   176  Na    c      0.0000     -10.7736 *     1.7580 *  0.0000     1          
   177  O     c      9.0156 *     0.4959 *     6.2658 *  0.0000     2          
   178  Na    c      2.2539 *     0.4959 *    10.7736 *  0.0000     2          
   179  Cl    c      2.2539 *   -10.7736 *    -0.4959 *  0.0000     2          
   180  Cl    c      6.7617 *    -1.7580 *     8.5197 *  0.0000     2          
   181  Na    c      6.7617 *    -8.5197 *     1.7580 *  0.0000     2          
   182  Na    c      9.0156 *     5.0036 *     4.0119 *  0.0000     2          
   183  Na    c      9.0156 *    -4.0119 *    -5.0036 *  0.0000     2          
   184  Cl    c      6.7617 *     7.2575 *    -5.0036 *  0.0000     2          
   185  Na    c      6.7617 *     5.0036 *    -7.2575 *  0.0000     2          
   186  Na    c      0.0000       2.7498 *    10.7736 *  0.0000     1          
   187  Na    c      9.0156 *    -1.7580 *     6.2658 *  0.0000     2          
   188  Na    c      0.0000     -10.7736 *    -2.7498 *  0.0000     1          
   189  Na    c      9.0156 *    -6.2658 *     1.7580 *  0.0000     2          
   190  O     c      0.0000      -8.5197 *    -7.2575 *  0.0000     1          
   191  Na    c     -4.5078 *     7.2575 *    -7.2575 *  0.0000     2          
   192  Cl    c      6.7617 *     2.7498 *     8.5197 *  0.0000     2          
   193  Na    c      6.7617 *    -8.5197 *    -2.7498 *  0.0000     2          
   194  Na    c     -4.5078 *     9.5114 *     4.0119 *  0.0000     2          
   195  Na    c     -4.5078 *    -4.0119 *    -9.5114 *  0.0000     2          
   196  Na    c      9.0156 *     2.7498 *     6.2658 *  0.0000     2          
   197  Na    c      9.0156 *    -6.2658 *    -2.7498 *  0.0000     2          
   198  O     c      0.0000       9.5114 *     6.2658 *  0.0000     1          
   199  Cl    c     11.2695 *    -1.7580 *    -0.4959 *  0.0000     2          
   200  Na    c     11.2695 *     0.4959 *     1.7580 *  0.0000     2          
   201  Cl    c      2.2539 *     7.2575 *     8.5197 *  0.0000     2          
   202  Na    c      2.2539 *    -8.5197 *    -7.2575 *  0.0000     2          
   203  Na    c      9.0156 *     5.0036 *    -5.0036 *  0.0000     2          
   204  O     c      0.0000      -4.0119 *    10.7736 *  0.0000     1          
   205  O     c      4.5078 *    -8.5197 *     6.2658 *  0.0000     2          
   206  O     c      9.0156 *     0.4959 *    -7.2575 *  0.0000     2          
   207  Cl    c      2.2539 *    -6.2658 *    -9.5114 *  0.0000     2          
   208  Cl    c     11.2695 *     2.7498 *    -0.4959 *  0.0000     2          
   209  Na    c      2.2539 *     9.5114 *     6.2658 *  0.0000     2          
   210  Na    c     11.2695 *     0.4959 *    -2.7498 *  0.0000     2          
   211  Na    c      4.5078 *     5.0036 *    -9.5114 *  0.0000     2          
   212  Na    c      4.5078 *     9.5114 *    -5.0036 *  0.0000     2          
   213  O     c     -4.5078 *     0.4959 *    10.7736 *  0.0000     2          
   214  O     c      9.0156 *    -4.0119 *     6.2658 *  0.0000     2          
   215  Na    c      9.0156 *     7.2575 *     1.7580 *  0.0000     2          
   216  Na    c      9.0156 *    -1.7580 *    -7.2575 *  0.0000     2          
   217  Na    c      2.2539 *    -4.0119 *    10.7736 *  0.0000     2          
   218  Cl    c      2.2539 *   -10.7736 *     4.0119 *  0.0000     2          
   219  O     c      0.0000       0.4959 *   -11.7653 *  0.0000     1          
   220  Cl    c      6.7617 *    -1.7580 *    -9.5114 *  0.0000     2          
   221  Na    c      6.7617 *     9.5114 *     1.7580 *  0.0000     2          
   222  Na    c      4.5078 *    -1.7580 *    10.7736 *  0.0000     2          
   223  Na    c      4.5078 *   -10.7736 *     1.7580 *  0.0000     2          
   224  O     c      0.0000       5.0036 *    10.7736 *  0.0000     1          
   225  Na    c      9.0156 *     2.7498 *    -7.2575 *  0.0000     2          
   226  Na    c      9.0156 *     7.2575 *    -2.7498 *  0.0000     2          
   227  Na    c      0.0000      11.7653 *     1.7580 *  0.0000     1          
   228  Na    c      0.0000      -1.7580 *   -11.7653 *  0.0000     1          
   229  O     c      0.0000       9.5114 *    -7.2575 *  0.0000     1          
   230  Cl    c      6.7617 *     2.7498 *    -9.5114 *  0.0000     2          
   231  Na    c      6.7617 *     9.5114 *    -2.7498 *  0.0000     2          
   232  Cl    c      2.2539 *    11.7653 *    -0.4959 *  0.0000     2          
   233  Na    c      2.2539 *     0.4959 *   -11.7653 *  0.0000     2          
   234  Na    c      4.5078 *     2.7498 *    10.7736 *  0.0000     2          
   235  Na    c      4.5078 *   -10.7736 *    -2.7498 *  0.0000     2          
   236  O     s      0.0000       0.4959 *     1.7580 *  0.0000     1          
   237  O     s      0.0000       0.4959 *    -2.7498 *  0.0000     1          
   238  Cl    s      2.2539 *    -1.7580 *    -0.4959 *  0.0000     2          
   239  Cl    s      2.2539 *     2.7498 *    -0.4959 *  0.0000     2          
   240  O     s      0.0000      -4.0119 *     1.7580 *  0.0000     1          
   241  O     s      0.0000      -4.0119 *    -2.7498 *  0.0000     1          
   242  O     s     -4.5078 *     0.4959 *     1.7580 *  0.0000     2          
   243  Cl    s      2.2539 *    -1.7580 *     4.0119 *  0.0000     2          
   244  O     s      0.0000       5.0036 *     1.7580 *  0.0000     1          
   245  O     s     -4.5078 *     0.4959 *    -2.7498 *  0.0000     2          
   246  Cl    s      2.2539 *     2.7498 *     4.0119 *  0.0000     2          
   247  O     s      0.0000       5.0036 *    -2.7498 *  0.0000     1          
   248  Cl    s      2.2539 *    -1.7580 *    -5.0036 *  0.0000     2          
   249  Cl    s      2.2539 *     2.7498 *    -5.0036 *  0.0000     2          
   250  O     s      0.0000       0.4959 *     6.2658 *  0.0000     1          
   251  O     s     -4.5078 *    -4.0119 *     1.7580 *  0.0000     2          
   252  O     s     -4.5078 *    -4.0119 *    -2.7498 *  0.0000     2          
   253  Cl    s      2.2539 *    -6.2658 *    -0.4959 *  0.0000     2          
   254  O     s     -4.5078 *     5.0036 *     1.7580 *  0.0000     2          
   255  Cl    s      6.7617 *    -1.7580 *    -0.4959 *  0.0000     2          
   256  O     s      0.0000       0.4959 *    -7.2575 *  0.0000     1          
   257  O     s     -4.5078 *     5.0036 *    -2.7498 *  0.0000     2          
   258  Cl    s      6.7617 *     2.7498 *    -0.4959 *  0.0000     2          
   259  O     s      0.0000      -4.0119 *     6.2658 *  0.0000     1          
   260  Cl    s      2.2539 *     7.2575 *    -0.4959 *  0.0000     2          
   261  O     s     -4.5078 *     0.4959 *     6.2658 *  0.0000     2          
   262  Cl    s      2.2539 *    -6.2658 *     4.0119 *  0.0000     2          
   263  O     s      0.0000       5.0036 *     6.2658 *  0.0000     1          
   264  Cl    s      6.7617 *    -1.7580 *     4.0119 *  0.0000     2          
   265  O     s      0.0000      -4.0119 *    -7.2575 *  0.0000     1          
   266  Cl    s      2.2539 *    -6.2658 *    -5.0036 *  0.0000     2          
   267  Cl    s      6.7617 *     2.7498 *     4.0119 *  0.0000     2          
   268  O     s      4.5078 *     0.4959 *    -7.2575 *  0.0000     2          
   269  Cl    s      2.2539 *     7.2575 *     4.0119 *  0.0000     2          
   270  Cl    s      6.7617 *    -1.7580 *    -5.0036 *  0.0000     2          
   271  O     s     -4.5078 *    -4.0119 *     6.2658 *  0.0000     2          
   272  O     s      0.0000      -8.5197 *     1.7580 *  0.0000     1          
   273  O     s      0.0000       5.0036 *    -7.2575 *  0.0000     1          
   274  Cl    s      6.7617 *     2.7498 *    -5.0036 *  0.0000     2          
   275  O     s      0.0000      -8.5197 *    -2.7498 *  0.0000     1          
   276  Cl    s      2.2539 *    -1.7580 *     8.5197 *  0.0000     2          
   277  Cl    s      2.2539 *     7.2575 *    -5.0036 *  0.0000     2          
   278  O     s     -4.5078 *     5.0036 *     6.2658 *  0.0000     2          
   279  O     s      9.0156 *     0.4959 *     1.7580 *  0.0000     2          
   280  Cl    s      2.2539 *     2.7498 *     8.5197 *  0.0000     2          
   281  Cl    s      6.7617 *    -6.2658 *    -0.4959 *  0.0000     2          
   282  O     s     -4.5078 *    -4.0119 *    -7.2575 *  0.0000     2          
   283  O     s      9.0156 *     0.4959 *    -2.7498 *  0.0000     2          
   284  O     s      0.0000       9.5114 *     1.7580 *  0.0000     1          
   285  O     s     -4.5078 *    -8.5197 *     1.7580 *  0.0000     2          
   286  O     s      0.0000       9.5114 *    -2.7498 *  0.0000     1          
   287  O     s     -4.5078 *     5.0036 *    -7.2575 *  0.0000     2          
   288  Cl    s      2.2539 *    -1.7580 *    -9.5114 *  0.0000     2          
   289  Cl    s      6.7617 *     7.2575 *    -0.4959 *  0.0000     2          
   290  O     s      9.0156 *    -4.0119 *     1.7580 *  0.0000     2          
   291  O     s     -4.5078 *    -8.5197 *    -2.7498 *  0.0000     2          
   292  Cl    s      6.7617 *    -6.2658 *     4.0119 *  0.0000     2          
   293  Cl    s      2.2539 *     2.7498 *    -9.5114 *  0.0000     2          
   294  O     s      9.0156 *    -4.0119 *    -2.7498 *  0.0000     2          
   295  O     s      9.0156 *     5.0036 *     1.7580 *  0.0000     2          
   296  Cl    s      6.7617 *    -6.2658 *    -5.0036 *  0.0000     2          
   297  O     s      0.0000      -8.5197 *     6.2658 *  0.0000     1          
   298  O     s     -4.5078 *     9.5114 *     1.7580 *  0.0000     2          
   299  O     s      9.0156 *     5.0036 *    -2.7498 *  0.0000     2          
   300  Cl    s      6.7617 *     7.2575 *     4.0119 *  0.0000     2          
   301  O     s      0.0000       0.4959 *    10.7736 *  0.0000     1          
   302  Cl    s      2.2539 *    -6.2658 *     8.5197 *  0.0000     2          
   303  O     s     -4.5078 *     9.5114 *    -2.7498 *  0.0000     2          
   304  O     s      9.0156 *     0.4959 *     6.2658 *  0.0000     2          
   305  Cl    s      2.2539 *   -10.7736 *    -0.4959 *  0.0000     2          
   306  Cl    s      6.7617 *    -1.7580 *     8.5197 *  0.0000     2          
   307  Cl    s      6.7617 *     7.2575 *    -5.0036 *  0.0000     2          
   308  O     s      0.0000      -8.5197 *    -7.2575 *  0.0000     1          
   309  Cl    s      6.7617 *     2.7498 *     8.5197 *  0.0000     2          
   310  O     s      0.0000       9.5114 *     6.2658 *  0.0000     1          
   311  Cl    s     11.2695 *    -1.7580 *    -0.4959 *  0.0000     2          
   312  Cl    s      2.2539 *     7.2575 *     8.5197 *  0.0000     2          
   313  O     s      0.0000      -4.0119 *    10.7736 *  0.0000     1          
   314  O     s      4.5078 *    -8.5197 *     6.2658 *  0.0000     2          
   315  O     s      9.0156 *     0.4959 *    -7.2575 *  0.0000     2          
   316  Cl    s      2.2539 *    -6.2658 *    -9.5114 *  0.0000     2          
   317  Cl    s     11.2695 *     2.7498 *    -0.4959 *  0.0000     2          
   318  O     s     -4.5078 *     0.4959 *    10.7736 *  0.0000     2          
   319  O     s      9.0156 *    -4.0119 *     6.2658 *  0.0000     2          
   320  Cl    s      2.2539 *   -10.7736 *     4.0119 *  0.0000     2          
   321  O     s      0.0000       0.4959 *   -11.7653 *  0.0000     1          
   322  Cl    s      6.7617 *    -1.7580 *    -9.5114 *  0.0000     2          
   323  O     s      0.0000       5.0036 *    10.7736 *  0.0000     1          
   324  O     s      0.0000       9.5114 *    -7.2575 *  0.0000     1          
   325  Cl    s      6.7617 *     2.7498 *    -9.5114 *  0.0000     2          
   326  Cl    s      2.2539 *    11.7653 *    -0.4959 *  0.0000     2          
--------------------------------------------------------------------------------

  Components of defect energy : 

--------------------------------------------------------------------------------
  Region 1 - region 1                   =     -3.42138814 eV
  Region 1 - region 2a (unrelaxed)      =     12.24181030 eV
  Region 1 - 2a (relaxed - correction)  =     -0.28880746 eV
  Region 1 (Total)                      =      8.53161470 eV
  Region 2a                             =      0.14431842 eV
  Region 2b                             =     -0.43372545 eV
--------------------------------------------------------------------------------
  Total defect energy                   =      8.24220766 eV
--------------------------------------------------------------------------------

  Largest displacement in region 2 =   0.0254 Angstroms


  Number of variables =      887

  Maximum number of calculations  =        1000
  Maximum Hessian update interval =          10
  Maximum step size               =   1.0000000
  Maximum parameter tolerance     =   0.0000100
  Maximum function  tolerance     =   0.0000100
  Maximum gradient  tolerance     =   0.0010000

  Symmetry adapted optimisation

  Symmetry to be used for second derivatives

  Newton-Raphson optimiser to be used

  BFGS hessian update to be used

  Lower half triangular hessian to be used

  Start of defect optimisation :

  Cycle:      0 Defect Energy:   8.242208  Gnorm:     0.019378  CPU:    3.150
  ** Hessian calculated **
  Cycle:      1 Defect Energy:   7.328392  Gnorm:     0.016202  CPU:   10.133
  Cycle:      2 Defect Energy:   6.659124  Gnorm:     0.013133  CPU:   15.451
  ** Hessian calculated **
  Cycle:      3 Defect Energy:   5.657165  Gnorm:     0.005509  CPU:   20.462
  Cycle:      4 Defect Energy:   5.292018  Gnorm:     0.003822  CPU:   23.739
  Cycle:      5 Defect Energy:   5.213990  Gnorm:     0.002023  CPU:   26.182
  Cycle:      6 Defect Energy:   5.139676  Gnorm:     0.001502  CPU:   29.349
  Cycle:      7 Defect Energy:   5.071630  Gnorm:     0.001429  CPU:   30.503
  Cycle:      8 Defect Energy:   5.009647  Gnorm:     0.001289  CPU:   31.697
  Cycle:      9 Defect Energy:   4.957357  Gnorm:     0.001366  CPU:   32.881
  Cycle:     10 Defect Energy:   4.910577  Gnorm:     0.001432  CPU:   34.028
  Cycle:     11 Defect Energy:   4.862765  Gnorm:     0.001701  CPU:   35.239
  Cycle:     12 Defect Energy:   4.812603  Gnorm:     0.001765  CPU:   36.321
  ** Hessian calculated **
  Cycle:     13 Defect Energy:   4.792187  Gnorm:     0.001443  CPU:   39.251
  Cycle:     14 Defect Energy:   4.768057  Gnorm:     0.001365  CPU:   40.287
  Cycle:     15 Defect Energy:   4.739510  Gnorm:     0.001246  CPU:   41.319
  Cycle:     16 Defect Energy:   4.706401  Gnorm:     0.001195  CPU:   42.349
  Cycle:     17 Defect Energy:   4.676712  Gnorm:     0.001161  CPU:   43.378
  Cycle:     18 Defect Energy:   4.647788  Gnorm:     0.001240  CPU:   44.460
  Cycle:     19 Defect Energy:   4.620273  Gnorm:     0.001380  CPU:   45.478
  Cycle:     20 Defect Energy:   4.592775  Gnorm:     0.001365  CPU:   46.493
  Cycle:     21 Defect Energy:   4.566354  Gnorm:     0.001454  CPU:   47.503
  Cycle:     22 Defect Energy:   4.540124  Gnorm:     0.001497  CPU:   48.523
  ** Hessian calculated **
  Cycle:     23 Defect Energy:   4.510293  Gnorm:     0.001303  CPU:   51.202
  Cycle:     24 Defect Energy:   4.470402  Gnorm:     0.001069  CPU:   52.161
  Cycle:     25 Defect Energy:   4.437806  Gnorm:     0.000597  CPU:   53.125
  Cycle:     26 Defect Energy:   4.433225  Gnorm:     0.000447  CPU:   54.176
  ** Hessian calculated **
  Cycle:     27 Defect Energy:   4.431871  Gnorm:     0.000342  CPU:   56.620
  Cycle:     28 Defect Energy:   4.430472  Gnorm:     0.000313  CPU:   57.536
  Cycle:     29 Defect Energy:   4.428905  Gnorm:     0.000300  CPU:   58.534
  Cycle:     30 Defect Energy:   4.427042  Gnorm:     0.000296  CPU:   59.515
  Cycle:     31 Defect Energy:   4.425576  Gnorm:     0.000294  CPU:   63.833
  Cycle:     32 Defect Energy:   4.424131  Gnorm:     0.000300  CPU:   65.019
  Cycle:     33 Defect Energy:   4.422454  Gnorm:     0.000332  CPU:   66.165
  Cycle:     34 Defect Energy:   4.419883  Gnorm:     0.000341  CPU:   67.290
  Cycle:     35 Defect Energy:   4.416255  Gnorm:     0.000408  CPU:   68.417
  Cycle:     36 Defect Energy:   4.410172  Gnorm:     0.000490  CPU:   69.545
  ** Hessian calculated **
  Cycle:     37 Defect Energy:   4.407675  Gnorm:     0.000450  CPU:   72.486
  Cycle:     38 Defect Energy:   4.404280  Gnorm:     0.000435  CPU:   73.565
  Cycle:     39 Defect Energy:   4.399665  Gnorm:     0.000417  CPU:   74.730
  Cycle:     40 Defect Energy:   4.393420  Gnorm:     0.000408  CPU:   75.742
  Cycle:     41 Defect Energy:   4.385010  Gnorm:     0.000417  CPU:   76.769
  Cycle:     42 Defect Energy:   4.374014  Gnorm:     0.000472  CPU:   77.806
  Cycle:     43 Defect Energy:   4.360118  Gnorm:     0.000589  CPU:   78.979
  Cycle:     44 Defect Energy:   4.349506  Gnorm:     0.000701  CPU:   79.985
  Cycle:     45 Defect Energy:   4.341774  Gnorm:     0.000795  CPU:   81.009
  Cycle:     46 Defect Energy:   4.333938  Gnorm:     0.000843  CPU:   82.036
  ** Hessian calculated **
  Cycle:     47 Defect Energy:   4.312882  Gnorm:     0.000822  CPU:   84.674
  Cycle:     48 Defect Energy:   4.302607  Gnorm:     0.000800  CPU:   85.631
  ** Hessian calculated **
  Cycle:     49 Defect Energy:   4.277359  Gnorm:     0.000782  CPU:   88.233
  Cycle:     50 Defect Energy:   4.213505  Gnorm:     0.000708  CPU:   88.847
  Cycle:     51 Defect Energy:   4.190677  Gnorm:     0.000424  CPU:   89.703
  Cycle:     52 Defect Energy:   4.183472  Gnorm:     0.000248  CPU:   90.614
  Cycle:     53 Defect Energy:   4.180327  Gnorm:     0.000194  CPU:   91.455
  Cycle:     54 Defect Energy:   4.178364  Gnorm:     0.000114  CPU:   92.475
  Cycle:     55 Defect Energy:   4.177600  Gnorm:     0.000076  CPU:   93.198
  Cycle:     56 Defect Energy:   4.177159  Gnorm:     0.000055  CPU:   95.118
  Cycle:     57 Defect Energy:   4.176897  Gnorm:     0.000038  CPU:   98.453
  Cycle:     58 Defect Energy:   4.176728  Gnorm:     0.000030  CPU:   99.580
  ** Hessian calculated **
  Cycle:     59 Defect Energy:   4.176580  Gnorm:     0.000022  CPU:  102.599
  Cycle:     60 Defect Energy:   4.176498  Gnorm:     0.000016  CPU:  103.717
  Cycle:     61 Defect Energy:   4.176450  Gnorm:     0.000012  CPU:  104.828
  Cycle:     62 Defect Energy:   4.176422  Gnorm:     0.000009  CPU:  105.905
  Cycle:     63 Defect Energy:   4.176407  Gnorm:     0.000006  CPU:  107.019


  **** Optimisation achieved ****


  Final defect energy  =        4.17639821
  Final defect Gnorm   =        0.00000447

  Components of defect energy : 

--------------------------------------------------------------------------------
  Region 1 - region 1                   =     -6.43095011 eV
  Region 1 - region 2a (unrelaxed)      =     11.14817884 eV
  Region 1 - 2a (relaxed - correction)  =     -0.21986697 eV
  Region 1 (Total)                      =      4.49736176 eV
  Region 2a                             =      0.10989156 eV
  Region 2b                             =     -0.43085510 eV
--------------------------------------------------------------------------------
  Total defect energy                   =      4.17639821 eV
--------------------------------------------------------------------------------

  Largest displacement in region 2 =   0.0263 Angstroms

  Final coordinates of region 1 :

--------------------------------------------------------------------------------
   No.  Atomic        x           y           z          Radius      Charge
        Label       (Angs)      (Angs)      (Angs)       (Angs)       (e) 
--------------------------------------------------------------------------------
     1  Na    c     2.253894    1.758037    0.066973    0.000000    1.000000
     2  O     c     2.253894    2.340180    2.215430    0.000000    0.183000
     3  O     c     2.253894    2.229064   -2.220584    0.000000    0.183000
     4  Na    c     4.431725    1.878353    2.253143    0.000000    1.000000
     5  Na    c     0.076062    1.878353    2.253143    0.000000    1.000000
     6  Cl    c     4.635456    0.000541   -0.088284    0.000000    1.485000
     7  Cl    c    -0.127669    0.000541   -0.088284    0.000000    1.485000
     8  Na    c     2.253894    4.522063    2.045136    0.000000    1.000000
     9  Na    c     2.253894    0.006094   -2.667294    0.000000    1.000000
    10  Cl    c     4.580398    4.617121   -0.063895    0.000000    1.485000
    11  Cl    c    -0.072611    4.617121   -0.063895    0.000000    1.485000
    12  Na    c     4.509474    2.180023   -2.223368    0.000000    1.000000
    13  Na    c    -0.001687    2.180023   -2.223368    0.000000    1.000000
    14  Na    c     2.253894    4.473989   -1.776197    0.000000    1.000000
    15  Na    c     2.253894    1.963338    4.409324    0.000000    1.000000
    16  Na    c     2.253894   -1.815948    0.071415    0.000000    1.000000
    17  O     c     2.253894   -2.319053    2.238271    0.000000    0.183000
    18  Na    c    -2.155206    2.636924    0.002049    0.000000    1.000000
    19  Na    c     6.662993    2.636924    0.002049    0.000000    1.000000
    20  O     c     2.253894   -2.218531   -2.224086    0.000000    0.183000
    21  O     c    -2.220763    2.236419    2.244322    0.000000    0.183000
    22  O     c     6.728550    2.236419    2.244322    0.000000    0.183000
    23  Cl    c     4.603852    0.006390    4.639957    0.000000    1.485000
    24  Cl    c    -0.096064    0.006390    4.639957    0.000000    1.485000
    25  Na    c     4.435935   -1.872804    2.258132    0.000000    1.000000
    26  Na    c     0.071852   -1.872804    2.258132    0.000000    1.000000
    27  Na    c     2.253894    2.659261   -4.468859    0.000000    1.000000
    28  Na    c     2.253894    7.126438   -0.016093    0.000000    1.000000
    29  Na    c    -2.478408    0.008039    1.857819    0.000000    1.000000
    30  Na    c     6.986195    0.008039    1.857819    0.000000    1.000000
    31  O     c     2.253894    6.811529    2.219803    0.000000    0.183000
    32  O     c    -2.261990    2.262405   -2.252651    0.000000    0.183000
    33  O     c     6.769777    2.262405   -2.252651    0.000000    0.183000
    34  Cl    c     4.524382    4.634142    4.634283    0.000000    1.485000
    35  Cl    c    -0.016595    4.634142    4.634283    0.000000    1.485000
    36  Na    c     4.510165   -2.148415   -2.224606    0.000000    1.000000
    37  Na    c    -0.002378   -2.148415   -2.224606    0.000000    1.000000
    38  Na    c    -1.955434    4.470684    2.600613    0.000000    1.000000
    39  Na    c     6.463221    4.470684    2.600613    0.000000    1.000000
    40  Na    c    -2.354796    0.008556   -1.880019    0.000000    1.000000
    41  Na    c     6.862583    0.008556   -1.880019    0.000000    1.000000
    42  Na    c     2.253894   -1.840439    4.409951    0.000000    1.000000
    43  O     c     2.253894    6.737537   -2.245512    0.000000    0.183000
    44  Cl    c     4.517647    0.001314   -4.519694    0.000000    1.485000
    45  Cl    c    -0.009860    0.001314   -4.519694    0.000000    1.485000
    46  Na    c     4.504759    6.841891    2.141968    0.000000    1.000000
    47  Na    c     0.003028    6.841891    2.141968    0.000000    1.000000
    48  Na    c    -2.182187    4.501388   -2.634678    0.000000    1.000000
    49  Na    c     6.689974    4.501388   -2.634678    0.000000    1.000000
    50  Na    c    -2.309828    1.878144    4.493982    0.000000    1.000000
    51  Na    c     6.817615    1.878144    4.493982    0.000000    1.000000
    52  Na    c    -2.146229   -2.617703    0.004753    0.000000    1.000000
    53  Na    c     6.654016   -2.617703    0.004753    0.000000    1.000000
    54  Cl    c     4.510246    4.507362   -4.549971    0.000000    1.485000
    55  Cl    c    -0.002459    4.507362   -4.549971    0.000000    1.485000
    56  Na    c     4.513208    6.702792   -2.191268    0.000000    1.000000
    57  Na    c    -0.005420    6.702792   -2.191268    0.000000    1.000000
    58  O     c     2.253894    2.238585    6.719687    0.000000    0.183000
    59  O     c    -2.222534   -2.220078    2.242668    0.000000    0.183000
    60  O     c     6.730321   -2.220078    2.242668    0.000000    0.183000
    61  Na    c     2.253894    6.601065    4.475736    0.000000    1.000000
    62  Na    c     2.253894   -2.654935   -4.460511    0.000000    1.000000
    63  Na    c     2.253894   -0.000276    7.006649    0.000000    1.000000
    64  Na    c     2.253894   -4.502567    2.194795    0.000000    1.000000
    65  O     c    -2.260031   -2.244547   -2.246920    0.000000    0.183000
    66  O     c     6.767818   -2.244547   -2.246920    0.000000    0.183000
    67  Na    c     4.508820    2.282466    6.631229    0.000000    1.000000
    68  Na    c    -0.001032    2.282466    6.631229    0.000000    1.000000
    69  Cl    c     4.578939   -4.614149   -0.072675    0.000000    1.485000
    70  Cl    c    -0.071152   -4.614149   -0.072675    0.000000    1.485000
    71  Na    c    -2.289665    1.877765   -4.492540    0.000000    1.000000
    72  Na    c     6.797453    1.877765   -4.492540    0.000000    1.000000
    73  Na    c    -2.309045    6.395067   -0.006599    0.000000    1.000000
    74  Na    c     6.816832    6.395067   -0.006599    0.000000    1.000000
    75  Na    c     2.253894    4.482070    6.583734    0.000000    1.000000
    76  Na    c     2.253894   -4.465747   -1.826071    0.000000    1.000000
    77  O     c    -2.246907    6.721736    2.249833    0.000000    0.183000
    78  O     c     6.754695    6.721736    2.249833    0.000000    0.183000
    79  Cl    c     9.119473   -0.009488   -0.038024    0.000000    1.485000
    80  Cl    c    -4.611686   -0.009488   -0.038024    0.000000    1.485000
    81  Na    c     8.988229    2.503344    2.235592    0.000000    1.000000
    82  Na    c    -4.480442    2.503344    2.235592    0.000000    1.000000
    83  Na    c     2.253894    6.395253   -4.492743    0.000000    1.000000
    84  Na    c    -2.303848   -1.903184    4.498930    0.000000    1.000000
    85  Na    c     6.811635   -1.903184    4.498930    0.000000    1.000000
    86  O     c     2.253894    2.260759   -6.729197    0.000000    0.183000
    87  O     c    -2.267321    6.748778   -2.265839    0.000000    0.183000
    88  O     c     6.775108    6.748778   -2.265839    0.000000    0.183000
    89  Cl    c     9.065924    4.494558   -0.019234    0.000000    1.485000
    90  Cl    c    -4.558137    4.494558   -0.019234    0.000000    1.485000
    91  Na    c     9.015986    2.373216   -2.203866    0.000000    1.000000
    92  Na    c    -4.508198    2.373216   -2.203866    0.000000    1.000000
    93  O     c     2.253894   -2.239472    6.703675    0.000000    0.183000
    94  Na    c     2.253894    9.035109    2.561427    0.000000    1.000000
    95  Na    c     2.253894    0.002023   -6.428998    0.000000    1.000000
    96  Cl    c     4.527060    9.046527   -0.004621    0.000000    1.485000
    97  Cl    c    -0.019273    9.046527   -0.004621    0.000000    1.485000
    98  Na    c     4.510843    2.234129   -6.677933    0.000000    1.000000
    99  Na    c    -0.003056    2.234129   -6.677933    0.000000    1.000000
   100  O     c    -2.258440    2.254866    6.748100    0.000000    0.183000
   101  O     c     6.766228    2.254866    6.748100    0.000000    0.183000
   102  Na    c     2.253894    4.487833   -7.096367    0.000000    1.000000
   103  Na    c     2.253894    8.980466   -2.592306    0.000000    1.000000
   104  Na    c     4.506423   -2.294514    6.623643    0.000000    1.000000
   105  Na    c     0.001364   -2.294514    6.623643    0.000000    1.000000
   106  Cl    c     4.562294   -4.659931    4.623119    0.000000    1.485000
   107  Cl    c    -0.054506   -4.659931    4.623119    0.000000    1.485000
   108  Na    c    -2.181285    7.048233    4.493730    0.000000    1.000000
   109  Na    c     6.689072    7.048233    4.493730    0.000000    1.000000
   110  Na    c    -2.294059   -1.923584   -4.497462    0.000000    1.000000
   111  Na    c     6.801846   -1.923584   -4.497462    0.000000    1.000000
   112  Na    c    -2.154793    0.007348    7.077866    0.000000    1.000000
   113  Na    c     6.662581    0.007348    7.077866    0.000000    1.000000
   114  Na    c     6.520846   -4.462375    2.566873    0.000000    1.000000
   115  Na    c    -2.013058   -4.462375    2.566873    0.000000    1.000000
   116  O     c     2.253894    6.744566    6.746389    0.000000    0.183000
   117  Cl    c     9.072678   -0.004695    4.513399    0.000000    1.485000
   118  Cl    c    -4.564891   -0.004695    4.513399    0.000000    1.485000
   119  Na    c     8.987216   -2.465046    2.228784    0.000000    1.000000
   120  Na    c    -4.479429   -2.465046    2.228784    0.000000    1.000000
   121  Na    c     6.795773    4.510669    6.440448    0.000000    1.000000
   122  Na    c    -2.287986    4.510669    6.440448    0.000000    1.000000
   123  Na    c     6.697700   -4.487015   -2.570613    0.000000    1.000000
   124  Na    c    -2.189913   -4.487015   -2.570613    0.000000    1.000000
   125  O     c     2.253894   -2.255373   -6.712341    0.000000    0.183000
   126  Cl    c     4.524762   -4.522929   -4.568100    0.000000    1.485000
   127  Cl    c    -0.016975   -4.522929   -4.568100    0.000000    1.485000
   128  Na    c     4.510308    6.690295    6.757883    0.000000    1.000000
   129  Na    c    -0.002520    6.690295    6.757883    0.000000    1.000000
   130  Cl    c     9.061089    4.491228    4.495184    0.000000    1.485000
   131  Cl    c    -4.553302    4.491228    4.495184    0.000000    1.485000
   132  Na    c     9.012082   -2.336867   -2.184369    0.000000    1.000000
   133  Na    c    -4.504295   -2.336867   -2.184369    0.000000    1.000000
   134  Na    c    -2.261745    7.113632   -4.491770    0.000000    1.000000
   135  Na    c     6.769532    7.113632   -4.491770    0.000000    1.000000
   136  Na    c     2.253894    2.408472    8.987470    0.000000    1.000000
   137  Na    c     2.253894   -6.975281   -0.001047    0.000000    1.000000
   138  O     c     6.768022    2.242323   -6.744564    0.000000    0.183000
   139  O     c    -2.260235    2.242323   -6.744564    0.000000    0.183000
   140  Cl    c     4.494471    9.061993    4.492346    0.000000    1.485000
   141  Cl    c     0.013316    9.061993    4.492346    0.000000    1.485000
   142  Na    c     4.509280   -2.215920   -6.669254    0.000000    1.000000
   143  Na    c    -0.001493   -2.215920   -6.669254    0.000000    1.000000
   144  Cl    c     9.065227    0.001927   -4.538573    0.000000    1.485000
   145  Cl    c    -4.557439    0.001927   -4.538573    0.000000    1.485000
   146  Na    c     9.004141    6.534163    2.318452    0.000000    1.000000
   147  Na    c    -4.496354    6.534163    2.318452    0.000000    1.000000
   148  O     c    -2.254682   -2.239644    6.756667    0.000000    0.183000
   149  O     c     6.762469   -2.239644    6.756667    0.000000    0.183000
   150  O     c     2.253894   -6.793355    2.234299    0.000000    0.183000
   151  Na    c    -2.365827    8.982362    1.999335    0.000000    1.000000
   152  Na    c     6.873614    8.982362    1.999335    0.000000    1.000000
   153  Na    c    -2.290559    0.008215   -7.091407    0.000000    1.000000
   154  Na    c     6.798346    0.008215   -7.091407    0.000000    1.000000
   155  O     c     2.253894    6.725002   -6.759634    0.000000    0.183000
   156  Cl    c     9.059640    4.512170   -4.523862    0.000000    1.485000
   157  Cl    c    -4.551853    4.512170   -4.523862    0.000000    1.485000
   158  Na    c     9.021131    6.677614   -2.270935    0.000000    1.000000
   159  Na    c    -4.513344    6.677614   -2.270935    0.000000    1.000000
   160  Na    c     2.253894   -4.490660    6.500784    0.000000    1.000000
   161  O     c     2.253894   -6.731431   -2.231773    0.000000    0.183000
   162  Na    c     6.739828    4.504748   -6.463878    0.000000    1.000000
   163  Na    c    -2.232041    4.504748   -6.463878    0.000000    1.000000
   164  Na    c    -2.273166    8.994509   -1.953577    0.000000    1.000000
   165  Na    c     6.780953    8.994509   -1.953577    0.000000    1.000000
   166  Cl    c     4.503004    0.009753    9.058584    0.000000    1.485000
   167  Cl    c     0.004783    0.009753    9.058584    0.000000    1.485000
   168  Na    c     4.499845   -6.786106    2.170654    0.000000    1.000000
   169  Na    c     0.007942   -6.786106    2.170654    0.000000    1.000000
   170  Na    c    11.253628    2.249112    0.004794    0.000000    1.000000
   171  Na    c    -6.745841    2.249112    0.004794    0.000000    1.000000
   172  Cl    c     4.498886    9.056029   -4.548444    0.000000    1.485000
   173  Cl    c     0.008901    9.056029   -4.548444    0.000000    1.485000
   174  Na    c     4.504736    6.740993   -6.702842    0.000000    1.000000
   175  Na    c     0.003051    6.740993   -6.702842    0.000000    1.000000
   176  O     c    -2.262575    6.772100    6.745148    0.000000    0.183000
   177  O     c     6.770362    6.772100    6.745148    0.000000    0.183000
   178  O     c    11.252413    2.249346    2.255619    0.000000    0.183000
   179  O     c    -6.744626    2.249346    2.255619    0.000000    0.183000
   180  Na    c     9.010589    2.210435    6.805545    0.000000    1.000000
   181  Na    c    -4.502801    2.210435    6.805545    0.000000    1.000000
   182  Cl    c     4.501905    4.533935    9.078432    0.000000    1.485000
   183  Cl    c     0.005883    4.533935    9.078432    0.000000    1.485000
   184  Cl    c     9.074124   -4.489721   -0.014663    0.000000    1.485000
   185  Cl    c    -4.566337   -4.489721   -0.014663    0.000000    1.485000
   186  Na    c     4.509130   -6.696218   -2.211728    0.000000    1.000000
   187  Na    c    -0.001342   -6.696218   -2.211728    0.000000    1.000000
   188  Na    c    11.075005   -0.009591    2.269734    0.000000    1.000000
   189  Na    c    -6.567218   -0.009591    2.269734    0.000000    1.000000
   190  Na    c     2.253894   -2.438138    8.976191    0.000000    1.000000
   191  Na    c     2.253894   -6.774035    4.495194    0.000000    1.000000
   192  O     c    -2.256080   -2.226185   -6.758301    0.000000    0.183000
   193  O     c     6.763867   -2.226185   -6.758301    0.000000    0.183000
   194  O     c    11.273388    2.250724   -2.252606    0.000000    0.183000
   195  O     c    -6.765601    2.250724   -2.252606    0.000000    0.183000
   196  Na    c     2.253894    1.997979   -8.990630    0.000000    1.000000
   197  Na    c     2.253894   11.040615   -0.014441    0.000000    1.000000
   198  Na    c     2.253894    9.004869    6.675319    0.000000    1.000000
   199  Na    c     2.253894   -4.488842   -6.983446    0.000000    1.000000
   200  Na    c    11.441107    4.488045    2.313134    0.000000    1.000000
   201  Na    c    -6.933319    4.488045    2.313134    0.000000    1.000000
   202  Na    c    11.173500   -0.004249   -2.252559    0.000000    1.000000
   203  Na    c    -6.665712   -0.004249   -2.252559    0.000000    1.000000
   204  Na    c     6.713850    2.524259    8.997815    0.000000    1.000000
   205  Na    c    -2.206062    2.524259    8.997815    0.000000    1.000000
   206  Na    c    -2.292177   -6.484785   -0.005241    0.000000    1.000000
   207  Na    c     6.799964   -6.484785   -0.005241    0.000000    1.000000
   208  O     c     2.253894   11.263137    2.245930    0.000000    0.183000
   209  O     c    -2.236839   -6.720442    2.257858    0.000000    0.183000
   210  O     c     6.744626   -6.720442    2.257858    0.000000    0.183000
   211  Na    c    11.362309    4.499059   -2.303586    0.000000    1.000000
   212  Na    c    -6.854522    4.499059   -2.303586    0.000000    1.000000
   213  Na    c    11.220386    2.205479    4.510626    0.000000    1.000000
   214  Na    c    -6.712599    2.205479    4.510626    0.000000    1.000000
   215  Na    c    11.275499   -2.226811    0.003847    0.000000    1.000000
   216  Na    c    -6.767712   -2.226811    0.003847    0.000000    1.000000
   217  Na    c     2.253894    6.714571    9.002281    0.000000    1.000000
   218  Na    c     2.253894   -6.561397   -4.495027    0.000000    1.000000
   219  O     c     2.253894   11.245662   -2.276783    0.000000    0.183000
   220  O     c    -2.251976    6.768489   -6.731552    0.000000    0.183000
   221  O     c     6.759763    6.768489   -6.731552    0.000000    0.183000
   222  Cl    c     4.495185   -0.003219   -9.043694    0.000000    1.485000
   223  Cl    c     0.012602   -0.003219   -9.043694    0.000000    1.485000
   224  Na    c     4.519401   11.202873    2.248371    0.000000    1.000000
   225  Na    c    -0.011614   11.202873    2.248371    0.000000    1.000000
   226  Cl    c     9.041363    9.060846   -0.024416    0.000000    1.485000
   227  Cl    c    -4.533576    9.060846   -0.024416    0.000000    1.485000
   228  Na    c     9.017914    2.293482   -6.739712    0.000000    1.000000
   229  Na    c    -4.510127    2.293482   -6.739712    0.000000    1.000000
   230  Na    c     6.800870   -4.504699    6.550950    0.000000    1.000000
   231  Na    c    -2.293083   -4.504699    6.550950    0.000000    1.000000
   232  O     c    11.255080   -2.266616    2.251795    0.000000    0.183000
   233  O     c    -6.747292   -2.266616    2.251795    0.000000    0.183000
   234  O     c    -2.260412   -6.737824   -2.273505    0.000000    0.183000
[...]
    246 y          4.507787      4.647248     0.139461    Cartesian    3.09
    246 z          4.507787      4.647994     0.140206    Cartesian    3.11
    247 x          2.253894      2.253894     0.000000    Cartesian    0.00
    247 y          6.761681      6.737587    -0.024094    Cartesian   -0.36
    247 z         -2.253894     -2.245473     0.008421    Cartesian   -0.37
    248 x          4.507787      4.515368     0.007581    Cartesian    0.17
    248 y          0.000000      0.001626     0.001626    Cartesian    0.00
    248 z         -4.507787     -4.520830    -0.013042    Cartesian    0.29
    249 x          4.507787      4.510809     0.003021    Cartesian    0.07
    249 y          4.507787      4.507672    -0.000115    Cartesian   -0.00
    249 z         -4.507787     -4.553421    -0.045634    Cartesian    1.01
    250 x          2.253894      2.253894     0.000000    Cartesian    0.00
    250 y          2.253894      2.238607    -0.015287    Cartesian   -0.68
    250 z          6.761681      6.719742    -0.041939    Cartesian   -0.62
    251 x         -2.253894     -2.222600     0.031293    Cartesian   -1.39
    251 y         -2.253894     -2.220088     0.033806    Cartesian   -1.50
    251 z          2.253894      2.242653    -0.011240    Cartesian   -0.50
    252 x         -2.253894     -2.260038    -0.006144    Cartesian    0.27
    252 y         -2.253894     -2.244576     0.009318    Cartesian   -0.41
    252 z         -2.253894     -2.246917     0.006977    Cartesian   -0.31
    253 x          4.507787      4.592086     0.084299    Cartesian    1.87
    253 y         -4.507787     -4.624557    -0.116770    Cartesian    2.59
    253 z          0.000000     -0.085532    -0.085532    Cartesian    0.00
    254 x         -2.253894     -2.246878     0.007016    Cartesian   -0.31
    254 y          6.761681      6.721754    -0.039927    Cartesian   -0.59
    254 z          2.253894      2.249853    -0.004040    Cartesian   -0.18
    255 x          9.015574      9.115076     0.099501    Cartesian    1.10
    255 y          0.000000     -0.011007    -0.011007    Cartesian    0.00
    255 z          0.000000     -0.038406    -0.038406    Cartesian    0.00
    256 x          2.253894      2.253894     0.000000    Cartesian    0.00
    256 y          2.253894      2.260793     0.006899    Cartesian    0.31
    256 z         -6.761681     -6.729219     0.032461    Cartesian   -0.48
    257 x         -2.253894     -2.267335    -0.013442    Cartesian    0.60
    257 y          6.761681      6.748782    -0.012899    Cartesian   -0.19
    257 z         -2.253894     -2.265872    -0.011979    Cartesian    0.53
    258 x          9.015574      9.060634     0.045059    Cartesian    0.50
    258 y          4.507787      4.494069    -0.013719    Cartesian   -0.30
    258 z          0.000000     -0.018099    -0.018099    Cartesian    0.00
    259 x          2.253894      2.253894     0.000000    Cartesian    0.00
    259 y         -2.253894     -2.239471     0.014422    Cartesian   -0.64
    259 z          6.761681      6.703719    -0.057962    Cartesian   -0.86
    260 x          4.507787      4.525940     0.018152    Cartesian    0.40
    260 y          9.015574      9.046690     0.031115    Cartesian    0.35
    260 z          0.000000     -0.004784    -0.004784    Cartesian    0.00
    261 x         -2.253894     -2.258447    -0.004554    Cartesian    0.20
    261 y          2.253894      2.254847     0.000953    Cartesian    0.04
    261 z          6.761681      6.748120    -0.013560    Cartesian   -0.20
    262 x          4.507787      4.577457     0.069669    Cartesian    1.55
    262 y         -4.507787     -4.674059    -0.166272    Cartesian    3.69
    262 z          4.507787      4.635275     0.127488    Cartesian    2.83
    263 x          2.253894      2.253894     0.000000    Cartesian    0.00
    263 y          6.761681      6.744528    -0.017153    Cartesian   -0.25
    263 z          6.761681      6.746378    -0.015303    Cartesian   -0.23
    264 x          9.015574      9.070949     0.055375    Cartesian    0.61
    264 y          0.000000     -0.003848    -0.003848    Cartesian    0.00
    264 z          4.507787      4.513000     0.005213    Cartesian    0.12
    265 x          2.253894      2.253894     0.000000    Cartesian    0.00
    265 y         -2.253894     -2.255424    -0.001531    Cartesian    0.07
    265 z         -6.761681     -6.712336     0.049345    Cartesian   -0.73
    266 x          4.507787      4.526184     0.018397    Cartesian    0.41
    266 y         -4.507787     -4.523028    -0.015241    Cartesian    0.34
    266 z         -4.507787     -4.572259    -0.064472    Cartesian    1.43
    267 x          9.015574      9.061909     0.046335    Cartesian    0.51
    267 y          4.507787      4.491844    -0.015944    Cartesian   -0.35
    267 z          4.507787      4.491233    -0.016554    Cartesian   -0.37
    268 x          6.761681      6.768035     0.006354    Cartesian    0.09
    268 y          2.253894      2.242287    -0.011607    Cartesian   -0.51
    268 z         -6.761681     -6.744587     0.017094    Cartesian   -0.25
    269 x          4.507787      4.493270    -0.014517    Cartesian   -0.32
    269 y          9.015574      9.064151     0.048577    Cartesian    0.54
    269 z          4.507787      4.487249    -0.020539    Cartesian   -0.46
    270 x          9.015574      9.061932     0.046358    Cartesian    0.51
    270 y          0.000000      0.003232     0.003232    Cartesian    0.00
    270 z         -4.507787     -4.541996    -0.034208    Cartesian    0.76
    271 x         -2.253894     -2.254682    -0.000789    Cartesian    0.03
    271 y         -2.253894     -2.239633     0.014260    Cartesian   -0.63
    271 z          6.761681      6.756700    -0.004980    Cartesian   -0.07
    272 x          2.253894      2.253894     0.000000    Cartesian    0.00
    272 y         -6.761681     -6.793438    -0.031757    Cartesian    0.47
    272 z          2.253894      2.234268    -0.019626    Cartesian   -0.87
    273 x          2.253894      2.253894     0.000000    Cartesian    0.00
    273 y          6.761681      6.724971    -0.036710    Cartesian   -0.54
    273 z         -6.761681     -6.759687     0.001994    Cartesian   -0.03
    274 x          9.015574      9.057639     0.042064    Cartesian    0.47
    274 y          4.507787      4.512922     0.005135    Cartesian    0.11
    274 z         -4.507787     -4.525370    -0.017582    Cartesian    0.39
    275 x          2.253894      2.253894     0.000000    Cartesian    0.00
    275 y         -6.761681     -6.731478     0.030203    Cartesian   -0.45
    275 z         -2.253894     -2.231701     0.022193    Cartesian   -0.98
    276 x          4.507787      4.506313    -0.001474    Cartesian   -0.03
    276 y          0.000000      0.010816     0.010816    Cartesian    0.00
    276 z          9.015574      9.059481     0.043907    Cartesian    0.49
    277 x          4.507787      4.496866    -0.010921    Cartesian   -0.24
    277 y          9.015574      9.058261     0.042687    Cartesian    0.47
    277 z         -4.507787     -4.550944    -0.043156    Cartesian    0.96
    278 x         -2.253894     -2.262585    -0.008691    Cartesian    0.39
    278 y          6.761681      6.772143     0.010462    Cartesian    0.15
    278 z          6.761681      6.745146    -0.016535    Cartesian   -0.24
    279 x         11.269468     11.252434    -0.017034    Cartesian   -0.15
    279 y          2.253894      2.249381    -0.004513    Cartesian   -0.20
    279 z          2.253894      2.255622     0.001729    Cartesian    0.08
    280 x          4.507787      4.505386    -0.002401    Cartesian   -0.05
    280 y          4.507787      4.534183     0.026395    Cartesian    0.59
    280 z          9.015574      9.085589     0.070015    Cartesian    0.78
    281 x          9.015574      9.074138     0.058564    Cartesian    0.65
    281 y         -4.507787     -4.485333     0.022455    Cartesian   -0.50
    281 z          0.000000     -0.014650    -0.014650    Cartesian    0.00
    282 x         -2.253894     -2.256091    -0.002198    Cartesian    0.10
    282 y         -2.253894     -2.226158     0.027735    Cartesian   -1.23
    282 z         -6.761681     -6.758341     0.003340    Cartesian   -0.05
    283 x         11.269468     11.273396     0.003928    Cartesian    0.03
    283 y          2.253894      2.250731    -0.003163    Cartesian   -0.14
    283 z         -2.253894     -2.252611     0.001283    Cartesian   -0.06
    284 x          2.253894      2.253894     0.000000    Cartesian    0.00
    284 y         11.269468     11.263113    -0.006355    Cartesian   -0.06
    284 z          2.253894      2.245982    -0.007912    Cartesian   -0.35
    285 x         -2.253894     -2.236799     0.017095    Cartesian   -0.76
    285 y         -6.761681     -6.720464     0.041217    Cartesian   -0.61
    285 z          2.253894      2.257901     0.004008    Cartesian    0.18
    286 x          2.253894      2.253894     0.000000    Cartesian    0.00
    286 y         11.269468     11.245661    -0.023807    Cartesian   -0.21
    286 z         -2.253894     -2.276851    -0.022957    Cartesian    1.02
    287 x         -2.253894     -2.251976     0.001918    Cartesian   -0.09
    287 y          6.761681      6.768543     0.006862    Cartesian    0.10
    287 z         -6.761681     -6.731542     0.030139    Cartesian   -0.45
    288 x          4.507787      4.491808    -0.015979    Cartesian   -0.35
    288 y          0.000000     -0.002019    -0.002019    Cartesian    0.00
    288 z         -9.015574     -9.045423    -0.029849    Cartesian    0.33
    289 x          9.015574      9.036327     0.020753    Cartesian    0.23
    289 y          9.015574      9.068088     0.052513    Cartesian    0.58
    289 z          0.000000     -0.026794    -0.026794    Cartesian    0.00
    290 x         11.269468     11.255072    -0.014396    Cartesian   -0.13
    290 y         -2.253894     -2.266660    -0.012767    Cartesian    0.57
    290 z          2.253894      2.251785    -0.002109    Cartesian   -0.09
    291 x         -2.253894     -2.260418    -0.006524    Cartesian    0.29
    291 y         -6.761681     -6.737827     0.023853    Cartesian   -0.35
    291 z         -2.253894     -2.273562    -0.019668    Cartesian    0.87
    292 x          9.015574      9.058472     0.042897    Cartesian    0.48
    292 y         -4.507787     -4.502315     0.005472    Cartesian   -0.12
    292 z          4.507787      4.479550    -0.028237    Cartesian   -0.63
    293 x          4.507787      4.549958     0.042170    Cartesian    0.94
    293 y          4.507787      4.515201     0.007414    Cartesian    0.16
    293 z         -9.015574     -9.061373    -0.045798    Cartesian    0.51
    294 x         11.269468     11.270530     0.001062    Cartesian    0.01
    294 y         -2.253894     -2.257854    -0.003960    Cartesian    0.18
    294 z         -2.253894     -2.251254     0.002639    Cartesian   -0.12
    295 x         11.269468     11.267319    -0.002149    Cartesian   -0.02
    295 y          6.761681      6.734078    -0.027603    Cartesian   -0.41
    295 z          2.253894      2.259204     0.005310    Cartesian    0.24
    296 x          9.015574      9.035147     0.019573    Cartesian    0.22
    296 y         -4.507787     -4.522005    -0.014218    Cartesian    0.32
    296 z         -4.507787     -4.527082    -0.019295    Cartesian    0.43
    297 x          2.253894      2.253894     0.000000    Cartesian    0.00
    297 y         -6.761681     -6.753579     0.008102    Cartesian   -0.12
    297 z          6.761681      6.758986    -0.002695    Cartesian   -0.04
    298 x         -2.253894     -2.269103    -0.015210    Cartesian    0.67
    298 y         11.269468     11.253249    -0.016219    Cartesian   -0.14
    298 z          2.253894      2.233314    -0.020579    Cartesian   -0.91
    299 x         11.269468     11.273384     0.003916    Cartesian    0.03
    299 y          6.761681      6.752746    -0.008934    Cartesian   -0.13
    299 z         -2.253894     -2.253924    -0.000031    Cartesian    0.00
    300 x          9.015574      9.055541     0.039967    Cartesian    0.44
    300 y          9.015574      9.026135     0.010561    Cartesian    0.12
    300 z          4.507787      4.508111     0.000324    Cartesian    0.01
    301 x          2.253894      2.253894     0.000000    Cartesian    0.00
    301 y          2.253894      2.256217     0.002323    Cartesian    0.10
    301 z         11.269468     11.255238    -0.014230    Cartesian   -0.13
    302 x          4.507787      4.528660     0.020873    Cartesian    0.46
    302 y         -4.507787     -4.507542     0.000245    Cartesian   -0.01
    302 z          9.015574      9.079223     0.063649    Cartesian    0.71
    303 x         -2.253894     -2.256287    -0.002394    Cartesian    0.11
    303 y         11.269468     11.255346    -0.014122    Cartesian   -0.13
    303 z         -2.253894     -2.232996     0.020898    Cartesian   -0.93
    304 x         11.269468     11.270134     0.000666    Cartesian    0.01
    304 y          2.253894      2.248375    -0.005519    Cartesian   -0.24
    304 z          6.761681      6.765921     0.004240    Cartesian    0.06
    305 x          4.507787      4.522920     0.015133    Cartesian    0.34
    305 y         -9.015574     -9.056741    -0.041166    Cartesian    0.46
    305 z          0.000000      0.000008     0.000008    Cartesian    0.00
    306 x          9.015574      9.070859     0.055285    Cartesian    0.61
    306 y          0.000000     -0.001650    -0.001650    Cartesian    0.00
    306 z          9.015574      9.010860    -0.004714    Cartesian   -0.05
    307 x          9.015574      9.051400     0.035825    Cartesian    0.40
    307 y          9.015574      9.016934     0.001359    Cartesian    0.02
    307 z         -4.507787     -4.540290    -0.032503    Cartesian    0.72
    308 x          2.253894      2.253894     0.000000    Cartesian    0.00
    308 y         -6.761681     -6.737218     0.024463    Cartesian   -0.36
    308 z         -6.761681     -6.772656    -0.010975    Cartesian    0.16
    309 x          9.015574      9.022171     0.006597    Cartesian    0.07
    309 y          4.507787      4.519470     0.011683    Cartesian    0.26
    309 z          9.015574      9.051586     0.036011    Cartesian    0.40
    310 x          2.253894      2.253894     0.000000    Cartesian    0.00
    310 y         11.269468     11.278593     0.009125    Cartesian    0.08
    310 z          6.761681      6.750254    -0.011426    Cartesian   -0.17
    311 x         13.523362     13.601766     0.078404    Cartesian    0.58
    311 y          0.000000      0.010520     0.010520    Cartesian    0.00
    311 z          0.000000     -0.006288    -0.006288    Cartesian    0.00
    312 x          4.507787      4.546135     0.038348    Cartesian    0.85
    312 y          9.015574      9.070934     0.055360    Cartesian    0.61
    312 z          9.015574      9.022678     0.007104    Cartesian    0.08
    313 x          2.253894      2.253894     0.000000    Cartesian    0.00
    313 y         -2.253894     -2.260277    -0.006383    Cartesian    0.28
    313 z         11.269468     11.251868    -0.017600    Cartesian   -0.16
    314 x          6.761681      6.772927     0.011246    Cartesian    0.17
    314 y         -6.761681     -6.773411    -0.011730    Cartesian    0.17
    314 z          6.761681      6.757391    -0.004290    Cartesian   -0.06
    315 x         11.269468     11.272916     0.003448    Cartesian    0.03
    315 y          2.253894      2.259730     0.005836    Cartesian    0.26
    315 z         -6.761681     -6.762003    -0.000322    Cartesian    0.00
    316 x          4.507787      4.505508    -0.002279    Cartesian   -0.05
    316 y         -4.507787     -4.517771    -0.009984    Cartesian    0.22
    316 z         -9.015574     -9.060723    -0.045148    Cartesian    0.50
    317 x         13.523362     13.538330     0.014969    Cartesian    0.11
    317 y          4.507787      4.534322     0.026534    Cartesian    0.59
    317 z          0.000000      0.004038     0.004038    Cartesian    0.00
    318 x         -2.253894     -2.255344    -0.001450    Cartesian    0.06
    318 y          2.253894      2.273125     0.019231    Cartesian    0.85
    318 z         11.269468     11.259840    -0.009628    Cartesian   -0.09
    319 x         11.269468     11.274772     0.005304    Cartesian    0.05
    319 y         -2.253894     -2.256459    -0.002566    Cartesian    0.11
    319 z          6.761681      6.767963     0.006282    Cartesian    0.09
    320 x          4.507787      4.499678    -0.008109    Cartesian   -0.18
    320 y         -9.015574     -9.066804    -0.051230    Cartesian    0.57
    320 z          4.507787      4.493526    -0.014261    Cartesian   -0.32
    321 x          2.253894      2.253894     0.000000    Cartesian    0.00
    321 y          2.253894      2.234962    -0.018932    Cartesian   -0.84
    321 z        -11.269468    -11.262212     0.007256    Cartesian   -0.06
    322 x          9.015574      9.059920     0.044345    Cartesian    0.49
    322 y          0.000000     -0.001159    -0.001159    Cartesian    0.00
    322 z         -9.015574     -9.017859    -0.002285    Cartesian    0.03
    323 x          2.253894      2.253894     0.000000    Cartesian    0.00
    323 y          6.761681      6.768481     0.006800    Cartesian    0.10
    323 z         11.269468     11.274334     0.004866    Cartesian    0.04
    324 x          2.253894      2.253894     0.000000    Cartesian    0.00
    324 y         11.269468     11.279576     0.010108    Cartesian    0.09
    324 z         -6.761681     -6.759296     0.002385    Cartesian   -0.04
    325 x          9.015574      8.993072    -0.022502    Cartesian   -0.25
    325 y          4.507787      4.510702     0.002915    Cartesian    0.06
    325 z         -9.015574     -9.076986    -0.061412    Cartesian    0.68
    326 x          4.507787      4.565848     0.058060    Cartesian    1.29
    326 y         13.523362     13.582242     0.058880    Cartesian    0.44
    326 z          0.000000     -0.010446    -0.010446    Cartesian    0.00
--------------------------------------------------------------------------------


  Time to end of optimisation  =      108.2167 seconds


  Peak dynamic memory used =      97.40 MB 


  Timing analysis for GULP :

--------------------------------------------------------------------------------
  Task / Subroutine                                          Time (Seconds)
--------------------------------------------------------------------------------
  Calculation of reciprocal space energy and derivatives          0.0008
  Calculation of reciprocal space energy using symmetry           0.0011
  Calculation of real space energy and derivatives                0.0044
  Calculation of real space energy using symmetry                 0.0102
  Calculation for region 1 energy and derivatives (2-b)          60.2097
  Calculation for region 2a energy                               43.2950
  Calculation for region 2b energy                                0.0172
  Calculation and manipulation of Hessian matrix                  0.1720
  Calculation of matrix inversion                                 4.0912
  Symmetry generation of equivalent positions                     0.0051
--------------------------------------------------------------------------------
  Total CPU time                                                108.2168
--------------------------------------------------------------------------------


  Dump file written as Na3OCl.grs


  Job Finished at 22:39.27 30th November   2020                               

