********************************************************************************
*                       GENERAL UTILITY LATTICE PROGRAM                        *
*                                 Julian Gale                                  *
*                       Curtin Institute for Computation                       *
*                    School of Molecular and Life Sciences                     *
*                    Curtin University, Western Australia                      *
********************************************************************************
* Version = 5.2.0 * Last modified =  10th September 2020                       *
********************************************************************************
*  optimise     - perform optimisation run                                     *
*  conp         - constant pressure calculation                                *
*  property     - calculate properties for final geometry                      *
*  defect       - perform defect calculation after bulk run                    *
*  compare      - compare initial and final structures                         *
********************************************************************************

  Job Started  at 22:38.00 30th November   2020                               

  Number of CPUs =     1


  Total number of configurations input =      1

********************************************************************************
*  Input for Configuration =   1                                               *
********************************************************************************

  Formula = ClONa3                                                      

  Number of irreducible atoms/shells =       5


  Total number atoms/shells =       7

  Dimensionality = 3               :  Bulk   


  Symmetry :

  Crystal family                   :  Cubic       
  Crystal class  (Groth - 1921)    :  Cubic Hexakisoctahedral              

  Space group (centrosymmetric)    :  P M 3 M         

  Patterson group                  :  P m -3 m 

  Cartesian lattice vectors (Angstroms) :

        4.504000    0.000000    0.000000
        0.000000    4.504000    0.000000
        0.000000    0.000000    4.504000

  Cell parameters (Angstroms/Degrees):

  a =       4.5040    alpha =  90.0000
  b =       4.5040    beta  =  90.0000
  c =       4.5040    gamma =  90.0000

  Initial cell volume =          91.368216 Angs**3

  Temperature of configuration =   0.00     K 

  Pressure of configuration =         0.000 GPa 

  Fractional coordinates of asymmetric unit :

--------------------------------------------------------------------------------
   No.  Atomic       x           y          z         Charge      Occupancy
        Label      (Frac)      (Frac)     (Frac)        (e)         (Frac)  
--------------------------------------------------------------------------------
      1 Cl    c    0.000000    0.000000    0.000000     1.48500    1.000000    
      2 O     c    0.500000    0.500000    0.500000     0.18300    1.000000    
      3 Na    c    0.500000    0.500000    0.000000     1.00000    1.000000    
      4 Cl    s    0.000000    0.000000    0.000000    -2.48500    1.000000    
      5 O     s    0.500000    0.500000    0.500000    -2.18300    1.000000    
--------------------------------------------------------------------------------


  Constraints : 

--------------------------------------------------------------------------------
  Constraint no.      Unconstrained     Constrained    Coefficient    Offset
                         Variable         Variable
--------------------------------------------------------------------------------
           1              Strain 1        Strain 2       1.00000      0.0000
           2              Strain 1        Strain 3       1.00000      0.0000
--------------------------------------------------------------------------------


********************************************************************************
*  General input information                                                   *
********************************************************************************

  Species output for all configurations : 

--------------------------------------------------------------------------------
  Species    Type    Atomic    Atomic    Charge       Radii (Angs)     Library
                     Number     Mass       (e)     Cova   Ionic  VDW   Symbol
--------------------------------------------------------------------------------
    Na       Core       11      22.99   1.000000   0.970  0.000  2.300          
    O        Core        8      16.00   0.183000   0.730  0.000  1.360          
    O        Shell       8       0.00  -2.183000   0.730  0.000  1.360          
    Cl       Core       17      35.45   1.485000   0.990  0.000  1.650          
    Cl       Shell      17       0.00  -2.485000   0.990  0.000  1.650          
    Mg       Core       12      24.31   0.415000   1.100  0.000  0.000          
    Mg       Shell      12       0.00   1.585000   1.100  0.000  0.000          
    Ca       Core       20      40.08  -1.135000   0.990  0.000  0.000          
    Ca       Shell      20       0.00   3.135000   0.990  0.000  0.000          
    Sr       Core       38      87.62  -1.251000   1.120  0.000  0.000          
    Sr       Shell      38       0.00   3.251000   1.120  0.000  0.000          
    Ba       Core       56     137.33  -7.203000   1.340  0.000  0.000          
    Ba       Shell      56       0.00   9.203000   1.340  0.000  0.000          
--------------------------------------------------------------------------------


  Lattice summation method               =    Ewald          (3-D)
                                         =    Parry          (2-D)
                                         =    Saunders et al (1-D)
  Accuracy factor for lattice sums       =   12.000


  Analytic derivatives to be used

  Time limit = Infinity

  Maximum range for interatomic potentials =    100000.000000 Angstroms

  General interatomic potentials :

--------------------------------------------------------------------------------
Atom  Types   Potential      Parameter       Value         Units   Cutoffs(Ang)
  1     2                                                            Min /  Max 
--------------------------------------------------------------------------------
O    c O    s Spring (c-s)  Spring k 2       593.71600    eV*Ang^-2 0.000  0.800
                            Spring k 4       0.0000000    eV*Ang^-4 
--------------------------------------------------------------------------------
Cl   c Cl   s Spring (c-s)  Spring k 2       29.380000    eV*Ang^-2 0.000  0.800
                            Spring k 4       0.0000000    eV*Ang^-4 
--------------------------------------------------------------------------------
Mg   c Mg   s Spring (c-s)  Spring k 2       361.60000    eV*Ang^-2 0.000  0.800
                            Spring k 4       0.0000000    eV*Ang^-4 
--------------------------------------------------------------------------------
Ca   c Ca   s Spring (c-s)  Spring k 2       110.20000    eV*Ang^-2 0.000  0.800
                            Spring k 4       0.0000000    eV*Ang^-4 
--------------------------------------------------------------------------------
Sr   c Sr   s Spring (c-s)  Spring k 2       71.700000    eV*Ang^-2 0.000  0.800
                            Spring k 4       0.0000000    eV*Ang^-4 
--------------------------------------------------------------------------------
Ba   c Ba   s Spring (c-s)  Spring k 2       495.20000    eV*Ang^-2 0.000  0.800
                            Spring k 4       0.0000000    eV*Ang^-4 
--------------------------------------------------------------------------------
Na   c Na   c Buckingham    Buckingham A     1788.1900    eV        0.000 12.000
                            Buckingham rho  0.15900000    Ang       
                            Buckingham C     0.0000000    eV*Ang^6  
--------------------------------------------------------------------------------
Na   c O    s Buckingham    Buckingham A     1226.8400    eV        0.000 12.000
                            Buckingham rho  0.30700000    Ang       
                            Buckingham C     0.0000000    eV*Ang^6  
--------------------------------------------------------------------------------
Na   c Cl   s Buckingham    Buckingham A     2314.7000    eV        0.000 12.000
                            Buckingham rho  0.29000000    Ang       
                            Buckingham C     0.0000000    eV*Ang^6  
--------------------------------------------------------------------------------
O    s O    s Buckingham    Buckingham A     22764.300    eV        0.000 12.000
                            Buckingham rho  0.14900000    Ang       
                            Buckingham C     13.190000    eV*Ang^6  
--------------------------------------------------------------------------------
O    s Cl   s Buckingham    Buckingham A     8286.9100    eV        0.000 12.000
                            Buckingham rho  0.25900000    Ang       
                            Buckingham C     62.200000    eV*Ang^6  
--------------------------------------------------------------------------------
Cl   s Cl   s Buckingham    Buckingham A     1227.2000    eV        0.000 12.000
                            Buckingham rho  0.32100000    Ang       
                            Buckingham C     14.530000    eV*Ang^6  
--------------------------------------------------------------------------------
O    s Mg   s Buckingham    Buckingham A     1428.5000    eV        0.000 12.000
                            Buckingham rho  0.29450000    Ang       
                            Buckingham C     0.0000000    eV*Ang^6  
--------------------------------------------------------------------------------
Mg   s Cl   s Buckingham    Buckingham A     4914.5400    eV        0.000 12.000
                            Buckingham rho  0.25700000    Ang       
                            Buckingham C     0.0000000    eV*Ang^6  
--------------------------------------------------------------------------------
O    s Ca   s Buckingham    Buckingham A     1090.4000    eV        0.000 12.000
                            Buckingham rho  0.34370000    Ang       
                            Buckingham C     0.0000000    eV*Ang^6  
--------------------------------------------------------------------------------
Cl   s Ca   s Buckingham    Buckingham A     2302.0000    eV        0.000 12.000
                            Buckingham rho  0.34020000    Ang       
                            Buckingham C     0.0000000    eV*Ang^6  
--------------------------------------------------------------------------------
O    s Sr   s Buckingham    Buckingham A     959.10000    eV        0.000 12.000
                            Buckingham rho  0.37210000    Ang       
                            Buckingham C     0.0000000    eV*Ang^6  
--------------------------------------------------------------------------------
Cl   s Sr   s Buckingham    Buckingham A     2191.0900    eV        0.000 12.000
                            Buckingham rho  0.34570000    Ang       
                            Buckingham C     0.0000000    eV*Ang^6  
--------------------------------------------------------------------------------
O    s Ba   s Buckingham    Buckingham A     905.70000    eV        0.000 12.000
                            Buckingham rho  0.39760000    Ang       
                            Buckingham C     0.0000000    eV*Ang^6  
--------------------------------------------------------------------------------
Cl   s Ba   s Buckingham    Buckingham A     2704.5500    eV        0.000 12.000
                            Buckingham rho  0.35280000    Ang       
                            Buckingham C     0.0000000    eV*Ang^6  
--------------------------------------------------------------------------------

********************************************************************************
*  Output for configuration   1                                                *
********************************************************************************


  Components of energy : 

--------------------------------------------------------------------------------
  Interatomic potentials     =           5.13022605 eV    
  Monopole - monopole (real) =         -10.03624526 eV    
  Monopole - monopole (recip)=         -29.53581274 eV    
  Monopole - monopole (total)=         -39.57205800 eV    
--------------------------------------------------------------------------------
  Total lattice energy       =         -34.44183194 eV    
--------------------------------------------------------------------------------
  Total lattice energy       =           -3323.1103 kJ/(mole unit cells)
--------------------------------------------------------------------------------


  Number of variables =        1

  Maximum number of calculations  =          1000
  Maximum Hessian update interval =            10
  Maximum step size               =   1.000000000
  Maximum parameter tolerance     =   0.000010000
  Maximum function  tolerance     =   0.000010000
  Maximum gradient  tolerance     =   0.001000000
  Maximum gradient  component     =   0.010000000

  Symmetry constrained optimisation

  Symmetry used for second derivatives

  Cell parameters to be optimised using strains

  Newton-Raphson optimiser to be used

  BFGS hessian update to be used

  Lower half triangular hessian to be used

  Start of bulk optimisation :

  Cycle:      0 Energy:       -34.441832  Gnorm:      0.196570  CPU:    0.069
  ** Hessian calculated **
  Cycle:      1 Energy:       -34.441914  Gnorm:      0.000103  CPU:    0.087


  **** Optimisation achieved ****


  Final energy =     -34.44191447 eV
  Final Gnorm  =       0.00000000

  Components of energy : 

--------------------------------------------------------------------------------
  Interatomic potentials     =           5.09689708 eV    
  Monopole - monopole (real) =         -10.02781331 eV    
  Monopole - monopole (recip)=         -29.51099824 eV    
  Monopole - monopole (total)=         -39.53881155 eV    
--------------------------------------------------------------------------------
  Total lattice energy       =         -34.44191447 eV    
--------------------------------------------------------------------------------
  Total lattice energy       =           -3323.1183 kJ/(mole unit cells)
--------------------------------------------------------------------------------

  Final asymmetric unit coordinates :

--------------------------------------------------------------------------------
   No.  Atomic        x           y           z         Radius
        Label       (Frac)      (Frac)      (Frac)       (Angs) 
--------------------------------------------------------------------------------
     1  Cl    c     0.000000    0.000000    0.000000    0.000000
     2  O     c     0.500000    0.500000    0.500000    0.000000
     3  Na    c     0.500000    0.500000    0.000000    0.000000
     4  Cl    s     0.000000    0.000000    0.000000    0.000000
     5  O     s     0.500000    0.500000    0.500000    0.000000
--------------------------------------------------------------------------------

  Final Cartesian lattice vectors (Angstroms) :

        4.507787    0.000000    0.000000
        0.000000    4.507787    0.000000
        0.000000    0.000000    4.507787


  Final cell parameters and derivatives :

--------------------------------------------------------------------------------
       a            4.507787 Angstrom     dE/de1(xx)     0.000000 eV/strain
       b            4.507787 Angstrom     dE/de2(yy)     0.000000 eV/strain
       c            4.507787 Angstrom     dE/de3(zz)     0.000000 eV/strain
       alpha       90.000000 Degrees      dE/de4(yz)     0.000000 eV/strain
       beta        90.000000 Degrees      dE/de5(xz)     0.000000 eV/strain
       gamma       90.000000 Degrees      dE/de6(xy)     0.000000 eV/strain
--------------------------------------------------------------------------------

  Primitive cell volume =            91.598892 Angs**3

  Density of cell =      2.183054 g/cm**3

  Non-primitive cell volume =            91.598892 Angs**3


  Final internal derivatives :

--------------------------------------------------------------------------------
   No.  Atomic          a             b             c           Radius
        Label          (eV)          (eV)          (eV)        (eV/Angs)
--------------------------------------------------------------------------------
      1 Cl    c       0.000000      0.000000      0.000000      0.000000
      2 O     c       0.000000      0.000000      0.000000      0.000000
      3 Na    c       0.000000      0.000000      0.000000      0.000000
      4 Cl    s       0.000000      0.000000      0.000000      0.000000
      5 O     s       0.000000      0.000000      0.000000      0.000000
--------------------------------------------------------------------------------
  Maximum abs         0.000000      0.000000      0.000000      0.000000
--------------------------------------------------------------------------------

  Comparison of initial and final structures : 

--------------------------------------------------------------------------------
  Parameter   Initial value   Final value   Difference    Units      Percent
--------------------------------------------------------------------------------
    Volume        91.368216     91.598892     0.230676    Angs**3      0.25
    a              4.504000      4.507787     0.003787    Angstroms    0.08
    b              4.504000      4.507787     0.003787    Angstroms    0.08
    c              4.504000      4.507787     0.003787    Angstroms    0.08
    alpha         90.000000     90.000000     0.000000    Degrees      0.00
    beta          90.000000     90.000000     0.000000    Degrees      0.00
    gamma         90.000000     90.000000     0.000000    Degrees      0.00
      1 x          0.000000      0.000000     0.000000    Fractional   0.00
      1 y          0.000000      0.000000     0.000000    Fractional   0.00
      1 z          0.000000      0.000000     0.000000    Fractional   0.00
      2 x          0.500000      0.500000     0.000000    Fractional   0.00
      2 y          0.500000      0.500000     0.000000    Fractional   0.00
      2 z          0.500000      0.500000     0.000000    Fractional   0.00
      3 x          0.500000      0.500000     0.000000    Fractional   0.00
      3 y          0.500000      0.500000     0.000000    Fractional   0.00
      3 z          0.000000      0.000000     0.000000    Fractional   0.00
      4 x          0.000000      0.000000     0.000000    Fractional   0.00
      4 y          0.000000      0.000000     0.000000    Fractional   0.00
      4 z          0.000000      0.000000     0.000000    Fractional   0.00
      5 x          0.500000      0.500000     0.000000    Fractional   0.00
      5 y          0.500000      0.500000     0.000000    Fractional   0.00
      5 z          0.500000      0.500000     0.000000    Fractional   0.00
--------------------------------------------------------------------------------


  Born effective charge tensors : 

-------------------------------------------------------------------------------
  Atom             x           y             z
-------------------------------------------------------------------------------
    1 Cl    x      -1.0181     -0.0000      0.0000
            y      -0.0000     -1.0181      0.0000
            z       0.0000      0.0000     -1.0181
-------------------------------------------------------------------------------
    2 O     x      -2.2647      0.0000     -0.0000
            y       0.0000     -2.2647     -0.0000
            z      -0.0000     -0.0000     -2.2647
-------------------------------------------------------------------------------
    3 Na    x       1.2258     -0.0000      0.0000
            y      -0.0000      1.2258     -0.0000
            z       0.0000     -0.0000      0.8313
-------------------------------------------------------------------------------




  Elastic Constant Matrix: (Units=GPa)

-------------------------------------------------------------------------------
  Indices      1         2         3         4         5         6    
-------------------------------------------------------------------------------
       1     95.8177   20.0737   20.0737   -0.0000   -0.0000    0.0000
       2     20.0737   95.8177   20.0737   -0.0000   -0.0000    0.0000
       3     20.0737   20.0737   95.8177   -0.0000   -0.0000    0.0000
       4     -0.0000   -0.0000   -0.0000   20.0737   -0.0000    0.0000
       5     -0.0000   -0.0000   -0.0000   -0.0000   20.0737    0.0000
       6      0.0000    0.0000    0.0000    0.0000    0.0000   20.0737
-------------------------------------------------------------------------------


  Elastic Compliance Matrix: (Units=1/GPa)

-------------------------------------------------------------------------------
  Indices      1         2         3         4         5         6    
-------------------------------------------------------------------------------
       1    0.011253 -0.001949 -0.001949  0.000000  0.000000 -0.000000
       2   -0.001949  0.011253 -0.001949  0.000000  0.000000  0.000000
       3   -0.001949 -0.001949  0.011253  0.000000  0.000000 -0.000000
       4    0.000000  0.000000  0.000000  0.049816  0.000000 -0.000000
       5    0.000000  0.000000  0.000000  0.000000  0.049816 -0.000000
       6   -0.000000  0.000000 -0.000000 -0.000000 -0.000000  0.049816
-------------------------------------------------------------------------------

  Mechanical properties :

-------------------------------------------------------------------------------
  Convention :                    Reuss         Voigt         Hill
-------------------------------------------------------------------------------
  Bulk  Modulus (GPa)     =      45.32174      45.32174      45.32174
  Shear Modulus (GPa)     =      24.72085      27.19304      25.95695
-------------------------------------------------------------------------------
  Velocity S-wave (km/s)  =       3.36511       3.52937       3.44822
  Velocity P-wave (km/s)  =       5.98827       6.11304       6.05098
-------------------------------------------------------------------------------
  Compressibility (1/GPa) =    0.02206447
-------------------------------------------------------------------------------
  Stress axis :                     x             y             z
-------------------------------------------------------------------------------
  Youngs Moduli (GPa)     =      88.86373      88.86373      88.86373
-------------------------------------------------------------------------------
  Poissons Ratio (x)      =                     0.17321       0.17321
  Poissons Ratio (y)      =       0.17321                     0.17321
  Poissons Ratio (z)      =       0.17321       0.17321
-------------------------------------------------------------------------------


  Piezoelectric Strain Matrix: (Units=C/m**2)

-------------------------------------------------------------------------------
  Indices      1         2         3         4         5         6    
-------------------------------------------------------------------------------
       x    -0.00000  -0.00000  -0.00000   0.00000  -0.00000  -0.00000
       y    -0.00000  -0.00000   0.00000  -0.00000   0.00000   0.00000
       z    -0.00000  -0.00000  -0.00000  -0.00000   0.00000   0.00000
-------------------------------------------------------------------------------


  Piezoelectric Stress Matrix: (Units=10**-11 C/N)

-------------------------------------------------------------------------------
  Indices      1         2         3         4         5         6    
-------------------------------------------------------------------------------
       x    -0.00000   0.00000   0.00000   0.00000  -0.00000  -0.00000
       y    -0.00000  -0.00000   0.00000  -0.00000   0.00000   0.00000
       z     0.00000   0.00000  -0.00000  -0.00000   0.00000   0.00000
-------------------------------------------------------------------------------


  Static dielectric constant tensor : 

-------------------------------------------------------------------------------
              x         y         z
-------------------------------------------------------------------------------
       x    22.84729   0.00000   0.00000
       y     0.00000  22.84729  -0.00000
       z     0.00000  -0.00000  22.84729
--------------------------------------------------------------------------------

  High frequency dielectric constant tensor : 

-------------------------------------------------------------------------------
              x         y         z
-------------------------------------------------------------------------------
       x     1.47557   0.00000  -0.00000
       y     0.00000   1.47557  -0.00000
       z    -0.00000  -0.00000   1.47557
-------------------------------------------------------------------------------

  Static refractive indices : 

-------------------------------------------------------------------------------
    1 =    4.77988      2 =    4.77988      3 =    4.77988
-------------------------------------------------------------------------------

  High frequency refractive indices : 

-------------------------------------------------------------------------------
    1 =    1.21473      2 =    1.21473      3 =    1.21473
-------------------------------------------------------------------------------


  Time to end of optimisation =       0.1295 seconds

********************************************************************************
*  Defect calculation for configuration   1 :                                  *
********************************************************************************

  Total number of defects =      3

  Total charge on defect  =  -1.00

  Defect centre is at   0.5000   0.0400   0.4600  Frac

  Region 1 radius =  12.0000      Number of ions =    554

  Number of symmetry inequivalent region 1 ions  =    322

  Region 2 radius =  16.0000      Number of ions =    755

  Number of symmetry inequivalent region 2a ions =    410

  Region 2a mode = 4 : screened electrostatics due to region 1 
                       neglect correction to region 1 forces from 2a
                       region 2a displacements based on defects only

  Region 2a ions will only interact with defects in region 1

  Vacancies:

--------------------------------------------------------------------------------
    Specification type     Symbol/Number         x          y          z
--------------------------------------------------------------------------------
    Fractional                               0.500000   0.500000   0.000000
    Fractional                               0.500000   0.000000   0.500000
--------------------------------------------------------------------------------

  Interstitials:

--------------------------------------------------------------------------------
    Specification type     Symbol/Number         x          y          z
--------------------------------------------------------------------------------
    Atom/Fractional         Na               0.500000   0.040000   0.460000
--------------------------------------------------------------------------------


  Symmetry reduced region 1 (Relative to defect centre) :

--------------------------------------------------------------------------------
   No.   Atomic       x            y             z       Radius  Multiplicity   
         Label      (Angs)       (Angs)        (Angs)    (Angs)     
--------------------------------------------------------------------------------
     1  Na    c      0.0000       0.0000       0.0000 *  0.0000     1    Defect
     2  O     c      0.0000       2.0736 *     0.1803 *  0.0000     1          
     3  O     c      0.0000      -2.4342 *     0.1803 *  0.0000     1          
     4  Cl    c      2.2539 *    -0.1803 *    -2.0736 *  0.0000     2          
     5  Na    c      2.2539 *     2.0736 *     0.1803 *  0.0000     2          
     6  Na    c      0.0000      -2.4342 *    -2.0736 *  0.0000     1          
     7  Na    c      0.0000       2.0736 *     2.4342 *  0.0000     1          
     8  Cl    c      2.2539 *    -0.1803 *     2.4342 *  0.0000     2          
     9  Na    c      2.2539 *    -2.4342 *     0.1803 *  0.0000     2          
    10  Na    c      0.0000      -2.4342 *     2.4342 *  0.0000     1          
    11  Na    c      0.0000       4.3275 *     0.1803 *  0.0000     1          
    12  Na    c      0.0000      -0.1803 *    -4.3275 *  0.0000     1          
    13  Na    c     -4.5078 *    -0.1803 *     0.1803 *  0.0000     2          
    14  Na    c      0.0000      -0.1803 *     4.6881 *  0.0000     1          
    15  Na    c      0.0000      -4.6881 *     0.1803 *  0.0000     1          
    16  O     c      0.0000       2.0736 *    -4.3275 *  0.0000     1          
    17  O     c     -4.5078 *     2.0736 *     0.1803 *  0.0000     2          
    18  O     c      0.0000      -2.4342 *    -4.3275 *  0.0000     1          
    19  O     c      0.0000       2.0736 *     4.6881 *  0.0000     1          
    20  O     c     -4.5078 *    -2.4342 *     0.1803 *  0.0000     2          
    21  O     c      0.0000      -2.4342 *     4.6881 *  0.0000     1          
    22  Cl    c      2.2539 *     4.3275 *    -2.0736 *  0.0000     2          
    23  Na    c      2.2539 *     2.0736 *    -4.3275 *  0.0000     2          
    24  Na    c     -4.5078 *     2.0736 *    -2.0736 *  0.0000     2          
    25  Cl    c      2.2539 *     4.3275 *     2.4342 *  0.0000     2          
    26  Na    c      2.2539 *    -2.4342 *    -4.3275 *  0.0000     2          
    27  Na    c     -4.5078 *    -2.4342 *    -2.0736 *  0.0000     2          
    28  Na    c     -4.5078 *     2.0736 *     2.4342 *  0.0000     2          
    29  Na    c      2.2539 *     2.0736 *     4.6881 *  0.0000     2          
    30  Cl    c      2.2539 *    -4.6881 *    -2.0736 *  0.0000     2          
    31  Na    c     -4.5078 *    -2.4342 *     2.4342 *  0.0000     2          
    32  Na    c      2.2539 *    -2.4342 *     4.6881 *  0.0000     2          
    33  Cl    c      2.2539 *    -4.6881 *     2.4342 *  0.0000     2          
    34  Na    c      0.0000       4.3275 *    -4.3275 *  0.0000     1          
    35  Na    c      4.5078 *     4.3275 *     0.1803 *  0.0000     2          
    36  Na    c     -4.5078 *    -0.1803 *    -4.3275 *  0.0000     2          
    37  Na    c      0.0000       4.3275 *     4.6881 *  0.0000     1          
    38  Na    c      0.0000      -4.6881 *    -4.3275 *  0.0000     1          
    39  Na    c     -4.5078 *    -0.1803 *     4.6881 *  0.0000     2          
    40  Na    c      4.5078 *    -4.6881 *     0.1803 *  0.0000     2          
    41  O     c      0.0000       6.5814 *     0.1803 *  0.0000     1          
    42  O     c      4.5078 *     2.0736 *    -4.3275 *  0.0000     2          
    43  Na    c      0.0000      -4.6881 *     4.6881 *  0.0000     1          
    44  O     c     -4.5078 *    -2.4342 *    -4.3275 *  0.0000     2          
    45  O     c      4.5078 *     2.0736 *     4.6881 *  0.0000     2          
    46  Na    c      0.0000       2.0736 *    -6.5814 *  0.0000     1          
    47  Na    c      0.0000       6.5814 *    -2.0736 *  0.0000     1          
    48  O     c     -4.5078 *    -2.4342 *     4.6881 *  0.0000     2          
    49  O     c      0.0000      -6.9420 *     0.1803 *  0.0000     1          
    50  Cl    c      2.2539 *    -0.1803 *    -6.5814 *  0.0000     2          
    51  Na    c      2.2539 *     6.5814 *     0.1803 *  0.0000     2          
    52  Na    c      0.0000      -2.4342 *    -6.5814 *  0.0000     1          
    53  Na    c      0.0000       6.5814 *     2.4342 *  0.0000     1          
    54  Cl    c      6.7617 *    -0.1803 *    -2.0736 *  0.0000     2          
    55  Na    c      6.7617 *     2.0736 *     0.1803 *  0.0000     2          
    56  Cl    c      6.7617 *    -0.1803 *     2.4342 *  0.0000     2          
    57  Na    c      6.7617 *    -2.4342 *     0.1803 *  0.0000     2          
    58  Na    c      0.0000       2.0736 *     6.9420 *  0.0000     1          
    59  Na    c      0.0000      -6.9420 *    -2.0736 *  0.0000     1          
    60  Cl    c      2.2539 *    -0.1803 *     6.9420 *  0.0000     2          
    61  Na    c      2.2539 *    -6.9420 *     0.1803 *  0.0000     2          
    62  Na    c      0.0000      -2.4342 *     6.9420 *  0.0000     1          
    63  Na    c      0.0000      -6.9420 *     2.4342 *  0.0000     1          
    64  Na    c      4.5078 *     4.3275 *    -4.3275 *  0.0000     2          
    65  Na    c      4.5078 *     4.3275 *     4.6881 *  0.0000     2          
    66  Na    c      4.5078 *    -4.6881 *    -4.3275 *  0.0000     2          
    67  O     c      0.0000       6.5814 *    -4.3275 *  0.0000     1          
    68  O     c     -4.5078 *     6.5814 *     0.1803 *  0.0000     2          
    69  Na    c      4.5078 *    -4.6881 *     4.6881 *  0.0000     2          
    70  O     c      0.0000       6.5814 *     4.6881 *  0.0000     1          
    71  O     c      0.0000      -6.9420 *    -4.3275 *  0.0000     1          
    72  Cl    c      2.2539 *     4.3275 *    -6.5814 *  0.0000     2          
    73  Na    c      2.2539 *     6.5814 *    -4.3275 *  0.0000     2          
    74  Na    c     -4.5078 *     6.5814 *    -2.0736 *  0.0000     2          
    75  Na    c      4.5078 *     2.0736 *    -6.5814 *  0.0000     2          
    76  O     c      4.5078 *    -6.9420 *     0.1803 *  0.0000     2          
    77  Cl    c      6.7617 *     4.3275 *    -2.0736 *  0.0000     2          
    78  Na    c      6.7617 *     2.0736 *    -4.3275 *  0.0000     2          
    79  Na    c     -4.5078 *     6.5814 *     2.4342 *  0.0000     2          
    80  Na    c      4.5078 *    -2.4342 *    -6.5814 *  0.0000     2          
    81  O     c      0.0000      -6.9420 *     4.6881 *  0.0000     1          
    82  Cl    c      2.2539 *    -4.6881 *    -6.5814 *  0.0000     2          
    83  Na    c      2.2539 *     6.5814 *     4.6881 *  0.0000     2          
    84  Cl    c      6.7617 *     4.3275 *     2.4342 *  0.0000     2          
    85  Na    c      6.7617 *    -2.4342 *    -4.3275 *  0.0000     2          
    86  Cl    c      2.2539 *     4.3275 *     6.9420 *  0.0000     2          
    87  Na    c      2.2539 *    -6.9420 *    -4.3275 *  0.0000     2          
    88  Na    c      6.7617 *     2.0736 *     4.6881 *  0.0000     2          
    89  Cl    c      6.7617 *    -4.6881 *    -2.0736 *  0.0000     2          
    90  Na    c      4.5078 *    -6.9420 *    -2.0736 *  0.0000     2          
    91  Na    c     -4.5078 *     2.0736 *     6.9420 *  0.0000     2          
    92  Na    c      6.7617 *    -2.4342 *     4.6881 *  0.0000     2          
    93  Cl    c      6.7617 *    -4.6881 *     2.4342 *  0.0000     2          
    94  Na    c      4.5078 *    -6.9420 *     2.4342 *  0.0000     2          
    95  Na    c     -4.5078 *    -2.4342 *     6.9420 *  0.0000     2          
    96  Cl    c      2.2539 *    -4.6881 *     6.9420 *  0.0000     2          
    97  Na    c      2.2539 *    -6.9420 *     4.6881 *  0.0000     2          
    98  Na    c      0.0000       8.8353 *     0.1803 *  0.0000     1          
    99  Na    c      0.0000      -0.1803 *    -8.8353 *  0.0000     1          
   100  Na    c      9.0156 *    -0.1803 *     0.1803 *  0.0000     2          
   101  O     c     -4.5078 *     6.5814 *    -4.3275 *  0.0000     2          
   102  O     c      0.0000       2.0736 *    -8.8353 *  0.0000     1          
   103  O     c      0.0000      -2.4342 *    -8.8353 *  0.0000     1          
   104  Na    c      0.0000      -0.1803 *     9.1959 *  0.0000     1          
   105  Na    c      0.0000      -9.1959 *     0.1803 *  0.0000     1          
   106  O     c      9.0156 *     2.0736 *     0.1803 *  0.0000     2          
   107  O     c     -4.5078 *     6.5814 *     4.6881 *  0.0000     2          
   108  Na    c      0.0000       6.5814 *    -6.5814 *  0.0000     1          
   109  O     c      9.0156 *    -2.4342 *     0.1803 *  0.0000     2          
   110  O     c      4.5078 *    -6.9420 *    -4.3275 *  0.0000     2          
   111  Cl    c      2.2539 *     8.8353 *    -2.0736 *  0.0000     2          
   112  Na    c      2.2539 *     2.0736 *    -8.8353 *  0.0000     2          
   113  O     c      0.0000       2.0736 *     9.1959 *  0.0000     1          
   114  Cl    c      2.2539 *     8.8353 *     2.4342 *  0.0000     2          
   115  Na    c      6.7617 *     6.5814 *     0.1803 *  0.0000     2          
   116  Cl    c      6.7617 *    -0.1803 *    -6.5814 *  0.0000     2          
   117  Na    c      2.2539 *    -2.4342 *    -8.8353 *  0.0000     2          
   118  Na    c      9.0156 *     2.0736 *    -2.0736 *  0.0000     2          
   119  O     c      0.0000      -2.4342 *     9.1959 *  0.0000     1          
   120  O     c      4.5078 *    -6.9420 *     4.6881 *  0.0000     2          
   121  Na    c      9.0156 *    -2.4342 *    -2.0736 *  0.0000     2          
   122  Na    c      9.0156 *     2.0736 *     2.4342 *  0.0000     2          
   123  Na    c      0.0000       6.5814 *     6.9420 *  0.0000     1          
   124  Na    c      0.0000      -6.9420 *    -6.5814 *  0.0000     1          
   125  Na    c      9.0156 *    -2.4342 *     2.4342 *  0.0000     2          
   126  Na    c      2.2539 *     2.0736 *     9.1959 *  0.0000     2          
   127  Cl    c      2.2539 *    -9.1959 *    -2.0736 *  0.0000     2          
   128  Na    c      6.7617 *    -6.9420 *     0.1803 *  0.0000     2          
   129  Cl    c      6.7617 *    -0.1803 *     6.9420 *  0.0000     2          
   130  Na    c      2.2539 *    -2.4342 *     9.1959 *  0.0000     2          
   131  Cl    c      2.2539 *    -9.1959 *     2.4342 *  0.0000     2          
   132  Na    c      0.0000      -6.9420 *     6.9420 *  0.0000     1          
   133  Na    c      0.0000       8.8353 *    -4.3275 *  0.0000     1          
   134  Na    c      0.0000       4.3275 *    -8.8353 *  0.0000     1          
   135  Na    c     -4.5078 *     8.8353 *     0.1803 *  0.0000     2          
   136  Na    c      4.5078 *    -0.1803 *    -8.8353 *  0.0000     2          
   137  Na    c      0.0000       8.8353 *     4.6881 *  0.0000     1          
   138  Na    c      9.0156 *    -0.1803 *    -4.3275 *  0.0000     2          
   139  Na    c      9.0156 *     4.3275 *     0.1803 *  0.0000     2          
   140  Na    c      0.0000      -4.6881 *    -8.8353 *  0.0000     1          
   141  O     c      4.5078 *     2.0736 *    -8.8353 *  0.0000     2          
   142  Na    c      0.0000       4.3275 *     9.1959 *  0.0000     1          
   143  Na    c      9.0156 *    -0.1803 *     4.6881 *  0.0000     2          
   144  Na    c      0.0000      -9.1959 *    -4.3275 *  0.0000     1          
   145  Na    c      9.0156 *    -4.6881 *     0.1803 *  0.0000     2          
   146  O     c      9.0156 *     2.0736 *    -4.3275 *  0.0000     2          
   147  O     c     -4.5078 *    -2.4342 *    -8.8353 *  0.0000     2          
   148  Na    c      4.5078 *    -0.1803 *     9.1959 *  0.0000     2          
   149  Na    c     -4.5078 *    -9.1959 *     0.1803 *  0.0000     2          
   150  O     c      9.0156 *    -2.4342 *    -4.3275 *  0.0000     2          
   151  Na    c      0.0000      -4.6881 *     9.1959 *  0.0000     1          
   152  Na    c      0.0000      -9.1959 *     4.6881 *  0.0000     1          
   153  Na    c     -4.5078 *     6.5814 *    -6.5814 *  0.0000     2          
   154  O     c      9.0156 *     2.0736 *     4.6881 *  0.0000     2          
   155  Cl    c      6.7617 *     4.3275 *    -6.5814 *  0.0000     2          
   156  Na    c      6.7617 *     6.5814 *    -4.3275 *  0.0000     2          
   157  O     c      4.5078 *     2.0736 *     9.1959 *  0.0000     2          
   158  O     c      9.0156 *    -2.4342 *     4.6881 *  0.0000     2          
   159  O     c     -4.5078 *    -2.4342 *     9.1959 *  0.0000     2          
   160  Na    c      6.7617 *     6.5814 *     4.6881 *  0.0000     2          
   161  Cl    c      6.7617 *    -4.6881 *    -6.5814 *  0.0000     2          
   162  Na    c      4.5078 *     6.5814 *     6.9420 *  0.0000     2          
   163  Na    c      4.5078 *    -6.9420 *    -6.5814 *  0.0000     2          
   164  Na    c      6.7617 *    -6.9420 *    -4.3275 *  0.0000     2          
   165  Cl    c      6.7617 *     4.3275 *     6.9420 *  0.0000     2          
   166  Na    c      6.7617 *    -6.9420 *     4.6881 *  0.0000     2          
   167  Cl    c      6.7617 *    -4.6881 *     6.9420 *  0.0000     2          
   168  Na    c      4.5078 *    -6.9420 *     6.9420 *  0.0000     2          
   169  Na    c     -4.5078 *     8.8353 *    -4.3275 *  0.0000     2          
   170  Na    c      4.5078 *     4.3275 *    -8.8353 *  0.0000     2          
   171  Na    c      9.0156 *     4.3275 *    -4.3275 *  0.0000     2          
   172  Na    c     -4.5078 *     8.8353 *     4.6881 *  0.0000     2          
   173  Na    c      4.5078 *    -4.6881 *    -8.8353 *  0.0000     2          
   174  O     c      0.0000       6.5814 *    -8.8353 *  0.0000     1          
   175  Na    c      9.0156 *     4.3275 *     4.6881 *  0.0000     2          
   176  Na    c      9.0156 *    -4.6881 *    -4.3275 *  0.0000     2          
   177  O     c      0.0000      11.0892 *     0.1803 *  0.0000     1          
   178  Na    c      4.5078 *     4.3275 *     9.1959 *  0.0000     2          
   179  Na    c     -4.5078 *    -9.1959 *    -4.3275 *  0.0000     2          
   180  O     c      9.0156 *     6.5814 *     0.1803 *  0.0000     2          
   181  Na    c      9.0156 *    -4.6881 *     4.6881 *  0.0000     2          
   182  O     c      0.0000      -6.9420 *    -8.8353 *  0.0000     1          
   183  Cl    c      2.2539 *     8.8353 *    -6.5814 *  0.0000     2          
   184  Na    c      2.2539 *     6.5814 *    -8.8353 *  0.0000     2          
   185  Na    c      4.5078 *    -4.6881 *     9.1959 *  0.0000     2          
   186  Na    c     -4.5078 *    -9.1959 *     4.6881 *  0.0000     2          
   187  Na    c      0.0000       2.0736 *   -11.0892 *  0.0000     1          
   188  Na    c      0.0000      11.0892 *    -2.0736 *  0.0000     1          
   189  O     c      0.0000       6.5814 *     9.1959 *  0.0000     1          
   190  Cl    c      2.2539 *    -0.1803 *   -11.0892 *  0.0000     2          
   191  Na    c      2.2539 *    11.0892 *     0.1803 *  0.0000     2          
   192  Cl    c      6.7617 *     8.8353 *    -2.0736 *  0.0000     2          
   193  Na    c      6.7617 *     2.0736 *    -8.8353 *  0.0000     2          
   194  Na    c      0.0000      -2.4342 *   -11.0892 *  0.0000     1          
   195  Na    c      0.0000      11.0892 *     2.4342 *  0.0000     1          
   196  Na    c      9.0156 *     2.0736 *    -6.5814 *  0.0000     2          
   197  Na    c      9.0156 *     6.5814 *    -2.0736 *  0.0000     2          
   198  O     c      9.0156 *    -6.9420 *     0.1803 *  0.0000     2          
   199  Cl    c      6.7617 *     8.8353 *     2.4342 *  0.0000     2          
   200  Na    c      6.7617 *    -2.4342 *    -8.8353 *  0.0000     2          
   201  Na    c      9.0156 *    -2.4342 *    -6.5814 *  0.0000     2          
   202  Na    c      9.0156 *     6.5814 *     2.4342 *  0.0000     2          
   203  O     c      0.0000     -11.4498 *     0.1803 *  0.0000     1          
   204  Cl    c      2.2539 *     8.8353 *     6.9420 *  0.0000     2          
   205  Cl    c     11.2695 *    -0.1803 *    -2.0736 *  0.0000     2          
   206  Na    c     11.2695 *     2.0736 *     0.1803 *  0.0000     2          
   207  Na    c      2.2539 *    -6.9420 *    -8.8353 *  0.0000     2          
   208  O     c      0.0000      -6.9420 *     9.1959 *  0.0000     1          
   209  Cl    c      2.2539 *    -9.1959 *    -6.5814 *  0.0000     2          
   210  Cl    c     11.2695 *    -0.1803 *     2.4342 *  0.0000     2          
   211  Na    c      2.2539 *     6.5814 *     9.1959 *  0.0000     2          
   212  Na    c     11.2695 *    -2.4342 *     0.1803 *  0.0000     2          
   213  Na    c      9.0156 *     2.0736 *     6.9420 *  0.0000     2          
   214  Na    c      9.0156 *    -6.9420 *    -2.0736 *  0.0000     2          
   215  Na    c      6.7617 *     2.0736 *     9.1959 *  0.0000     2          
   216  Cl    c      6.7617 *    -9.1959 *    -2.0736 *  0.0000     2          
   217  Na    c      0.0000       2.0736 *    11.4498 *  0.0000     1          
   218  Na    c      0.0000     -11.4498 *    -2.0736 *  0.0000     1          
   219  Na    c      9.0156 *    -2.4342 *     6.9420 *  0.0000     2          
   220  Na    c      9.0156 *    -6.9420 *     2.4342 *  0.0000     2          
   221  Cl    c      2.2539 *    -0.1803 *    11.4498 *  0.0000     2          
   222  Na    c      2.2539 *   -11.4498 *     0.1803 *  0.0000     2          
   223  Na    c      6.7617 *    -2.4342 *     9.1959 *  0.0000     2          
   224  Cl    c      6.7617 *    -9.1959 *     2.4342 *  0.0000     2          
   225  Na    c      0.0000      -2.4342 *    11.4498 *  0.0000     1          
   226  Na    c      0.0000     -11.4498 *     2.4342 *  0.0000     1          
   227  Na    c      2.2539 *    -6.9420 *     9.1959 *  0.0000     2          
   228  Cl    c      2.2539 *    -9.1959 *     6.9420 *  0.0000     2          
   229  O     c      0.0000      11.0892 *    -4.3275 *  0.0000     1          
   230  O     c     -4.5078 *     6.5814 *    -8.8353 *  0.0000     2          
   231  O     c      4.5078 *    11.0892 *     0.1803 *  0.0000     2          
   232  O     c      9.0156 *     6.5814 *    -4.3275 *  0.0000     2          
   233  O     s      0.0000       2.0736 *     0.1803 *  0.0000     1          
   234  O     s      0.0000      -2.4342 *     0.1803 *  0.0000     1          
   235  Cl    s      2.2539 *    -0.1803 *    -2.0736 *  0.0000     2          
   236  Cl    s      2.2539 *    -0.1803 *     2.4342 *  0.0000     2          
   237  O     s      0.0000       2.0736 *    -4.3275 *  0.0000     1          
   238  O     s     -4.5078 *     2.0736 *     0.1803 *  0.0000     2          
   239  O     s      0.0000      -2.4342 *    -4.3275 *  0.0000     1          
   240  O     s      0.0000       2.0736 *     4.6881 *  0.0000     1          
   241  O     s     -4.5078 *    -2.4342 *     0.1803 *  0.0000     2          
   242  O     s      0.0000      -2.4342 *     4.6881 *  0.0000     1          
   243  Cl    s      2.2539 *     4.3275 *    -2.0736 *  0.0000     2          
   244  Cl    s      2.2539 *     4.3275 *     2.4342 *  0.0000     2          
   245  Cl    s      2.2539 *    -4.6881 *    -2.0736 *  0.0000     2          
   246  Cl    s      2.2539 *    -4.6881 *     2.4342 *  0.0000     2          
   247  O     s      0.0000       6.5814 *     0.1803 *  0.0000     1          
   248  O     s      4.5078 *     2.0736 *    -4.3275 *  0.0000     2          
   249  O     s     -4.5078 *    -2.4342 *    -4.3275 *  0.0000     2          
   250  O     s      4.5078 *     2.0736 *     4.6881 *  0.0000     2          
   251  O     s     -4.5078 *    -2.4342 *     4.6881 *  0.0000     2          
   252  O     s      0.0000      -6.9420 *     0.1803 *  0.0000     1          
   253  Cl    s      2.2539 *    -0.1803 *    -6.5814 *  0.0000     2          
   254  Cl    s      6.7617 *    -0.1803 *    -2.0736 *  0.0000     2          
   255  Cl    s      6.7617 *    -0.1803 *     2.4342 *  0.0000     2          
   256  Cl    s      2.2539 *    -0.1803 *     6.9420 *  0.0000     2          
   257  O     s      0.0000       6.5814 *    -4.3275 *  0.0000     1          
   258  O     s     -4.5078 *     6.5814 *     0.1803 *  0.0000     2          
   259  O     s      0.0000       6.5814 *     4.6881 *  0.0000     1          
   260  O     s      0.0000      -6.9420 *    -4.3275 *  0.0000     1          
   261  Cl    s      2.2539 *     4.3275 *    -6.5814 *  0.0000     2          
   262  O     s      4.5078 *    -6.9420 *     0.1803 *  0.0000     2          
   263  Cl    s      6.7617 *     4.3275 *    -2.0736 *  0.0000     2          
   264  O     s      0.0000      -6.9420 *     4.6881 *  0.0000     1          
   265  Cl    s      2.2539 *    -4.6881 *    -6.5814 *  0.0000     2          
   266  Cl    s      6.7617 *     4.3275 *     2.4342 *  0.0000     2          
   267  Cl    s      2.2539 *     4.3275 *     6.9420 *  0.0000     2          
   268  Cl    s      6.7617 *    -4.6881 *    -2.0736 *  0.0000     2          
   269  Cl    s      6.7617 *    -4.6881 *     2.4342 *  0.0000     2          
   270  Cl    s      2.2539 *    -4.6881 *     6.9420 *  0.0000     2          
   271  O     s     -4.5078 *     6.5814 *    -4.3275 *  0.0000     2          
   272  O     s      0.0000       2.0736 *    -8.8353 *  0.0000     1          
   273  O     s      0.0000      -2.4342 *    -8.8353 *  0.0000     1          
   274  O     s      9.0156 *     2.0736 *     0.1803 *  0.0000     2          
   275  O     s     -4.5078 *     6.5814 *     4.6881 *  0.0000     2          
   276  O     s      9.0156 *    -2.4342 *     0.1803 *  0.0000     2          
   277  O     s      4.5078 *    -6.9420 *    -4.3275 *  0.0000     2          
   278  Cl    s      2.2539 *     8.8353 *    -2.0736 *  0.0000     2          
   279  O     s      0.0000       2.0736 *     9.1959 *  0.0000     1          
   280  Cl    s      2.2539 *     8.8353 *     2.4342 *  0.0000     2          
   281  Cl    s      6.7617 *    -0.1803 *    -6.5814 *  0.0000     2          
   282  O     s      0.0000      -2.4342 *     9.1959 *  0.0000     1          
   283  O     s      4.5078 *    -6.9420 *     4.6881 *  0.0000     2          
   284  Cl    s      2.2539 *    -9.1959 *    -2.0736 *  0.0000     2          
   285  Cl    s      6.7617 *    -0.1803 *     6.9420 *  0.0000     2          
   286  Cl    s      2.2539 *    -9.1959 *     2.4342 *  0.0000     2          
   287  O     s      4.5078 *     2.0736 *    -8.8353 *  0.0000     2          
   288  O     s      9.0156 *     2.0736 *    -4.3275 *  0.0000     2          
   289  O     s     -4.5078 *    -2.4342 *    -8.8353 *  0.0000     2          
   290  O     s      9.0156 *    -2.4342 *    -4.3275 *  0.0000     2          
   291  O     s      9.0156 *     2.0736 *     4.6881 *  0.0000     2          
   292  Cl    s      6.7617 *     4.3275 *    -6.5814 *  0.0000     2          
   293  O     s      4.5078 *     2.0736 *     9.1959 *  0.0000     2          
   294  O     s      9.0156 *    -2.4342 *     4.6881 *  0.0000     2          
   295  O     s     -4.5078 *    -2.4342 *     9.1959 *  0.0000     2          
   296  Cl    s      6.7617 *    -4.6881 *    -6.5814 *  0.0000     2          
   297  Cl    s      6.7617 *     4.3275 *     6.9420 *  0.0000     2          
   298  Cl    s      6.7617 *    -4.6881 *     6.9420 *  0.0000     2          
   299  O     s      0.0000       6.5814 *    -8.8353 *  0.0000     1          
   300  O     s      0.0000      11.0892 *     0.1803 *  0.0000     1          
   301  O     s      9.0156 *     6.5814 *     0.1803 *  0.0000     2          
   302  O     s      0.0000      -6.9420 *    -8.8353 *  0.0000     1          
   303  Cl    s      2.2539 *     8.8353 *    -6.5814 *  0.0000     2          
   304  O     s      0.0000       6.5814 *     9.1959 *  0.0000     1          
   305  Cl    s      2.2539 *    -0.1803 *   -11.0892 *  0.0000     2          
   306  Cl    s      6.7617 *     8.8353 *    -2.0736 *  0.0000     2          
   307  O     s      9.0156 *    -6.9420 *     0.1803 *  0.0000     2          
   308  Cl    s      6.7617 *     8.8353 *     2.4342 *  0.0000     2          
   309  O     s      0.0000     -11.4498 *     0.1803 *  0.0000     1          
   310  Cl    s      2.2539 *     8.8353 *     6.9420 *  0.0000     2          
   311  Cl    s     11.2695 *    -0.1803 *    -2.0736 *  0.0000     2          
   312  O     s      0.0000      -6.9420 *     9.1959 *  0.0000     1          
   313  Cl    s      2.2539 *    -9.1959 *    -6.5814 *  0.0000     2          
   314  Cl    s     11.2695 *    -0.1803 *     2.4342 *  0.0000     2          
   315  Cl    s      6.7617 *    -9.1959 *    -2.0736 *  0.0000     2          
   316  Cl    s      2.2539 *    -0.1803 *    11.4498 *  0.0000     2          
   317  Cl    s      6.7617 *    -9.1959 *     2.4342 *  0.0000     2          
   318  Cl    s      2.2539 *    -9.1959 *     6.9420 *  0.0000     2          
   319  O     s      0.0000      11.0892 *    -4.3275 *  0.0000     1          
   320  O     s     -4.5078 *     6.5814 *    -8.8353 *  0.0000     2          
   321  O     s      4.5078 *    11.0892 *     0.1803 *  0.0000     2          
   322  O     s      9.0156 *     6.5814 *    -4.3275 *  0.0000     2          
--------------------------------------------------------------------------------

  Components of defect energy : 

--------------------------------------------------------------------------------
  Region 1 - region 1                   =      2.55301231 eV
  Region 1 - region 2a (unrelaxed)      =      5.81385605 eV
  Region 1 - 2a (relaxed - correction)  =     -0.30958746 eV
  Region 1 (Total)                      =      8.05728090 eV
  Region 2a                             =      0.15468999 eV
  Region 2b                             =     -0.43831521 eV
--------------------------------------------------------------------------------
  Total defect energy                   =      7.77365568 eV
--------------------------------------------------------------------------------

  Largest displacement in region 2 =   0.0324 Angstroms


  Number of variables =      875

  Maximum number of calculations  =        1000
  Maximum Hessian update interval =          10
  Maximum step size               =   1.0000000
  Maximum parameter tolerance     =   0.0000100
  Maximum function  tolerance     =   0.0000100
  Maximum gradient  tolerance     =   0.0010000

  Symmetry adapted optimisation

  Symmetry to be used for second derivatives

  Newton-Raphson optimiser to be used

  BFGS hessian update to be used

  Lower half triangular hessian to be used

  Start of defect optimisation :

  Cycle:      0 Defect Energy:   7.773656  Gnorm:     0.019011  CPU:    4.499
  ** Hessian calculated **
  Cycle:      1 Defect Energy:   6.046024  Gnorm:     0.007559  CPU:   10.123
  Cycle:      2 Defect Energy:   5.432605  Gnorm:     0.005658  CPU:   14.833
  Cycle:      3 Defect Energy:   5.307762  Gnorm:     0.003455  CPU:   18.459
  Cycle:      4 Defect Energy:   5.258962  Gnorm:     0.003328  CPU:   19.472
  Cycle:      5 Defect Energy:   5.192123  Gnorm:     0.002719  CPU:   20.583
  Cycle:      6 Defect Energy:   5.105271  Gnorm:     0.002292  CPU:   21.613
  Cycle:      7 Defect Energy:   5.002755  Gnorm:     0.002008  CPU:   22.583
  Cycle:      8 Defect Energy:   4.938496  Gnorm:     0.001712  CPU:   23.556
  Cycle:      9 Defect Energy:   4.890371  Gnorm:     0.001805  CPU:   24.547
  Cycle:     10 Defect Energy:   4.842489  Gnorm:     0.001914  CPU:   25.580
  ** Hessian calculated **
  Cycle:     11 Defect Energy:   4.823800  Gnorm:     0.001588  CPU:   27.958
  Cycle:     12 Defect Energy:   4.801314  Gnorm:     0.001515  CPU:   28.866
  Cycle:     13 Defect Energy:   4.772532  Gnorm:     0.001493  CPU:   29.866
  Cycle:     14 Defect Energy:   4.738025  Gnorm:     0.001458  CPU:   31.116
  Cycle:     15 Defect Energy:   4.710438  Gnorm:     0.001390  CPU:   35.123
  Cycle:     16 Defect Energy:   4.688342  Gnorm:     0.001366  CPU:   36.302
  Cycle:     17 Defect Energy:   4.667494  Gnorm:     0.001352  CPU:   37.446
  Cycle:     18 Defect Energy:   4.645602  Gnorm:     0.001308  CPU:   38.594
  Cycle:     19 Defect Energy:   4.624161  Gnorm:     0.001271  CPU:   39.742
  Cycle:     20 Defect Energy:   4.601647  Gnorm:     0.001219  CPU:   40.966
  ** Hessian calculated **
  Cycle:     21 Defect Energy:   4.584970  Gnorm:     0.001151  CPU:   43.856
  Cycle:     22 Defect Energy:   4.565700  Gnorm:     0.001041  CPU:   45.031
  Cycle:     23 Defect Energy:   4.560020  Gnorm:     0.000990  CPU:   46.095
  ** Hessian calculated **
  Cycle:     24 Defect Energy:   4.533008  Gnorm:     0.001011  CPU:   48.841
  Cycle:     25 Defect Energy:   4.457940  Gnorm:     0.000564  CPU:   49.945
  Cycle:     26 Defect Energy:   4.441486  Gnorm:     0.000442  CPU:   50.930
  Cycle:     27 Defect Energy:   4.430083  Gnorm:     0.000242  CPU:   51.943
  Cycle:     28 Defect Energy:   4.423653  Gnorm:     0.000189  CPU:   52.975
  Cycle:     29 Defect Energy:   4.419973  Gnorm:     0.000133  CPU:   54.009
  Cycle:     30 Defect Energy:   4.416838  Gnorm:     0.000168  CPU:   55.104
  Cycle:     31 Defect Energy:   4.413766  Gnorm:     0.000146  CPU:   56.068
  Cycle:     32 Defect Energy:   4.412066  Gnorm:     0.000137  CPU:   57.053
  Cycle:     33 Defect Energy:   4.410399  Gnorm:     0.000125  CPU:   58.138
  ** Hessian calculated **
  Cycle:     34 Defect Energy:   4.408948  Gnorm:     0.000091  CPU:   60.553
  Cycle:     35 Defect Energy:   4.408149  Gnorm:     0.000068  CPU:   61.494
  Cycle:     36 Defect Energy:   4.407671  Gnorm:     0.000050  CPU:   62.445
  Cycle:     37 Defect Energy:   4.407382  Gnorm:     0.000036  CPU:   63.409
  Cycle:     38 Defect Energy:   4.407198  Gnorm:     0.000026  CPU:   63.970
  Cycle:     39 Defect Energy:   4.407073  Gnorm:     0.000019  CPU:   68.473
  Cycle:     40 Defect Energy:   4.406981  Gnorm:     0.000014  CPU:   69.740
  Cycle:     41 Defect Energy:   4.406906  Gnorm:     0.000010  CPU:   70.876
  Cycle:     42 Defect Energy:   4.406836  Gnorm:     0.000008  CPU:   72.020
  Cycle:     43 Defect Energy:   4.406753  Gnorm:     0.000008  CPU:   73.175
  ** Hessian calculated **
  Cycle:     44 Defect Energy:   4.406627  Gnorm:     0.000010  CPU:   76.108
  ** Hessian calculated **


  **** Optimisation achieved ****


  Final defect energy  =        4.40662666
  Final defect Gnorm   =        0.00000522

  Components of defect energy : 

--------------------------------------------------------------------------------
  Region 1 - region 1                   =     -1.55076232 eV
  Region 1 - region 2a (unrelaxed)      =      6.49800990 eV
  Region 1 - 2a (relaxed - correction)  =     -0.21965140 eV
  Region 1 (Total)                      =      4.72759617 eV
  Region 2a                             =      0.10977406 eV
  Region 2b                             =     -0.43074357 eV
--------------------------------------------------------------------------------
  Total defect energy                   =      4.40662666 eV
--------------------------------------------------------------------------------

  Largest displacement in region 2 =   0.0313 Angstroms

  Final coordinates of region 1 :

--------------------------------------------------------------------------------
   No.  Atomic        x           y           z          Radius      Charge
        Label       (Angs)      (Angs)      (Angs)       (Angs)       (e) 
--------------------------------------------------------------------------------
     1  Na    c     2.253894    0.180311    1.714693    0.000000    1.000000
     2  O     c     2.253894    2.266445    2.401542    0.000000    0.183000
     3  O     c     2.253894   -2.167364    2.238113    0.000000    0.183000
     4  Cl    c     4.626888   -0.090132   -0.003659    0.000000    1.485000
     5  Cl    c    -0.119101   -0.090132   -0.003659    0.000000    1.485000
     6  Na    c     4.415697    2.347644    1.817620    0.000000    1.000000
     7  Na    c     0.092090    2.347644    1.817620    0.000000    1.000000
     8  Na    c     2.253894   -2.607844    0.009496    0.000000    1.000000
     9  Na    c     2.253894    1.887203    4.559997    0.000000    1.000000
    10  Cl    c     4.610010   -0.082977    4.617680    0.000000    1.485000
    11  Cl    c    -0.102223   -0.082977    4.617680    0.000000    1.485000
    12  Na    c     4.496080   -2.150991    2.230862    0.000000    1.000000
    13  Na    c     0.011707   -2.150991    2.230862    0.000000    1.000000
    14  Na    c     2.253894   -1.738594    4.481042    0.000000    1.000000
    15  Na    c     2.253894    4.476236    2.334845    0.000000    1.000000
    16  Na    c     2.253894    0.051146   -1.847924    0.000000    1.000000
    17  Na    c    -2.193674    0.025447    2.280201    0.000000    1.000000
    18  Na    c     6.701461    0.025447    2.280201    0.000000    1.000000
    19  Na    c     2.253894   -0.000004    7.180888    0.000000    1.000000
    20  Na    c     2.253894   -4.442495    2.638786    0.000000    1.000000
    21  O     c     2.253894    2.224415   -2.313613    0.000000    0.183000
    22  O     c    -2.209223    2.273335    2.236228    0.000000    0.183000
    23  O     c     6.717010    2.273335    2.236228    0.000000    0.183000
    24  O     c     2.253894   -2.237029   -2.237515    0.000000    0.183000
    25  O     c     2.253894    2.260420    6.821928    0.000000    0.183000
    26  O     c    -2.250868   -2.236776    2.259856    0.000000    0.183000
    27  O     c     6.758655   -2.236776    2.259856    0.000000    0.183000
    28  O     c     2.253894   -2.246438    6.735815    0.000000    0.183000
    29  Cl    c     4.630769    4.668208   -0.003983    0.000000    1.485000
    30  Cl    c    -0.122982    4.668208   -0.003983    0.000000    1.485000
    31  Na    c     4.430071    2.267219   -1.831755    0.000000    1.000000
    32  Na    c     0.077716    2.267219   -1.831755    0.000000    1.000000
    33  Na    c    -2.601887    2.173578    0.004158    0.000000    1.000000
    34  Na    c     7.109674    2.173578    0.004158    0.000000    1.000000
    35  Cl    c     4.581424    4.641945    4.588621    0.000000    1.485000
    36  Cl    c    -0.073637    4.641945    4.588621    0.000000    1.485000
    37  Na    c     4.504451   -2.283086   -2.207250    0.000000    1.000000
    38  Na    c     0.003336   -2.283086   -2.207250    0.000000    1.000000
    39  Na    c    -2.278251   -2.198835   -0.000109    0.000000    1.000000
    40  Na    c     6.786038   -2.198835   -0.000109    0.000000    1.000000
    41  Na    c    -1.793961    2.294636    4.471512    0.000000    1.000000
    42  Na    c     6.301749    2.294636    4.471512    0.000000    1.000000
    43  Na    c     4.503991    2.296540    6.979223    0.000000    1.000000
    44  Na    c     0.003796    2.296540    6.979223    0.000000    1.000000
    45  Cl    c     4.531240   -4.514353    0.009503    0.000000    1.485000
    46  Cl    c    -0.023453   -4.514353    0.009503    0.000000    1.485000
    47  Na    c    -2.247765   -2.196693    4.508717    0.000000    1.000000
    48  Na    c     6.755552   -2.196693    4.508717    0.000000    1.000000
    49  Na    c     4.507904   -2.270325    6.685702    0.000000    1.000000
    50  Na    c    -0.000116   -2.270325    6.685702    0.000000    1.000000
    51  Cl    c     4.549607   -4.533043    4.511846    0.000000    1.485000
    52  Cl    c    -0.041820   -4.533043    4.511846    0.000000    1.485000
    53  Na    c     2.253894    4.408626   -1.906478    0.000000    1.000000
    54  Na    c     6.767151    4.526479    2.159684    0.000000    1.000000
    55  Na    c    -2.259364    4.526479    2.159684    0.000000    1.000000
    56  Na    c    -2.113836    0.011061   -2.319990    0.000000    1.000000
    57  Na    c     6.621623    0.011061   -2.319990    0.000000    1.000000
    58  Na    c     2.253894    4.488265    6.328238    0.000000    1.000000
    59  Na    c     2.253894   -4.472989   -2.669339    0.000000    1.000000
    60  Na    c    -2.161973    0.007198    6.756057    0.000000    1.000000
    61  Na    c     6.669761    0.007198    6.756057    0.000000    1.000000
    62  Na    c     6.710562   -4.489059    2.270603    0.000000    1.000000
    63  Na    c    -2.202775   -4.489059    2.270603    0.000000    1.000000
    64  O     c     2.253894    6.765701    2.265520    0.000000    0.183000
    65  O     c     6.723182    2.256701   -2.229564    0.000000    0.183000
    66  O     c    -2.215394    2.256701   -2.229564    0.000000    0.183000
    67  Na    c     2.253894   -4.487666    6.335785    0.000000    1.000000
    68  O     c    -2.256433   -2.246808   -2.260626    0.000000    0.183000
    69  O     c     6.764221   -2.246808   -2.260626    0.000000    0.183000
    70  O     c     6.750024    2.263555    6.724463    0.000000    0.183000
    71  O     c    -2.242237    2.263555    6.724463    0.000000    0.183000
    72  Na    c     2.253894    2.179464   -4.500301    0.000000    1.000000
    73  Na    c     2.253894    6.809442    0.014361    0.000000    1.000000
    74  O     c    -2.264177   -2.258351    6.763016    0.000000    0.183000
    75  O     c     6.771964   -2.258351    6.763016    0.000000    0.183000
    76  O     c     2.253894   -6.715171    2.247051    0.000000    0.183000
    77  Cl    c     4.611082   -0.084673   -4.608651    0.000000    1.485000
    78  Cl    c    -0.103295   -0.084673   -4.608651    0.000000    1.485000
    79  Na    c     4.506205    6.723028    2.215115    0.000000    1.000000
    80  Na    c     0.001582    6.723028    2.215115    0.000000    1.000000
    81  Na    c     2.253894   -1.828946   -4.479423    0.000000    1.000000
    82  Na    c     2.253894    6.971094    4.511055    0.000000    1.000000
    83  Cl    c     9.053947   -0.032637   -0.003647    0.000000    1.485000
    84  Cl    c    -4.546160   -0.032637   -0.003647    0.000000    1.485000
    85  Na    c     8.972695    2.277369    2.604487    0.000000    1.000000
    86  Na    c    -4.464908    2.277369    2.604487    0.000000    1.000000
    87  Cl    c     9.053011   -0.046613    4.494184    0.000000    1.485000
    88  Cl    c    -4.545224   -0.046613    4.494184    0.000000    1.485000
    89  Na    c     9.007782   -2.267674    2.271079    0.000000    1.000000
    90  Na    c    -4.499995   -2.267674    2.271079    0.000000    1.000000
    91  Na    c     2.253894    2.706084    9.036346    0.000000    1.000000
    92  Na    c     2.253894   -6.359632   -0.003023    0.000000    1.000000
    93  Cl    c     4.550134    0.007131    9.039191    0.000000    1.485000
    94  Cl    c    -0.042347    0.007131    9.039191    0.000000    1.485000
    95  Na    c     4.502421   -6.717846    2.173259    0.000000    1.000000
    96  Na    c     0.005366   -6.717846    2.173259    0.000000    1.000000
    97  Na    c     2.253894   -2.638533    8.979196    0.000000    1.000000
    98  Na    c     2.253894   -7.094857    4.488869    0.000000    1.000000
    99  Na    c     6.754458    4.508330   -2.121327    0.000000    1.000000
   100  Na    c    -2.246671    4.508330   -2.121327    0.000000    1.000000
   101  Na    c     6.865054    4.511929    6.663266    0.000000    1.000000
   102  Na    c    -2.357267    4.511929    6.663266    0.000000    1.000000
   103  Na    c     6.846563   -4.495768   -2.253686    0.000000    1.000000
   104  Na    c    -2.338776   -4.495768   -2.253686    0.000000    1.000000
   105  O     c     2.253894    6.706328   -2.230831    0.000000    0.183000
   106  O     c    -2.258578    6.786347    2.258005    0.000000    0.183000
   107  O     c     6.766365    6.786347    2.258005    0.000000    0.183000
   108  Na    c     6.865431   -4.504240    6.684218    0.000000    1.000000
   109  Na    c    -2.357644   -4.504240    6.684218    0.000000    1.000000
   110  O     c     2.253894    6.730499    6.765866    0.000000    0.183000
   111  O     c     2.253894   -6.715956   -2.247405    0.000000    0.183000
   112  Cl    c     4.580358    4.610054   -4.642508    0.000000    1.485000
   113  Cl    c    -0.072571    4.610054   -4.642508    0.000000    1.485000
   114  Na    c     4.507467    6.694614   -2.248780    0.000000    1.000000
   115  Na    c     0.000320    6.694614   -2.248780    0.000000    1.000000
   116  Na    c    -2.268717    6.843601   -0.001642    0.000000    1.000000
   117  Na    c     6.776505    6.843601   -0.001642    0.000000    1.000000
   118  Na    c     6.427420    2.344839   -4.479741    0.000000    1.000000
   119  Na    c    -1.919633    2.344839   -4.479741    0.000000    1.000000
   120  O     c     6.759865   -6.754594    2.253021    0.000000    0.183000
   121  O     c    -2.252078   -6.754594    2.253021    0.000000    0.183000
   122  Cl    c     9.030168    4.517933   -0.004042    0.000000    1.485000
   123  Cl    c    -4.522380    4.517933   -0.004042    0.000000    1.485000
   124  Na    c     8.976975    2.227243   -2.559767    0.000000    1.000000
   125  Na    c    -4.469188    2.227243   -2.559767    0.000000    1.000000
   126  Na    c    -2.130351    6.759879    4.507025    0.000000    1.000000
   127  Na    c     6.638138    6.759879    4.507025    0.000000    1.000000
   128  Na    c     6.716230   -2.261055   -4.511286    0.000000    1.000000
   129  Na    c    -2.208443   -2.261055   -4.511286    0.000000    1.000000
   130  O     c     2.253894   -6.736513    6.740747    0.000000    0.183000
   131  Cl    c     4.546868   -4.540536   -4.512657    0.000000    1.485000
   132  Cl    c    -0.039081   -4.540536   -4.512657    0.000000    1.485000
   133  Na    c     4.512164    6.651488    6.808247    0.000000    1.000000
   134  Na    c    -0.004377    6.651488    6.808247    0.000000    1.000000
   135  Cl    c     9.063424    4.533537    4.519563    0.000000    1.485000
   136  Cl    c    -4.555637    4.533537    4.519563    0.000000    1.485000
   137  Na    c     9.012189   -2.134802   -2.279171    0.000000    1.000000
   138  Na    c    -4.504402   -2.134802   -2.279171    0.000000    1.000000
   139  Cl    c     4.528349    4.516706    9.065871    0.000000    1.485000
   140  Cl    c    -0.020561    4.516706    9.065871    0.000000    1.485000
   141  Na    c     4.512545   -6.682105   -2.173002    0.000000    1.000000
   142  Na    c    -0.004757   -6.682105   -2.173002    0.000000    1.000000
   143  Na    c     9.000324    2.166629    6.449619    0.000000    1.000000
   144  Na    c    -4.492537    2.166629    6.449619    0.000000    1.000000
   145  Cl    c     9.027370   -4.523421    0.009782    0.000000    1.485000
   146  Cl    c    -4.519583   -4.523421    0.009782    0.000000    1.485000
   147  Na    c     6.890319   -6.717274    0.004931    0.000000    1.000000
   148  Na    c    -2.382532   -6.717274    0.004931    0.000000    1.000000
   149  Na    c    -2.460867    2.297916    8.985949    0.000000    1.000000
   150  Na    c     6.968655    2.297916    8.985949    0.000000    1.000000
   151  Na    c     9.017679   -2.151102    6.776606    0.000000    1.000000
   152  Na    c    -4.509892   -2.151102    6.776606    0.000000    1.000000
   153  Cl    c     9.042447   -4.533297    4.511090    0.000000    1.485000
   154  Cl    c    -4.534660   -4.533297    4.511090    0.000000    1.485000
   155  Na    c     6.641204   -6.803471    4.503106    0.000000    1.000000
   156  Na    c    -2.133417   -6.803471    4.503106    0.000000    1.000000
   157  Na    c    -2.228152   -2.304221    9.008302    0.000000    1.000000
   158  Na    c     6.735939   -2.304221    9.008302    0.000000    1.000000
   159  Cl    c     4.521878   -4.542051    9.048765    0.000000    1.485000
   160  Cl    c    -0.014091   -4.542051    9.048765    0.000000    1.485000
   161  Na    c     4.505059   -6.661434    6.804061    0.000000    1.000000
   162  Na    c     0.002728   -6.661434    6.804061    0.000000    1.000000
   163  Na    c     2.253894    9.022830    2.181776    0.000000    1.000000
   164  Na    c     2.253894    0.003004   -6.964032    0.000000    1.000000
   165  Na    c    11.174860    0.005385    2.190159    0.000000    1.000000
   166  Na    c    -6.667072    0.005385    2.190159    0.000000    1.000000
   167  O     c    -2.259759    6.767104   -2.259897    0.000000    0.183000
   168  O     c     6.767546    6.767104   -2.259897    0.000000    0.183000
   169  O     c     2.253894    2.244403   -6.787097    0.000000    0.183000
   170  O     c     2.253894   -2.236133   -6.734200    0.000000    0.183000
   171  Na    c     2.253894    0.005168   10.930778    0.000000    1.000000
   172  Na    c     2.253894   -8.980922    1.967234    0.000000    1.000000
   173  O     c    11.232528    2.257069    2.247626    0.000000    0.183000
   174  O     c    -6.724741    2.257069    2.247626    0.000000    0.183000
   175  O     c    -2.266525    6.766606    6.765344    0.000000    0.183000
   176  O     c     6.774313    6.766606    6.765344    0.000000    0.183000
   177  Na    c     2.253894    6.571981   -4.485713    0.000000    1.000000
   178  O     c    11.267274   -2.252091    2.251742    0.000000    0.183000
   179  O     c    -6.759487   -2.252091    2.251742    0.000000    0.183000
   180  O     c     6.769332   -6.756311   -2.245119    0.000000    0.183000
   181  O     c    -2.261545   -6.756311   -2.245119    0.000000    0.183000
   182  Cl    c     4.490717    9.038657    0.031325    0.000000    1.485000
   183  Cl    c     0.017071    9.038657    0.031325    0.000000    1.485000
   184  Na    c     4.493483    2.251697   -6.840298    0.000000    1.000000
   185  Na    c     0.014304    2.251697   -6.840298    0.000000    1.000000
   186  O     c     2.253894    2.253241   11.246158    0.000000    0.183000
   187  Cl    c     4.520115    9.045959    4.504078    0.000000    1.485000
   188  Cl    c    -0.012328    9.045959    4.504078    0.000000    1.485000
   189  Na    c     9.012005    6.806204    2.336361    0.000000    1.000000
   190  Na    c    -4.504218    6.806204    2.336361    0.000000    1.000000
   191  Cl    c     9.073586   -0.029537   -4.512165    0.000000    1.485000
   192  Cl    c    -4.565799   -0.029537   -4.512165    0.000000    1.485000
   193  Na    c     4.510188   -2.254723   -6.714524    0.000000    1.000000
   194  Na    c    -0.002400   -2.254723   -6.714524    0.000000    1.000000
   195  Na    c    11.004279    2.283683   -0.013166    0.000000    1.000000
   196  Na    c    -6.496492    2.283683   -0.013166    0.000000    1.000000
   197  O     c     2.253894   -2.248509   11.231574    0.000000    0.183000
   198  O     c     6.761401   -6.758506    6.757526    0.000000    0.183000
   199  O     c    -2.253614   -6.758506    6.757526    0.000000    0.183000
   200  Na    c    11.235061   -2.341803    0.000101    0.000000    1.000000
   201  Na    c    -6.727273   -2.341803    0.000101    0.000000    1.000000
   202  Na    c    11.499517    2.289262    4.482957    0.000000    1.000000
   203  Na    c    -6.991730    2.289262    4.482957    0.000000    1.000000
   204  Na    c     2.253894    6.518413    9.017305    0.000000    1.000000
   205  Na    c     2.253894   -7.009434   -4.486862    0.000000    1.000000
   206  Na    c    11.268977   -2.204074    4.507558    0.000000    1.000000
   207  Na    c    -6.761190   -2.204074    4.507558    0.000000    1.000000
   208  Na    c     4.522155    2.196676   11.190238    0.000000    1.000000
   209  Na    c    -0.014368    2.196676   11.190238    0.000000    1.000000
   210  Cl    c     4.504474   -9.058520   -0.003839    0.000000    1.485000
   211  Cl    c     0.003313   -9.058520   -0.003839    0.000000    1.485000
   212  Na    c     9.014991   -6.710722    2.361704    0.000000    1.000000
   213  Na    c    -4.507204   -6.710722    2.361704    0.000000    1.000000
   214  Cl    c     9.025952   -0.011786    9.032461    0.000000    1.485000
   215  Cl    c    -4.518165   -0.011786    9.032461    0.000000    1.485000
   216  Na    c     4.503741   -2.188718   11.254575    0.000000    1.000000
   217  Na    c     0.004046   -2.188718   11.254575    0.000000    1.000000
   218  Cl    c     4.532045   -9.026317    4.507712    0.000000    1.485000
   219  Cl    c    -0.024257   -9.026317    4.507712    0.000000    1.485000
   220  Na    c     2.253894   -6.510001    9.006343    0.000000    1.000000
   221  Na    c     2.253894    8.983950   -2.337094    0.000000    1.000000
   222  Na    c     2.253894    4.501480   -6.737950    0.000000    1.000000
   223  Na    c    -2.210405    9.030342    2.276258    0.000000    1.000000
   224  Na    c     6.718193    9.030342    2.276258    0.000000    1.000000
   225  Na    c     6.751919    0.005041   -6.698007    0.000000    1.000000
   226  Na    c    -2.244132    0.005041   -6.698007    0.000000    1.000000
   227  Na    c     2.253894    8.992401    6.917040    0.000000    1.000000
   228  Na    c    11.285731    0.005762   -2.184849    0.000000    1.000000
   229  Na    c    -6.777944    0.005762   -2.184849    0.000000    1.000000
   230  Na    c    11.226770    4.510589    2.184414    0.000000    1.000000
   231  Na    c    -6.718983    4.510589    2.184414    0.000000    1.000000
   232  Na    c     2.253894   -4.496188   -6.546101    0.000000    1.000000
   233  O     c     6.736912    2.261369   -6.744836    0.000000    0.183000
   234  O     c    -2.229125    2.261369   -6.744836    0.000000    0.183000
   235  Na    c     2.253894    4.492059   11.543890    0.000000    1.000000
   236  Na    c    11.312166    0.008053    6.764449    0.000000    1.000000
   237  Na    c    -6.804378    0.008053    6.764449    0.000000    1.000000
   238  Na    c     2.253894   -8.989534   -2.053808    0.000000    1.000000
   239  Na    c    11.296266   -4.503314    2.306324    0.000000    1.000000
   240  Na    c    -6.788479   -4.503314    2.306324    0.000000    1.000000
   241  O     c    11.244220    2.251376   -2.268439    0.000000    0.183000
   242  O     c    -6.736432    2.251376   -2.268439    0.000000    0.183000
   243  O     c    -2.263573   -2.262370   -6.766228    0.000000    0.183000
   244  O     c     6.771360   -2.262370   -6.766228    0.000000    0.183000
   245  Na    c     6.836662    0.000556   11.202938    0.000000    1.000000
   246  Na    c    -2.328875    0.000556   11.202938    0.000000    1.000000
   247  Na    c    -2.259141   -9.009063    2.216301    0.000000    1.000000
   248  Na    c     6.766929   -9.009063    2.216301    0.000000    1.000000
   249  O     c    11.269962   -2.248599   -2.248917    0.000000    0.183000
   250  O     c    -6.762175   -2.248599   -2.248917    0.000000    0.183000
   251  Na    c     2.253894   -4.490430   11.489731    0.000000    1.000000
   252  Na    c     2.253894   -8.996152    6.957120    0.000000    1.000000
   253  Na    c    -2.225729    6.690269   -4.514524    0.000000    1.000000
   254  Na    c     6.733516    6.690269   -4.514524    0.000000    1.000000
   255  O     c    11.260803    2.250399    6.728103    0.000000    0.183000
   256  O     c    -6.753016    2.250399    6.728103    0.000000    0.183000
   257  Cl    c     9.066633    4.511331   -4.509138    0.000000    1.485000
   258  Cl    c    -4.558846    4.511331   -4.509138    0.000000    1.485000
[...]
    242 y         -2.253894     -2.246454     0.007439    Cartesian   -0.33
    242 z          6.761681      6.735842    -0.025839    Cartesian   -0.38
    243 x          4.507787      4.638820     0.131033    Cartesian    2.91
    243 y          4.507787      4.671423     0.163636    Cartesian    3.63
    243 z          0.000000     -0.007310    -0.007310    Cartesian    0.00
    244 x          4.507787      4.590868     0.083081    Cartesian    1.84
    244 y          4.507787      4.650345     0.142558    Cartesian    3.16
    244 z          4.507787      4.604031     0.096244    Cartesian    2.14
    245 x          4.507787      4.521266     0.013479    Cartesian    0.30
    245 y         -4.507787     -4.519799    -0.012012    Cartesian    0.27
    245 z          0.000000      0.009289     0.009289    Cartesian    0.00
    246 x          4.507787      4.543681     0.035894    Cartesian    0.80
    246 y         -4.507787     -4.536915    -0.029128    Cartesian    0.65
    246 z          4.507787      4.515231     0.007444    Cartesian    0.17
    247 x          2.253894      2.253894     0.000000    Cartesian    0.00
    247 y          6.761681      6.765769     0.004088    Cartesian    0.06
    247 z          2.253894      2.265492     0.011598    Cartesian    0.51
    248 x          6.761681      6.723240    -0.038441    Cartesian   -0.57
    248 y          2.253894      2.256692     0.002799    Cartesian    0.12
    248 z         -2.253894     -2.229560     0.024334    Cartesian   -1.08
    249 x         -2.253894     -2.256431    -0.002538    Cartesian    0.11
    249 y         -2.253894     -2.246806     0.007088    Cartesian   -0.31
    249 z         -2.253894     -2.260642    -0.006749    Cartesian    0.30
    250 x          6.761681      6.749988    -0.011693    Cartesian   -0.17
    250 y          2.253894      2.263562     0.009669    Cartesian    0.43
    250 z          6.761681      6.724490    -0.037191    Cartesian   -0.55
    251 x         -2.253894     -2.264189    -0.010296    Cartesian    0.46
    251 y         -2.253894     -2.258355    -0.004461    Cartesian    0.20
    251 z          6.761681      6.763002     0.001322    Cartesian    0.02
    252 x          2.253894      2.253894     0.000000    Cartesian    0.00
    252 y         -6.761681     -6.715205     0.046475    Cartesian   -0.69
    252 z          2.253894      2.247042    -0.006852    Cartesian   -0.30
    253 x          4.507787      4.622783     0.114996    Cartesian    2.55
    253 y          0.000000     -0.097607    -0.097607    Cartesian    0.00
    253 z         -4.507787     -4.618298    -0.110510    Cartesian    2.45
    254 x          9.015574      9.057251     0.041677    Cartesian    0.46
    254 y          0.000000     -0.029059    -0.029059    Cartesian    0.00
    254 z          0.000000     -0.003395    -0.003395    Cartesian    0.00
    255 x          9.015574      9.057197     0.041623    Cartesian    0.46
    255 y          0.000000     -0.044650    -0.044650    Cartesian    0.00
    255 z          4.507787      4.494953    -0.012835    Cartesian   -0.28
    256 x          4.507787      4.542963     0.035175    Cartesian    0.78
    256 y          0.000000      0.009977     0.009977    Cartesian    0.00
    256 z          9.015574      9.040510     0.024935    Cartesian    0.28
    257 x          2.253894      2.253894     0.000000    Cartesian    0.00
    257 y          6.761681      6.706367    -0.055314    Cartesian   -0.82
    257 z         -2.253894     -2.230794     0.023100    Cartesian   -1.02
    258 x         -2.253894     -2.258567    -0.004674    Cartesian    0.21
    258 y          6.761681      6.786368     0.024687    Cartesian    0.37
    258 z          2.253894      2.258007     0.004114    Cartesian    0.18
    259 x          2.253894      2.253894     0.000000    Cartesian    0.00
    259 y          6.761681      6.730503    -0.031178    Cartesian   -0.46
    259 z          6.761681      6.765845     0.004164    Cartesian    0.06
    260 x          2.253894      2.253894     0.000000    Cartesian    0.00
    260 y         -6.761681     -6.715942     0.045739    Cartesian   -0.68
    260 z         -2.253894     -2.247434     0.006459    Cartesian   -0.29
    261 x          4.507787      4.594111     0.086324    Cartesian    1.92
    261 y          4.507787      4.620143     0.112356    Cartesian    2.49
    261 z         -4.507787     -4.658547    -0.150759    Cartesian    3.34
    262 x          6.761681      6.759861    -0.001820    Cartesian   -0.03
    262 y         -6.761681     -6.754597     0.007084    Cartesian   -0.10
    262 z          2.253894      2.253021    -0.000873    Cartesian   -0.04
    263 x          9.015574      9.032807     0.017233    Cartesian    0.19
    263 y          4.507787      4.511494     0.003707    Cartesian    0.08
    263 z          0.000000     -0.004469    -0.004469    Cartesian    0.00
    264 x          2.253894      2.253894     0.000000    Cartesian    0.00
    264 y         -6.761681     -6.736529     0.025152    Cartesian   -0.37
    264 z          6.761681      6.740748    -0.020932    Cartesian   -0.31
    265 x          4.507787      4.543852     0.036065    Cartesian    0.80
    265 y         -4.507787     -4.543790    -0.036003    Cartesian    0.80
    265 z         -4.507787     -4.511634    -0.003847    Cartesian    0.09
    266 x          9.015574      9.067565     0.051990    Cartesian    0.58
    266 y          4.507787      4.529101     0.021314    Cartesian    0.47
    266 z          4.507787      4.521650     0.013863    Cartesian    0.31
    267 x          4.507787      4.518233     0.010445    Cartesian    0.23
    267 y          4.507787      4.512807     0.005020    Cartesian    0.11
    267 z          9.015574      9.067927     0.052353    Cartesian    0.58
    268 x          9.015574      9.028176     0.012602    Cartesian    0.14
    268 y         -4.507787     -4.526745    -0.018958    Cartesian    0.42
    268 z          0.000000      0.009623     0.009623    Cartesian    0.00
    269 x          9.015574      9.045006     0.029432    Cartesian    0.33
    269 y         -4.507787     -4.538005    -0.030218    Cartesian    0.67
    269 z          4.507787      4.511249     0.003462    Cartesian    0.08
    270 x          4.507787      4.515546     0.007759    Cartesian    0.17
    270 y         -4.507787     -4.545897    -0.038110    Cartesian    0.85
    270 z          9.015574      9.052493     0.036919    Cartesian    0.41
    271 x         -2.253894     -2.259765    -0.005871    Cartesian    0.26
    271 y          6.761681      6.767111     0.005430    Cartesian    0.08
    271 z         -2.253894     -2.259895    -0.006002    Cartesian    0.27
    272 x          2.253894      2.253894     0.000000    Cartesian    0.00
    272 y          2.253894      2.244394    -0.009500    Cartesian   -0.42
    272 z         -6.761681     -6.787189    -0.025508    Cartesian    0.38
    273 x          2.253894      2.253894     0.000000    Cartesian    0.00
    273 y         -2.253894     -2.236079     0.017814    Cartesian   -0.79
    273 z         -6.761681     -6.734237     0.027443    Cartesian   -0.41
    274 x         11.269468     11.232547    -0.036921    Cartesian   -0.33
    274 y          2.253894      2.257078     0.003185    Cartesian    0.14
    274 z          2.253894      2.247659    -0.006235    Cartesian   -0.28
    275 x         -2.253894     -2.266539    -0.012646    Cartesian    0.56
    275 y          6.761681      6.766608     0.004927    Cartesian    0.07
    275 z          6.761681      6.765338     0.003657    Cartesian    0.05
    276 x         11.269468     11.267269    -0.002199    Cartesian   -0.02
    276 y         -2.253894     -2.252105     0.001788    Cartesian   -0.08
    276 z          2.253894      2.251738    -0.002156    Cartesian   -0.10
    277 x          6.761681      6.769358     0.007677    Cartesian    0.11
    277 y         -6.761681     -6.756309     0.005372    Cartesian   -0.08
    277 z         -2.253894     -2.245113     0.008781    Cartesian   -0.39
    278 x          4.507787      4.488522    -0.019266    Cartesian   -0.43
    278 y          9.015574      9.040023     0.024449    Cartesian    0.27
    278 z          0.000000      0.036966     0.036966    Cartesian    0.00
    279 x          2.253894      2.253894     0.000000    Cartesian    0.00
    279 y          2.253894      2.253285    -0.000608    Cartesian   -0.03
    279 z         11.269468     11.246133    -0.023335    Cartesian   -0.21
    280 x          4.507787      4.522400     0.014613    Cartesian    0.32
    280 y          9.015574      9.046912     0.031338    Cartesian    0.35
    280 z          4.507787      4.502295    -0.005492    Cartesian   -0.12
    281 x          9.015574      9.080170     0.064596    Cartesian    0.72
    281 y          0.000000     -0.030885    -0.030885    Cartesian    0.00
    281 z         -4.507787     -4.509105    -0.001318    Cartesian    0.03
    282 x          2.253894      2.253894     0.000000    Cartesian    0.00
    282 y         -2.253894     -2.248543     0.005351    Cartesian   -0.24
    282 z         11.269468     11.231590    -0.037878    Cartesian   -0.34
    283 x          6.761681      6.761405    -0.000275    Cartesian   -0.00
    283 y         -6.761681     -6.758504     0.003177    Cartesian   -0.05
    283 z          6.761681      6.757520    -0.004160    Cartesian   -0.06
    284 x          4.507787      4.499048    -0.008739    Cartesian   -0.19
    284 y         -9.015574     -9.064565    -0.048991    Cartesian    0.54
    284 z          0.000000     -0.002368    -0.002368    Cartesian    0.00
    285 x          9.015574      9.025539     0.009965    Cartesian    0.11
    285 y          0.000000     -0.012748    -0.012748    Cartesian    0.00
    285 z          9.015574      9.036371     0.020797    Cartesian    0.23
    286 x          4.507787      4.532644     0.024857    Cartesian    0.55
    286 y         -9.015574     -9.024735    -0.009161    Cartesian    0.10
    286 z          4.507787      4.508035     0.000248    Cartesian    0.01
    287 x          6.761681      6.736855    -0.024826    Cartesian   -0.37
    287 y          2.253894      2.261386     0.007492    Cartesian    0.33
    287 z         -6.761681     -6.744859     0.016821    Cartesian   -0.25
    288 x         11.269468     11.244214    -0.025254    Cartesian   -0.22
    288 y          2.253894      2.251366    -0.002527    Cartesian   -0.11
    288 z         -2.253894     -2.268490    -0.014596    Cartesian    0.65
    289 x         -2.253894     -2.263583    -0.009689    Cartesian    0.43
    289 y         -2.253894     -2.262390    -0.008496    Cartesian    0.38
    289 z         -6.761681     -6.766212    -0.004532    Cartesian    0.07
    290 x         11.269468     11.269959     0.000491    Cartesian    0.00
    290 y         -2.253894     -2.248591     0.005303    Cartesian   -0.24
    290 z         -2.253894     -2.248915     0.004978    Cartesian   -0.22
    291 x         11.269468     11.260847    -0.008621    Cartesian   -0.08
    291 y          2.253894      2.250376    -0.003517    Cartesian   -0.16
    291 z          6.761681      6.728071    -0.033610    Cartesian   -0.50
    292 x          9.015574      9.072765     0.057190    Cartesian    0.63
    292 y          4.507787      4.509029     0.001242    Cartesian    0.03
    292 z         -4.507787     -4.507048     0.000739    Cartesian   -0.02
    293 x          6.761681      6.780900     0.019219    Cartesian    0.28
    293 y          2.253894      2.252052    -0.001842    Cartesian   -0.08
    293 z         11.269468     11.259003    -0.010465    Cartesian   -0.09
    294 x         11.269468     11.269804     0.000336    Cartesian    0.00
    294 y         -2.253894     -2.242583     0.011310    Cartesian   -0.50
    294 z          6.761681      6.765514     0.003834    Cartesian    0.06
    295 x         -2.253894     -2.248823     0.005071    Cartesian   -0.22
    295 y         -2.253894     -2.253380     0.000513    Cartesian   -0.02
    295 z         11.269468     11.268065    -0.001403    Cartesian   -0.01
    296 x          9.015574      9.039690     0.024115    Cartesian    0.27
    296 y         -4.507787     -4.548767    -0.040979    Cartesian    0.91
    296 z         -4.507787     -4.501835     0.005952    Cartesian   -0.13
    297 x          9.015574      9.026526     0.010952    Cartesian    0.12
    297 y          4.507787      4.508964     0.001177    Cartesian    0.03
    297 z          9.015574      9.077109     0.061535    Cartesian    0.68
    298 x          9.015574      9.016089     0.000515    Cartesian    0.01
    298 y         -4.507787     -4.515642    -0.007855    Cartesian    0.17
    298 z          9.015574      9.046963     0.031388    Cartesian    0.35
    299 x          2.253894      2.253894     0.000000    Cartesian    0.00
    299 y          6.761681      6.760322    -0.001359    Cartesian   -0.02
    299 z         -6.761681     -6.756180     0.005501    Cartesian   -0.08
    300 x          2.253894      2.253894     0.000000    Cartesian    0.00
    300 y         11.269468     11.272286     0.002818    Cartesian    0.03
    300 z          2.253894      2.249700    -0.004194    Cartesian   -0.19
    301 x         11.269468     11.270822     0.001354    Cartesian    0.01
    301 y          6.761681      6.763805     0.002124    Cartesian    0.03
    301 z          2.253894      2.255279     0.001385    Cartesian    0.06
    302 x          2.253894      2.253894     0.000000    Cartesian    0.00
    302 y         -6.761681     -6.765413    -0.003733    Cartesian    0.06
    302 z         -6.761681     -6.740474     0.021207    Cartesian   -0.31
    303 x          4.507787      4.532124     0.024337    Cartesian    0.54
    303 y          9.015574      9.075334     0.059759    Cartesian    0.66
    303 z         -4.507787     -4.485907     0.021881    Cartesian   -0.49
    304 x          2.253894      2.253894     0.000000    Cartesian    0.00
    304 y          6.761681      6.741675    -0.020006    Cartesian   -0.30
    304 z         11.269468     11.277352     0.007884    Cartesian    0.07
    305 x          4.507787      4.489612    -0.018175    Cartesian   -0.40
    305 y          0.000000      0.038736     0.038736    Cartesian    0.00
    305 z         -9.015574     -9.051311    -0.035736    Cartesian    0.40
    306 x          9.015574      9.055310     0.039736    Cartesian    0.44
    306 y          9.015574      9.038153     0.022578    Cartesian    0.25
    306 z          0.000000      0.007151     0.007151    Cartesian    0.00
    307 x         11.269468     11.273112     0.003644    Cartesian    0.03
    307 y         -6.761681     -6.759221     0.002460    Cartesian   -0.04
    307 z          2.253894      2.267867     0.013974    Cartesian    0.62
    308 x          9.015574      9.043324     0.027749    Cartesian    0.31
    308 y          9.015574      9.037758     0.022184    Cartesian    0.25
    308 z          4.507787      4.524524     0.016737    Cartesian    0.37
    309 x          2.253894      2.253894     0.000000    Cartesian    0.00
    309 y        -11.269468    -11.249712     0.019756    Cartesian   -0.18
    309 z          2.253894      2.233596    -0.020298    Cartesian   -0.90
    310 x          4.507787      4.513278     0.005491    Cartesian    0.12
    310 y          9.015574      9.069513     0.053938    Cartesian    0.60
    310 z          9.015574      9.031235     0.015660    Cartesian    0.17
    311 x         13.523362     13.600236     0.076875    Cartesian    0.57
    311 y          0.000000     -0.000208    -0.000208    Cartesian    0.00
    311 z          0.000000      0.006330     0.006330    Cartesian    0.00
    312 x          2.253894      2.253894     0.000000    Cartesian    0.00
    312 y         -6.761681     -6.743996     0.017685    Cartesian   -0.26
    312 z         11.269468     11.270238     0.000770    Cartesian    0.01
    313 x          4.507787      4.506377    -0.001410    Cartesian   -0.03
    313 y         -9.015574     -9.032037    -0.016462    Cartesian    0.18
    313 z         -4.507787     -4.537555    -0.029768    Cartesian    0.66
    314 x         13.523362     13.546047     0.022685    Cartesian    0.17
    314 y          0.000000      0.013446     0.013446    Cartesian    0.00
    314 z          4.507787      4.556040     0.048253    Cartesian    1.07
    315 x          9.015574      9.002688    -0.012887    Cartesian   -0.14
    315 y         -9.015574     -9.050529    -0.034955    Cartesian    0.39
    315 z          0.000000     -0.011425    -0.011425    Cartesian    0.00
    316 x          4.507787      4.483058    -0.024729    Cartesian   -0.55
    316 y          0.000000     -0.014102    -0.014102    Cartesian    0.00
    316 z         13.523362     13.596009     0.072648    Cartesian    0.54
    317 x          9.015574      9.057736     0.042162    Cartesian    0.47
    317 y         -9.015574     -9.022943    -0.007369    Cartesian    0.08
    317 z          4.507787      4.520828     0.013040    Cartesian    0.29
    318 x          4.507787      4.504527    -0.003260    Cartesian   -0.07
    318 y         -9.015574     -9.072647    -0.057073    Cartesian    0.63
    318 z          9.015574      9.014428    -0.001146    Cartesian   -0.01
    319 x          2.253894      2.253894     0.000000    Cartesian    0.00
    319 y         11.269468     11.264324    -0.005144    Cartesian   -0.05
    319 z         -2.253894     -2.260404    -0.006510    Cartesian    0.29
    320 x         -2.253894     -2.264765    -0.010871    Cartesian    0.48
    320 y          6.761681      6.770615     0.008934    Cartesian    0.13
    320 z         -6.761681     -6.773886    -0.012205    Cartesian    0.18
    321 x          6.761681      6.763467     0.001786    Cartesian    0.03
    321 y         11.269468     11.280912     0.011444    Cartesian    0.10
    321 z          2.253894      2.255410     0.001516    Cartesian    0.07
    322 x         11.269468     11.271384     0.001916    Cartesian    0.02
    322 y          6.761681      6.768567     0.006886    Cartesian    0.10
    322 z         -2.253894     -2.256821    -0.002927    Cartesian    0.13
--------------------------------------------------------------------------------


  Time to end of optimisation  =       79.0332 seconds


  Peak dynamic memory used =      94.78 MB 


  Timing analysis for GULP :

--------------------------------------------------------------------------------
  Task / Subroutine                                          Time (Seconds)
--------------------------------------------------------------------------------
  Calculation of reciprocal space energy and derivatives          0.0031
  Calculation of reciprocal space energy using symmetry           0.0042
  Calculation of real space energy and derivatives                0.0172
  Calculation of real space energy using symmetry                 0.0418
  Calculation for region 1 energy and derivatives (2-b)          43.6640
  Calculation for region 2a energy                               31.7059
  Calculation for region 2b energy                                0.0115
  Calculation and manipulation of Hessian matrix                  0.1499
  Calculation of matrix inversion                                 3.0004
  Symmetry generation of equivalent positions                     0.0212
--------------------------------------------------------------------------------
  Total CPU time                                                 79.0333
--------------------------------------------------------------------------------


  Dump file written as Na3OCl.grs


  Job Finished at 22:39.27 30th November   2020                               

