********************************************************************************
*                       GENERAL UTILITY LATTICE PROGRAM                        *
*                                 Julian Gale                                  *
*                       Curtin Institute for Computation                       *
*                    School of Molecular and Life Sciences                     *
*                    Curtin University, Western Australia                      *
********************************************************************************
* Version = 5.2.0 * Last modified =  10th September 2020                       *
********************************************************************************
*  optimise     - perform optimisation run                                     *
*  conp         - constant pressure calculation                                *
*  property     - calculate properties for final geometry                      *
*  defect       - perform defect calculation after bulk run                    *
*  compare      - compare initial and final structures                         *
********************************************************************************

  Job Started  at 22:39.23 30th November   2020                               

  Number of CPUs =     1


  Total number of configurations input =      1

********************************************************************************
*  Input for Configuration =   1                                               *
********************************************************************************

  Formula = ClONa3                                                      

  Number of irreducible atoms/shells =       5


  Total number atoms/shells =       7

  Dimensionality = 3               :  Bulk   


  Symmetry :

  Crystal family                   :  Cubic       
  Crystal class  (Groth - 1921)    :  Cubic Hexakisoctahedral              

  Space group (centrosymmetric)    :  P M 3 M         

  Patterson group                  :  P m -3 m 

  Cartesian lattice vectors (Angstroms) :

        4.504000    0.000000    0.000000
        0.000000    4.504000    0.000000
        0.000000    0.000000    4.504000

  Cell parameters (Angstroms/Degrees):

  a =       4.5040    alpha =  90.0000
  b =       4.5040    beta  =  90.0000
  c =       4.5040    gamma =  90.0000

  Initial cell volume =          91.368216 Angs**3

  Temperature of configuration =   0.00     K 

  Pressure of configuration =         0.000 GPa 

  Fractional coordinates of asymmetric unit :

--------------------------------------------------------------------------------
   No.  Atomic       x           y          z         Charge      Occupancy
        Label      (Frac)      (Frac)     (Frac)        (e)         (Frac)  
--------------------------------------------------------------------------------
      1 Cl    c    0.000000    0.000000    0.000000     1.48500    1.000000    
      2 O     c    0.500000    0.500000    0.500000     0.18300    1.000000    
      3 Na    c    0.500000    0.500000    0.000000     1.00000    1.000000    
      4 Cl    s    0.000000    0.000000    0.000000    -2.48500    1.000000    
      5 O     s    0.500000    0.500000    0.500000    -2.18300    1.000000    
--------------------------------------------------------------------------------


  Constraints : 

--------------------------------------------------------------------------------
  Constraint no.      Unconstrained     Constrained    Coefficient    Offset
                         Variable         Variable
--------------------------------------------------------------------------------
           1              Strain 1        Strain 2       1.00000      0.0000
           2              Strain 1        Strain 3       1.00000      0.0000
--------------------------------------------------------------------------------


********************************************************************************
*  General input information                                                   *
********************************************************************************

  Species output for all configurations : 

--------------------------------------------------------------------------------
  Species    Type    Atomic    Atomic    Charge       Radii (Angs)     Library
                     Number     Mass       (e)     Cova   Ionic  VDW   Symbol
--------------------------------------------------------------------------------
    Na       Core       11      22.99   1.000000   0.970  0.000  2.300          
    O        Core        8      16.00   0.183000   0.730  0.000  1.360          
    O        Shell       8       0.00  -2.183000   0.730  0.000  1.360          
    Cl       Core       17      35.45   1.485000   0.990  0.000  1.650          
    Cl       Shell      17       0.00  -2.485000   0.990  0.000  1.650          
    Mg       Core       12      24.31   0.415000   1.100  0.000  0.000          
    Mg       Shell      12       0.00   1.585000   1.100  0.000  0.000          
    Ca       Core       20      40.08  -1.135000   0.990  0.000  0.000          
    Ca       Shell      20       0.00   3.135000   0.990  0.000  0.000          
    Sr       Core       38      87.62  -1.251000   1.120  0.000  0.000          
    Sr       Shell      38       0.00   3.251000   1.120  0.000  0.000          
    Ba       Core       56     137.33  -7.203000   1.340  0.000  0.000          
    Ba       Shell      56       0.00   9.203000   1.340  0.000  0.000          
--------------------------------------------------------------------------------


  Lattice summation method               =    Ewald          (3-D)
                                         =    Parry          (2-D)
                                         =    Saunders et al (1-D)
  Accuracy factor for lattice sums       =   12.000


  Analytic derivatives to be used

  Time limit = Infinity

  Maximum range for interatomic potentials =    100000.000000 Angstroms

  General interatomic potentials :

--------------------------------------------------------------------------------
Atom  Types   Potential      Parameter       Value         Units   Cutoffs(Ang)
  1     2                                                            Min /  Max 
--------------------------------------------------------------------------------
O    c O    s Spring (c-s)  Spring k 2       593.71600    eV*Ang^-2 0.000  0.800
                            Spring k 4       0.0000000    eV*Ang^-4 
--------------------------------------------------------------------------------
Cl   c Cl   s Spring (c-s)  Spring k 2       29.380000    eV*Ang^-2 0.000  0.800
                            Spring k 4       0.0000000    eV*Ang^-4 
--------------------------------------------------------------------------------
Mg   c Mg   s Spring (c-s)  Spring k 2       361.60000    eV*Ang^-2 0.000  0.800
                            Spring k 4       0.0000000    eV*Ang^-4 
--------------------------------------------------------------------------------
Ca   c Ca   s Spring (c-s)  Spring k 2       110.20000    eV*Ang^-2 0.000  0.800
                            Spring k 4       0.0000000    eV*Ang^-4 
--------------------------------------------------------------------------------
Sr   c Sr   s Spring (c-s)  Spring k 2       71.700000    eV*Ang^-2 0.000  0.800
                            Spring k 4       0.0000000    eV*Ang^-4 
--------------------------------------------------------------------------------
Ba   c Ba   s Spring (c-s)  Spring k 2       495.20000    eV*Ang^-2 0.000  0.800
                            Spring k 4       0.0000000    eV*Ang^-4 
--------------------------------------------------------------------------------
Na   c Na   c Buckingham    Buckingham A     1788.1900    eV        0.000 12.000
                            Buckingham rho  0.15900000    Ang       
                            Buckingham C     0.0000000    eV*Ang^6  
--------------------------------------------------------------------------------
Na   c O    s Buckingham    Buckingham A     1226.8400    eV        0.000 12.000
                            Buckingham rho  0.30700000    Ang       
                            Buckingham C     0.0000000    eV*Ang^6  
--------------------------------------------------------------------------------
Na   c Cl   s Buckingham    Buckingham A     2314.7000    eV        0.000 12.000
                            Buckingham rho  0.29000000    Ang       
                            Buckingham C     0.0000000    eV*Ang^6  
--------------------------------------------------------------------------------
O    s O    s Buckingham    Buckingham A     22764.300    eV        0.000 12.000
                            Buckingham rho  0.14900000    Ang       
                            Buckingham C     13.190000    eV*Ang^6  
--------------------------------------------------------------------------------
O    s Cl   s Buckingham    Buckingham A     8286.9100    eV        0.000 12.000
                            Buckingham rho  0.25900000    Ang       
                            Buckingham C     62.200000    eV*Ang^6  
--------------------------------------------------------------------------------
Cl   s Cl   s Buckingham    Buckingham A     1227.2000    eV        0.000 12.000
                            Buckingham rho  0.32100000    Ang       
                            Buckingham C     14.530000    eV*Ang^6  
--------------------------------------------------------------------------------
O    s Mg   s Buckingham    Buckingham A     1428.5000    eV        0.000 12.000
                            Buckingham rho  0.29450000    Ang       
                            Buckingham C     0.0000000    eV*Ang^6  
--------------------------------------------------------------------------------
Mg   s Cl   s Buckingham    Buckingham A     4914.5400    eV        0.000 12.000
                            Buckingham rho  0.25700000    Ang       
                            Buckingham C     0.0000000    eV*Ang^6  
--------------------------------------------------------------------------------
O    s Ca   s Buckingham    Buckingham A     1090.4000    eV        0.000 12.000
                            Buckingham rho  0.34370000    Ang       
                            Buckingham C     0.0000000    eV*Ang^6  
--------------------------------------------------------------------------------
Cl   s Ca   s Buckingham    Buckingham A     2302.0000    eV        0.000 12.000
                            Buckingham rho  0.34020000    Ang       
                            Buckingham C     0.0000000    eV*Ang^6  
--------------------------------------------------------------------------------
O    s Sr   s Buckingham    Buckingham A     959.10000    eV        0.000 12.000
                            Buckingham rho  0.37210000    Ang       
                            Buckingham C     0.0000000    eV*Ang^6  
--------------------------------------------------------------------------------
Cl   s Sr   s Buckingham    Buckingham A     2191.0900    eV        0.000 12.000
                            Buckingham rho  0.34570000    Ang       
                            Buckingham C     0.0000000    eV*Ang^6  
--------------------------------------------------------------------------------
O    s Ba   s Buckingham    Buckingham A     905.70000    eV        0.000 12.000
                            Buckingham rho  0.39760000    Ang       
                            Buckingham C     0.0000000    eV*Ang^6  
--------------------------------------------------------------------------------
Cl   s Ba   s Buckingham    Buckingham A     2704.5500    eV        0.000 12.000
                            Buckingham rho  0.35280000    Ang       
                            Buckingham C     0.0000000    eV*Ang^6  
--------------------------------------------------------------------------------

********************************************************************************
*  Output for configuration   1                                                *
********************************************************************************


  Components of energy : 

--------------------------------------------------------------------------------
  Interatomic potentials     =           5.13022605 eV    
  Monopole - monopole (real) =         -10.03624526 eV    
  Monopole - monopole (recip)=         -29.53581274 eV    
  Monopole - monopole (total)=         -39.57205800 eV    
--------------------------------------------------------------------------------
  Total lattice energy       =         -34.44183194 eV    
--------------------------------------------------------------------------------
  Total lattice energy       =           -3323.1103 kJ/(mole unit cells)
--------------------------------------------------------------------------------


  Number of variables =        1

  Maximum number of calculations  =          1000
  Maximum Hessian update interval =            10
  Maximum step size               =   1.000000000
  Maximum parameter tolerance     =   0.000010000
  Maximum function  tolerance     =   0.000010000
  Maximum gradient  tolerance     =   0.001000000
  Maximum gradient  component     =   0.010000000

  Symmetry constrained optimisation

  Symmetry used for second derivatives

  Cell parameters to be optimised using strains

  Newton-Raphson optimiser to be used

  BFGS hessian update to be used

  Lower half triangular hessian to be used

  Start of bulk optimisation :

  Cycle:      0 Energy:       -34.441832  Gnorm:      0.196570  CPU:    0.018
  ** Hessian calculated **
  Cycle:      1 Energy:       -34.441914  Gnorm:      0.000103  CPU:    0.023


  **** Optimisation achieved ****


  Final energy =     -34.44191447 eV
  Final Gnorm  =       0.00000000

  Components of energy : 

--------------------------------------------------------------------------------
  Interatomic potentials     =           5.09689708 eV    
  Monopole - monopole (real) =         -10.02781331 eV    
  Monopole - monopole (recip)=         -29.51099824 eV    
  Monopole - monopole (total)=         -39.53881155 eV    
--------------------------------------------------------------------------------
  Total lattice energy       =         -34.44191447 eV    
--------------------------------------------------------------------------------
  Total lattice energy       =           -3323.1183 kJ/(mole unit cells)
--------------------------------------------------------------------------------

  Final asymmetric unit coordinates :

--------------------------------------------------------------------------------
   No.  Atomic        x           y           z         Radius
        Label       (Frac)      (Frac)      (Frac)       (Angs) 
--------------------------------------------------------------------------------
     1  Cl    c     0.000000    0.000000    0.000000    0.000000
     2  O     c     0.500000    0.500000    0.500000    0.000000
     3  Na    c     0.500000    0.500000    0.000000    0.000000
     4  Cl    s     0.000000    0.000000    0.000000    0.000000
     5  O     s     0.500000    0.500000    0.500000    0.000000
--------------------------------------------------------------------------------

  Final Cartesian lattice vectors (Angstroms) :

        4.507787    0.000000    0.000000
        0.000000    4.507787    0.000000
        0.000000    0.000000    4.507787


  Final cell parameters and derivatives :

--------------------------------------------------------------------------------
       a            4.507787 Angstrom     dE/de1(xx)     0.000000 eV/strain
       b            4.507787 Angstrom     dE/de2(yy)     0.000000 eV/strain
       c            4.507787 Angstrom     dE/de3(zz)     0.000000 eV/strain
       alpha       90.000000 Degrees      dE/de4(yz)     0.000000 eV/strain
       beta        90.000000 Degrees      dE/de5(xz)     0.000000 eV/strain
       gamma       90.000000 Degrees      dE/de6(xy)     0.000000 eV/strain
--------------------------------------------------------------------------------

  Primitive cell volume =            91.598892 Angs**3

  Density of cell =      2.183054 g/cm**3

  Non-primitive cell volume =            91.598892 Angs**3


  Final internal derivatives :

--------------------------------------------------------------------------------
   No.  Atomic          a             b             c           Radius
        Label          (eV)          (eV)          (eV)        (eV/Angs)
--------------------------------------------------------------------------------
      1 Cl    c       0.000000      0.000000      0.000000      0.000000
      2 O     c       0.000000      0.000000      0.000000      0.000000
      3 Na    c       0.000000      0.000000      0.000000      0.000000
      4 Cl    s       0.000000      0.000000      0.000000      0.000000
      5 O     s       0.000000      0.000000      0.000000      0.000000
--------------------------------------------------------------------------------
  Maximum abs         0.000000      0.000000      0.000000      0.000000
--------------------------------------------------------------------------------

  Comparison of initial and final structures : 

--------------------------------------------------------------------------------
  Parameter   Initial value   Final value   Difference    Units      Percent
--------------------------------------------------------------------------------
    Volume        91.368216     91.598892     0.230676    Angs**3      0.25
    a              4.504000      4.507787     0.003787    Angstroms    0.08
    b              4.504000      4.507787     0.003787    Angstroms    0.08
    c              4.504000      4.507787     0.003787    Angstroms    0.08
    alpha         90.000000     90.000000     0.000000    Degrees      0.00
    beta          90.000000     90.000000     0.000000    Degrees      0.00
    gamma         90.000000     90.000000     0.000000    Degrees      0.00
      1 x          0.000000      0.000000     0.000000    Fractional   0.00
      1 y          0.000000      0.000000     0.000000    Fractional   0.00
      1 z          0.000000      0.000000     0.000000    Fractional   0.00
      2 x          0.500000      0.500000     0.000000    Fractional   0.00
      2 y          0.500000      0.500000     0.000000    Fractional   0.00
      2 z          0.500000      0.500000     0.000000    Fractional   0.00
      3 x          0.500000      0.500000     0.000000    Fractional   0.00
      3 y          0.500000      0.500000     0.000000    Fractional   0.00
      3 z          0.000000      0.000000     0.000000    Fractional   0.00
      4 x          0.000000      0.000000     0.000000    Fractional   0.00
      4 y          0.000000      0.000000     0.000000    Fractional   0.00
      4 z          0.000000      0.000000     0.000000    Fractional   0.00
      5 x          0.500000      0.500000     0.000000    Fractional   0.00
      5 y          0.500000      0.500000     0.000000    Fractional   0.00
      5 z          0.500000      0.500000     0.000000    Fractional   0.00
--------------------------------------------------------------------------------


  Born effective charge tensors : 

-------------------------------------------------------------------------------
  Atom             x           y             z
-------------------------------------------------------------------------------
    1 Cl    x      -1.0181     -0.0000      0.0000
            y      -0.0000     -1.0181      0.0000
            z       0.0000      0.0000     -1.0181
-------------------------------------------------------------------------------
    2 O     x      -2.2647      0.0000     -0.0000
            y       0.0000     -2.2647     -0.0000
            z      -0.0000     -0.0000     -2.2647
-------------------------------------------------------------------------------
    3 Na    x       1.2258     -0.0000      0.0000
            y      -0.0000      1.2258     -0.0000
            z       0.0000     -0.0000      0.8313
-------------------------------------------------------------------------------




  Elastic Constant Matrix: (Units=GPa)

-------------------------------------------------------------------------------
  Indices      1         2         3         4         5         6    
-------------------------------------------------------------------------------
       1     95.8177   20.0737   20.0737   -0.0000   -0.0000    0.0000
       2     20.0737   95.8177   20.0737   -0.0000   -0.0000    0.0000
       3     20.0737   20.0737   95.8177   -0.0000   -0.0000    0.0000
       4     -0.0000   -0.0000   -0.0000   20.0737   -0.0000    0.0000
       5     -0.0000   -0.0000   -0.0000   -0.0000   20.0737    0.0000
       6      0.0000    0.0000    0.0000    0.0000    0.0000   20.0737
-------------------------------------------------------------------------------


  Elastic Compliance Matrix: (Units=1/GPa)

-------------------------------------------------------------------------------
  Indices      1         2         3         4         5         6    
-------------------------------------------------------------------------------
       1    0.011253 -0.001949 -0.001949  0.000000  0.000000 -0.000000
       2   -0.001949  0.011253 -0.001949  0.000000  0.000000  0.000000
       3   -0.001949 -0.001949  0.011253  0.000000  0.000000 -0.000000
       4    0.000000  0.000000  0.000000  0.049816  0.000000 -0.000000
       5    0.000000  0.000000  0.000000  0.000000  0.049816 -0.000000
       6   -0.000000  0.000000 -0.000000 -0.000000 -0.000000  0.049816
-------------------------------------------------------------------------------

  Mechanical properties :

-------------------------------------------------------------------------------
  Convention :                    Reuss         Voigt         Hill
-------------------------------------------------------------------------------
  Bulk  Modulus (GPa)     =      45.32174      45.32174      45.32174
  Shear Modulus (GPa)     =      24.72085      27.19304      25.95695
-------------------------------------------------------------------------------
  Velocity S-wave (km/s)  =       3.36511       3.52937       3.44822
  Velocity P-wave (km/s)  =       5.98827       6.11304       6.05098
-------------------------------------------------------------------------------
  Compressibility (1/GPa) =    0.02206447
-------------------------------------------------------------------------------
  Stress axis :                     x             y             z
-------------------------------------------------------------------------------
  Youngs Moduli (GPa)     =      88.86373      88.86373      88.86373
-------------------------------------------------------------------------------
  Poissons Ratio (x)      =                     0.17321       0.17321
  Poissons Ratio (y)      =       0.17321                     0.17321
  Poissons Ratio (z)      =       0.17321       0.17321
-------------------------------------------------------------------------------


  Piezoelectric Strain Matrix: (Units=C/m**2)

-------------------------------------------------------------------------------
  Indices      1         2         3         4         5         6    
-------------------------------------------------------------------------------
       x    -0.00000  -0.00000  -0.00000   0.00000  -0.00000  -0.00000
       y    -0.00000  -0.00000   0.00000  -0.00000   0.00000   0.00000
       z    -0.00000  -0.00000  -0.00000  -0.00000   0.00000   0.00000
-------------------------------------------------------------------------------


  Piezoelectric Stress Matrix: (Units=10**-11 C/N)

-------------------------------------------------------------------------------
  Indices      1         2         3         4         5         6    
-------------------------------------------------------------------------------
       x    -0.00000   0.00000   0.00000   0.00000  -0.00000  -0.00000
       y    -0.00000  -0.00000   0.00000  -0.00000   0.00000   0.00000
       z     0.00000   0.00000  -0.00000  -0.00000   0.00000   0.00000
-------------------------------------------------------------------------------


  Static dielectric constant tensor : 

-------------------------------------------------------------------------------
              x         y         z
-------------------------------------------------------------------------------
       x    22.84729   0.00000   0.00000
       y     0.00000  22.84729  -0.00000
       z     0.00000  -0.00000  22.84729
--------------------------------------------------------------------------------

  High frequency dielectric constant tensor : 

-------------------------------------------------------------------------------
              x         y         z
-------------------------------------------------------------------------------
       x     1.47557   0.00000  -0.00000
       y     0.00000   1.47557  -0.00000
       z    -0.00000  -0.00000   1.47557
-------------------------------------------------------------------------------

  Static refractive indices : 

-------------------------------------------------------------------------------
    1 =    4.77988      2 =    4.77988      3 =    4.77988
-------------------------------------------------------------------------------

  High frequency refractive indices : 

-------------------------------------------------------------------------------
    1 =    1.21473      2 =    1.21473      3 =    1.21473
-------------------------------------------------------------------------------


  Time to end of optimisation =       0.0335 seconds

********************************************************************************
*  Defect calculation for configuration   1 :                                  *
********************************************************************************

  Total number of defects =      3

  Total charge on defect  =  -1.00

  Defect centre is at   0.5000   0.4500   0.0500  Frac

  Region 1 radius =  12.0000      Number of ions =    554

  Number of symmetry inequivalent region 1 ions  =    322

  Region 2 radius =  16.0000      Number of ions =    751

  Number of symmetry inequivalent region 2a ions =    408

  Region 2a mode = 4 : screened electrostatics due to region 1 
                       neglect correction to region 1 forces from 2a
                       region 2a displacements based on defects only

  Region 2a ions will only interact with defects in region 1

  Vacancies:

--------------------------------------------------------------------------------
    Specification type     Symbol/Number         x          y          z
--------------------------------------------------------------------------------
    Fractional                               0.500000   0.500000   0.000000
    Fractional                               0.500000   0.000000   0.500000
--------------------------------------------------------------------------------

  Interstitials:

--------------------------------------------------------------------------------
    Specification type     Symbol/Number         x          y          z
--------------------------------------------------------------------------------
    Atom/Fractional         Na               0.500000   0.450000   0.050000
--------------------------------------------------------------------------------


  Symmetry reduced region 1 (Relative to defect centre) :

--------------------------------------------------------------------------------
   No.   Atomic       x            y             z       Radius  Multiplicity   
         Label      (Angs)       (Angs)        (Angs)    (Angs)     
--------------------------------------------------------------------------------
     1  Na    c      0.0000       0.0000       0.0000 *  0.0000     1    Defect
     2  O     c      0.0000       0.2254 *     2.0285 *  0.0000     1          
     3  O     c      0.0000       0.2254 *    -2.4793 *  0.0000     1          
     4  Cl    c      2.2539 *    -2.0285 *    -0.2254 *  0.0000     2          
     5  Na    c      2.2539 *     0.2254 *     2.0285 *  0.0000     2          
     6  Na    c      0.0000       2.4793 *     2.0285 *  0.0000     1          
     7  Na    c      0.0000      -2.0285 *    -2.4793 *  0.0000     1          
     8  Cl    c      2.2539 *     2.4793 *    -0.2254 *  0.0000     2          
     9  Na    c      2.2539 *     0.2254 *    -2.4793 *  0.0000     2          
    10  Na    c      0.0000       2.4793 *    -2.4793 *  0.0000     1          
    11  Na    c      0.0000       0.2254 *     4.2824 *  0.0000     1          
    12  Na    c      0.0000      -4.2824 *    -0.2254 *  0.0000     1          
    13  Na    c     -4.5078 *     0.2254 *    -0.2254 *  0.0000     2          
    14  Na    c      0.0000       0.2254 *    -4.7332 *  0.0000     1          
    15  Na    c      0.0000       4.7332 *    -0.2254 *  0.0000     1          
    16  O     c      0.0000      -4.2824 *     2.0285 *  0.0000     1          
    17  O     c     -4.5078 *     0.2254 *     2.0285 *  0.0000     2          
    18  O     c      0.0000      -4.2824 *    -2.4793 *  0.0000     1          
    19  O     c      0.0000       4.7332 *     2.0285 *  0.0000     1          
    20  O     c     -4.5078 *     0.2254 *    -2.4793 *  0.0000     2          
    21  Na    c      2.2539 *    -4.2824 *     2.0285 *  0.0000     2          
    22  Cl    c      2.2539 *    -2.0285 *     4.2824 *  0.0000     2          
    23  O     c      0.0000       4.7332 *    -2.4793 *  0.0000     1          
    24  Na    c     -4.5078 *    -2.0285 *     2.0285 *  0.0000     2          
    25  Cl    c      2.2539 *     2.4793 *     4.2824 *  0.0000     2          
    26  Na    c      2.2539 *    -4.2824 *    -2.4793 *  0.0000     2          
    27  Na    c     -4.5078 *     2.4793 *     2.0285 *  0.0000     2          
    28  Na    c     -4.5078 *    -2.0285 *    -2.4793 *  0.0000     2          
    29  Cl    c      2.2539 *    -2.0285 *    -4.7332 *  0.0000     2          
    30  Na    c      2.2539 *     4.7332 *     2.0285 *  0.0000     2          
    31  Na    c     -4.5078 *     2.4793 *    -2.4793 *  0.0000     2          
    32  Cl    c      2.2539 *     2.4793 *    -4.7332 *  0.0000     2          
    33  Na    c      2.2539 *     4.7332 *    -2.4793 *  0.0000     2          
    34  Na    c      0.0000      -4.2824 *     4.2824 *  0.0000     1          
    35  Na    c      4.5078 *    -4.2824 *    -0.2254 *  0.0000     2          
    36  Na    c     -4.5078 *     0.2254 *     4.2824 *  0.0000     2          
    37  Na    c      0.0000       4.7332 *     4.2824 *  0.0000     1          
    38  Na    c      0.0000      -4.2824 *    -4.7332 *  0.0000     1          
    39  O     c      0.0000       0.2254 *     6.5363 *  0.0000     1          
    40  Na    c     -4.5078 *     4.7332 *    -0.2254 *  0.0000     2          
    41  Na    c      4.5078 *     0.2254 *    -4.7332 *  0.0000     2          
    42  O     c      4.5078 *    -4.2824 *     2.0285 *  0.0000     2          
    43  Na    c      0.0000       4.7332 *    -4.7332 *  0.0000     1          
    44  O     c      4.5078 *    -4.2824 *    -2.4793 *  0.0000     2          
    45  O     c     -4.5078 *     4.7332 *     2.0285 *  0.0000     2          
    46  Na    c      0.0000      -2.0285 *     6.5363 *  0.0000     1          
    47  Na    c      0.0000      -6.5363 *     2.0285 *  0.0000     1          
    48  Cl    c      2.2539 *    -6.5363 *    -0.2254 *  0.0000     2          
    49  Na    c      2.2539 *     0.2254 *     6.5363 *  0.0000     2          
    50  O     c     -4.5078 *     4.7332 *    -2.4793 *  0.0000     2          
    51  Na    c      0.0000       2.4793 *     6.5363 *  0.0000     1          
    52  Na    c      0.0000      -6.5363 *    -2.4793 *  0.0000     1          
    53  O     c      0.0000       0.2254 *    -6.9871 *  0.0000     1          
    54  Cl    c      6.7617 *    -2.0285 *    -0.2254 *  0.0000     2          
    55  Na    c      6.7617 *     0.2254 *     2.0285 *  0.0000     2          
    56  Cl    c      6.7617 *     2.4793 *    -0.2254 *  0.0000     2          
    57  Na    c      6.7617 *     0.2254 *    -2.4793 *  0.0000     2          
    58  Na    c      0.0000       6.9871 *     2.0285 *  0.0000     1          
    59  Na    c      0.0000      -2.0285 *    -6.9871 *  0.0000     1          
    60  Cl    c      2.2539 *     6.9871 *    -0.2254 *  0.0000     2          
    61  Na    c      2.2539 *     0.2254 *    -6.9871 *  0.0000     2          
    62  Na    c      0.0000       6.9871 *    -2.4793 *  0.0000     1          
    63  Na    c      0.0000       2.4793 *    -6.9871 *  0.0000     1          
    64  Na    c      4.5078 *    -4.2824 *     4.2824 *  0.0000     2          
    65  O     c      0.0000      -4.2824 *     6.5363 *  0.0000     1          
    66  Na    c      4.5078 *    -4.2824 *    -4.7332 *  0.0000     2          
    67  Na    c     -4.5078 *     4.7332 *     4.2824 *  0.0000     2          
    68  O     c     -4.5078 *     0.2254 *     6.5363 *  0.0000     2          
    69  O     c      0.0000       4.7332 *     6.5363 *  0.0000     1          
    70  Na    c      4.5078 *     4.7332 *    -4.7332 *  0.0000     2          
    71  Cl    c      2.2539 *    -6.5363 *     4.2824 *  0.0000     2          
    72  Na    c      2.2539 *    -4.2824 *     6.5363 *  0.0000     2          
    73  Na    c     -4.5078 *    -2.0285 *     6.5363 *  0.0000     2          
    74  Na    c      4.5078 *    -6.5363 *     2.0285 *  0.0000     2          
    75  O     c      0.0000      -4.2824 *    -6.9871 *  0.0000     1          
    76  Cl    c      6.7617 *    -2.0285 *     4.2824 *  0.0000     2          
    77  Na    c      6.7617 *    -4.2824 *     2.0285 *  0.0000     2          
    78  Na    c      4.5078 *     2.4793 *     6.5363 *  0.0000     2          
    79  Na    c      4.5078 *    -6.5363 *    -2.4793 *  0.0000     2          
    80  O     c     -4.5078 *     0.2254 *    -6.9871 *  0.0000     2          
    81  Cl    c      2.2539 *    -6.5363 *    -4.7332 *  0.0000     2          
    82  Na    c      2.2539 *     4.7332 *     6.5363 *  0.0000     2          
    83  Cl    c      6.7617 *     2.4793 *     4.2824 *  0.0000     2          
    84  Na    c      6.7617 *    -4.2824 *    -2.4793 *  0.0000     2          
    85  O     c      0.0000       4.7332 *    -6.9871 *  0.0000     1          
    86  Cl    c      2.2539 *     6.9871 *     4.2824 *  0.0000     2          
    87  Cl    c      6.7617 *    -2.0285 *    -4.7332 *  0.0000     2          
    88  Na    c      6.7617 *     4.7332 *     2.0285 *  0.0000     2          
    89  Na    c      2.2539 *    -4.2824 *    -6.9871 *  0.0000     2          
    90  Na    c      4.5078 *     6.9871 *     2.0285 *  0.0000     2          
    91  Na    c      4.5078 *    -2.0285 *    -6.9871 *  0.0000     2          
    92  Cl    c      6.7617 *     2.4793 *    -4.7332 *  0.0000     2          
    93  Na    c      6.7617 *     4.7332 *    -2.4793 *  0.0000     2          
    94  Na    c      4.5078 *     6.9871 *    -2.4793 *  0.0000     2          
    95  Na    c     -4.5078 *     2.4793 *    -6.9871 *  0.0000     2          
    96  Cl    c      2.2539 *     6.9871 *    -4.7332 *  0.0000     2          
    97  Na    c      2.2539 *     4.7332 *    -6.9871 *  0.0000     2          
    98  Na    c      0.0000       0.2254 *     8.7902 *  0.0000     1          
    99  Na    c      0.0000      -8.7902 *    -0.2254 *  0.0000     1          
   100  Na    c      9.0156 *     0.2254 *    -0.2254 *  0.0000     2          
   101  O     c      4.5078 *    -4.2824 *     6.5363 *  0.0000     2          
   102  O     c      0.0000      -8.7902 *     2.0285 *  0.0000     1          
   103  O     c      0.0000      -8.7902 *    -2.4793 *  0.0000     1          
   104  Na    c      0.0000       0.2254 *    -9.2410 *  0.0000     1          
   105  Na    c      0.0000       9.2410 *    -0.2254 *  0.0000     1          
   106  O     c     -4.5078 *     4.7332 *     6.5363 *  0.0000     2          
   107  Na    c      0.0000      -6.5363 *     6.5363 *  0.0000     1          
   108  O     c      9.0156 *     0.2254 *     2.0285 *  0.0000     2          
   109  Cl    c      2.2539 *    -2.0285 *     8.7902 *  0.0000     2          
   110  Na    c      2.2539 *    -8.7902 *     2.0285 *  0.0000     2          
   111  O     c      9.0156 *     0.2254 *    -2.4793 *  0.0000     2          
   112  O     c      4.5078 *    -4.2824 *    -6.9871 *  0.0000     2          
   113  Cl    c      6.7617 *    -6.5363 *    -0.2254 *  0.0000     2          
   114  Na    c      6.7617 *     0.2254 *     6.5363 *  0.0000     2          
   115  Cl    c      2.2539 *     2.4793 *     8.7902 *  0.0000     2          
   116  Na    c      2.2539 *    -8.7902 *    -2.4793 *  0.0000     2          
   117  O     c      0.0000       9.2410 *     2.0285 *  0.0000     1          
   118  Na    c      9.0156 *    -2.0285 *     2.0285 *  0.0000     2          
   119  O     c      0.0000       9.2410 *    -2.4793 *  0.0000     1          
   120  Na    c      0.0000       6.9871 *     6.5363 *  0.0000     1          
   121  O     c      4.5078 *     4.7332 *    -6.9871 *  0.0000     2          
   122  Na    c      0.0000      -6.5363 *    -6.9871 *  0.0000     1          
   123  Na    c      9.0156 *     2.4793 *     2.0285 *  0.0000     2          
   124  Na    c      9.0156 *    -2.0285 *    -2.4793 *  0.0000     2          
   125  Na    c      9.0156 *     2.4793 *    -2.4793 *  0.0000     2          
   126  Cl    c      2.2539 *    -2.0285 *    -9.2410 *  0.0000     2          
   127  Na    c      2.2539 *     9.2410 *     2.0285 *  0.0000     2          
   128  Cl    c      6.7617 *     6.9871 *    -0.2254 *  0.0000     2          
   129  Na    c      6.7617 *     0.2254 *    -6.9871 *  0.0000     2          
   130  Na    c      0.0000      -4.2824 *     8.7902 *  0.0000     1          
   131  Na    c      0.0000      -8.7902 *     4.2824 *  0.0000     1          
   132  Cl    c      2.2539 *     2.4793 *    -9.2410 *  0.0000     2          
   133  Na    c      2.2539 *     9.2410 *    -2.4793 *  0.0000     2          
   134  Na    c     -4.5078 *     0.2254 *     8.7902 *  0.0000     2          
   135  Na    c     -4.5078 *    -8.7902 *    -0.2254 *  0.0000     2          
   136  Na    c      0.0000       6.9871 *    -6.9871 *  0.0000     1          
   137  Na    c      9.0156 *     0.2254 *     4.2824 *  0.0000     2          
   138  Na    c      9.0156 *    -4.2824 *    -0.2254 *  0.0000     2          
   139  Na    c      0.0000       4.7332 *     8.7902 *  0.0000     1          
   140  Na    c      0.0000      -8.7902 *    -4.7332 *  0.0000     1          
   141  O     c     -4.5078 *    -8.7902 *     2.0285 *  0.0000     2          
   142  Na    c      0.0000       9.2410 *     4.2824 *  0.0000     1          
   143  Na    c      0.0000      -4.2824 *    -9.2410 *  0.0000     1          
   144  Na    c      9.0156 *     0.2254 *    -4.7332 *  0.0000     2          
   145  Na    c      9.0156 *     4.7332 *    -0.2254 *  0.0000     2          
   146  O     c      9.0156 *    -4.2824 *     2.0285 *  0.0000     2          
   147  O     c     -4.5078 *    -8.7902 *    -2.4793 *  0.0000     2          
   148  Na    c     -4.5078 *     0.2254 *    -9.2410 *  0.0000     2          
   149  Na    c     -4.5078 *     9.2410 *    -0.2254 *  0.0000     2          
   150  O     c      9.0156 *    -4.2824 *    -2.4793 *  0.0000     2          
   151  Na    c      4.5078 *    -6.5363 *     6.5363 *  0.0000     2          
   152  Cl    c      6.7617 *    -6.5363 *     4.2824 *  0.0000     2          
   153  Na    c      6.7617 *    -4.2824 *     6.5363 *  0.0000     2          
   154  Na    c      0.0000       4.7332 *    -9.2410 *  0.0000     1          
   155  Na    c      0.0000       9.2410 *    -4.7332 *  0.0000     1          
   156  O     c      9.0156 *     4.7332 *     2.0285 *  0.0000     2          
   157  O     c     -4.5078 *     9.2410 *     2.0285 *  0.0000     2          
   158  O     c      9.0156 *     4.7332 *    -2.4793 *  0.0000     2          
   159  Cl    c      6.7617 *    -6.5363 *    -4.7332 *  0.0000     2          
   160  Na    c      6.7617 *     4.7332 *     6.5363 *  0.0000     2          
   161  O     c     -4.5078 *     9.2410 *    -2.4793 *  0.0000     2          
   162  Na    c      4.5078 *     6.9871 *     6.5363 *  0.0000     2          
   163  Na    c      4.5078 *    -6.5363 *    -6.9871 *  0.0000     2          
   164  Cl    c      6.7617 *     6.9871 *     4.2824 *  0.0000     2          
   165  Na    c      6.7617 *    -4.2824 *    -6.9871 *  0.0000     2          
   166  Na    c      4.5078 *    -4.2824 *     8.7902 *  0.0000     2          
   167  Na    c      4.5078 *    -8.7902 *     4.2824 *  0.0000     2          
   168  Cl    c      6.7617 *     6.9871 *    -4.7332 *  0.0000     2          
   169  Na    c      6.7617 *     4.7332 *    -6.9871 *  0.0000     2          
   170  Na    c      9.0156 *    -4.2824 *     4.2824 *  0.0000     2          
   171  Na    c      4.5078 *     6.9871 *    -6.9871 *  0.0000     2          
   172  Na    c     -4.5078 *    -8.7902 *    -4.7332 *  0.0000     2          
   173  O     c      0.0000      -8.7902 *     6.5363 *  0.0000     1          
   174  Na    c      4.5078 *     4.7332 *     8.7902 *  0.0000     2          
   175  O     c      0.0000       0.2254 *    11.0441 *  0.0000     1          
   176  Na    c      9.0156 *    -4.2824 *    -4.7332 *  0.0000     2          
   177  Na    c      9.0156 *     4.7332 *     4.2824 *  0.0000     2          
   178  O     c      9.0156 *     0.2254 *     6.5363 *  0.0000     2          
   179  Na    c      4.5078 *     9.2410 *     4.2824 *  0.0000     2          
   180  Na    c      4.5078 *    -4.2824 *    -9.2410 *  0.0000     2          
   181  Cl    c      2.2539 *    -6.5363 *     8.7902 *  0.0000     2          
   182  Na    c      2.2539 *    -8.7902 *     6.5363 *  0.0000     2          
   183  Na    c      9.0156 *     4.7332 *    -4.7332 *  0.0000     2          
   184  Na    c      0.0000      -2.0285 *    11.0441 *  0.0000     1          
   185  Na    c      0.0000     -11.0441 *     2.0285 *  0.0000     1          
   186  O     c      0.0000      -8.7902 *    -6.9871 *  0.0000     1          
   187  Cl    c      2.2539 *   -11.0441 *    -0.2254 *  0.0000     2          
   188  Na    c      2.2539 *     0.2254 *    11.0441 *  0.0000     2          
   189  Cl    c      6.7617 *    -2.0285 *     8.7902 *  0.0000     2          
   190  Na    c      6.7617 *    -8.7902 *     2.0285 *  0.0000     2          
   191  O     c      0.0000       9.2410 *     6.5363 *  0.0000     1          
   192  Na    c      4.5078 *     4.7332 *    -9.2410 *  0.0000     2          
   193  Na    c      4.5078 *     9.2410 *    -4.7332 *  0.0000     2          
   194  Na    c      0.0000       2.4793 *    11.0441 *  0.0000     1          
   195  Na    c      0.0000     -11.0441 *    -2.4793 *  0.0000     1          
   196  Na    c      9.0156 *    -6.5363 *     2.0285 *  0.0000     2          
   197  Na    c      9.0156 *    -2.0285 *     6.5363 *  0.0000     2          
   198  Cl    c      6.7617 *     2.4793 *     8.7902 *  0.0000     2          
   199  Na    c      6.7617 *    -8.7902 *    -2.4793 *  0.0000     2          
   200  Na    c      9.0156 *     2.4793 *     6.5363 *  0.0000     2          
   201  Na    c      9.0156 *    -6.5363 *    -2.4793 *  0.0000     2          
   202  O     c      9.0156 *     0.2254 *    -6.9871 *  0.0000     2          
   203  Cl    c     11.2695 *    -2.0285 *    -0.2254 *  0.0000     2          
   204  Na    c     11.2695 *     0.2254 *     2.0285 *  0.0000     2          
   205  Cl    c      2.2539 *     6.9871 *     8.7902 *  0.0000     2          
   206  Na    c      2.2539 *    -8.7902 *    -6.9871 *  0.0000     2          
   207  O     c      0.0000       0.2254 *   -11.4949 *  0.0000     1          
   208  Cl    c      2.2539 *    -6.5363 *    -9.2410 *  0.0000     2          
   209  Cl    c     11.2695 *     2.4793 *    -0.2254 *  0.0000     2          
   210  Na    c      2.2539 *     9.2410 *     6.5363 *  0.0000     2          
   211  Na    c     11.2695 *     0.2254 *    -2.4793 *  0.0000     2          
   212  O     c      0.0000       9.2410 *    -6.9871 *  0.0000     1          
   213  Na    c      9.0156 *     6.9871 *     2.0285 *  0.0000     2          
   214  Na    c      9.0156 *    -2.0285 *    -6.9871 *  0.0000     2          
   215  Na    c      6.7617 *     9.2410 *     2.0285 *  0.0000     2          
   216  Cl    c      6.7617 *    -2.0285 *    -9.2410 *  0.0000     2          
   217  Na    c      0.0000      11.4949 *     2.0285 *  0.0000     1          
   218  Na    c      0.0000      -2.0285 *   -11.4949 *  0.0000     1          
   219  Na    c      9.0156 *     6.9871 *    -2.4793 *  0.0000     2          
   220  Na    c      9.0156 *     2.4793 *    -6.9871 *  0.0000     2          
   221  Na    c      6.7617 *     9.2410 *    -2.4793 *  0.0000     2          
   222  Cl    c      2.2539 *    11.4949 *    -0.2254 *  0.0000     2          
   223  Cl    c      6.7617 *     2.4793 *    -9.2410 *  0.0000     2          
   224  Na    c      2.2539 *     0.2254 *   -11.4949 *  0.0000     2          
   225  Na    c      0.0000       2.4793 *   -11.4949 *  0.0000     1          
   226  Na    c      0.0000      11.4949 *    -2.4793 *  0.0000     1          
   227  Cl    c      2.2539 *     6.9871 *    -9.2410 *  0.0000     2          
   228  Na    c      2.2539 *     9.2410 *    -6.9871 *  0.0000     2          
   229  O     c      0.0000      -4.2824 *    11.0441 *  0.0000     1          
   230  O     c      4.5078 *    -8.7902 *     6.5363 *  0.0000     2          
   231  O     c      4.5078 *     0.2254 *    11.0441 *  0.0000     2          
   232  O     c      9.0156 *    -4.2824 *     6.5363 *  0.0000     2          
   233  O     s      0.0000       0.2254 *     2.0285 *  0.0000     1          
   234  O     s      0.0000       0.2254 *    -2.4793 *  0.0000     1          
   235  Cl    s      2.2539 *    -2.0285 *    -0.2254 *  0.0000     2          
   236  Cl    s      2.2539 *     2.4793 *    -0.2254 *  0.0000     2          
   237  O     s      0.0000      -4.2824 *     2.0285 *  0.0000     1          
   238  O     s     -4.5078 *     0.2254 *     2.0285 *  0.0000     2          
   239  O     s      0.0000      -4.2824 *    -2.4793 *  0.0000     1          
   240  O     s      0.0000       4.7332 *     2.0285 *  0.0000     1          
   241  O     s     -4.5078 *     0.2254 *    -2.4793 *  0.0000     2          
   242  Cl    s      2.2539 *    -2.0285 *     4.2824 *  0.0000     2          
   243  O     s      0.0000       4.7332 *    -2.4793 *  0.0000     1          
   244  Cl    s      2.2539 *     2.4793 *     4.2824 *  0.0000     2          
   245  Cl    s      2.2539 *    -2.0285 *    -4.7332 *  0.0000     2          
   246  Cl    s      2.2539 *     2.4793 *    -4.7332 *  0.0000     2          
   247  O     s      0.0000       0.2254 *     6.5363 *  0.0000     1          
   248  O     s      4.5078 *    -4.2824 *     2.0285 *  0.0000     2          
   249  O     s      4.5078 *    -4.2824 *    -2.4793 *  0.0000     2          
   250  O     s     -4.5078 *     4.7332 *     2.0285 *  0.0000     2          
   251  Cl    s      2.2539 *    -6.5363 *    -0.2254 *  0.0000     2          
   252  O     s     -4.5078 *     4.7332 *    -2.4793 *  0.0000     2          
   253  O     s      0.0000       0.2254 *    -6.9871 *  0.0000     1          
   254  Cl    s      6.7617 *    -2.0285 *    -0.2254 *  0.0000     2          
   255  Cl    s      6.7617 *     2.4793 *    -0.2254 *  0.0000     2          
   256  Cl    s      2.2539 *     6.9871 *    -0.2254 *  0.0000     2          
   257  O     s      0.0000      -4.2824 *     6.5363 *  0.0000     1          
   258  O     s     -4.5078 *     0.2254 *     6.5363 *  0.0000     2          
   259  O     s      0.0000       4.7332 *     6.5363 *  0.0000     1          
   260  Cl    s      2.2539 *    -6.5363 *     4.2824 *  0.0000     2          
   261  O     s      0.0000      -4.2824 *    -6.9871 *  0.0000     1          
   262  Cl    s      6.7617 *    -2.0285 *     4.2824 *  0.0000     2          
   263  O     s     -4.5078 *     0.2254 *    -6.9871 *  0.0000     2          
   264  Cl    s      2.2539 *    -6.5363 *    -4.7332 *  0.0000     2          
   265  Cl    s      6.7617 *     2.4793 *     4.2824 *  0.0000     2          
   266  O     s      0.0000       4.7332 *    -6.9871 *  0.0000     1          
   267  Cl    s      2.2539 *     6.9871 *     4.2824 *  0.0000     2          
   268  Cl    s      6.7617 *    -2.0285 *    -4.7332 *  0.0000     2          
   269  Cl    s      6.7617 *     2.4793 *    -4.7332 *  0.0000     2          
   270  Cl    s      2.2539 *     6.9871 *    -4.7332 *  0.0000     2          
   271  O     s      4.5078 *    -4.2824 *     6.5363 *  0.0000     2          
   272  O     s      0.0000      -8.7902 *     2.0285 *  0.0000     1          
   273  O     s      0.0000      -8.7902 *    -2.4793 *  0.0000     1          
   274  O     s     -4.5078 *     4.7332 *     6.5363 *  0.0000     2          
   275  O     s      9.0156 *     0.2254 *     2.0285 *  0.0000     2          
   276  Cl    s      2.2539 *    -2.0285 *     8.7902 *  0.0000     2          
   277  O     s      9.0156 *     0.2254 *    -2.4793 *  0.0000     2          
   278  O     s      4.5078 *    -4.2824 *    -6.9871 *  0.0000     2          
   279  Cl    s      6.7617 *    -6.5363 *    -0.2254 *  0.0000     2          
   280  Cl    s      2.2539 *     2.4793 *     8.7902 *  0.0000     2          
   281  O     s      0.0000       9.2410 *     2.0285 *  0.0000     1          
   282  O     s      0.0000       9.2410 *    -2.4793 *  0.0000     1          
   283  O     s      4.5078 *     4.7332 *    -6.9871 *  0.0000     2          
   284  Cl    s      2.2539 *    -2.0285 *    -9.2410 *  0.0000     2          
   285  Cl    s      6.7617 *     6.9871 *    -0.2254 *  0.0000     2          
   286  Cl    s      2.2539 *     2.4793 *    -9.2410 *  0.0000     2          
   287  O     s     -4.5078 *    -8.7902 *     2.0285 *  0.0000     2          
   288  O     s      9.0156 *    -4.2824 *     2.0285 *  0.0000     2          
   289  O     s     -4.5078 *    -8.7902 *    -2.4793 *  0.0000     2          
   290  O     s      9.0156 *    -4.2824 *    -2.4793 *  0.0000     2          
   291  Cl    s      6.7617 *    -6.5363 *     4.2824 *  0.0000     2          
   292  O     s      9.0156 *     4.7332 *     2.0285 *  0.0000     2          
   293  O     s     -4.5078 *     9.2410 *     2.0285 *  0.0000     2          
   294  O     s      9.0156 *     4.7332 *    -2.4793 *  0.0000     2          
   295  Cl    s      6.7617 *    -6.5363 *    -4.7332 *  0.0000     2          
   296  O     s     -4.5078 *     9.2410 *    -2.4793 *  0.0000     2          
   297  Cl    s      6.7617 *     6.9871 *     4.2824 *  0.0000     2          
   298  Cl    s      6.7617 *     6.9871 *    -4.7332 *  0.0000     2          
   299  O     s      0.0000      -8.7902 *     6.5363 *  0.0000     1          
   300  O     s      0.0000       0.2254 *    11.0441 *  0.0000     1          
   301  O     s      9.0156 *     0.2254 *     6.5363 *  0.0000     2          
   302  Cl    s      2.2539 *    -6.5363 *     8.7902 *  0.0000     2          
   303  O     s      0.0000      -8.7902 *    -6.9871 *  0.0000     1          
   304  Cl    s      2.2539 *   -11.0441 *    -0.2254 *  0.0000     2          
   305  Cl    s      6.7617 *    -2.0285 *     8.7902 *  0.0000     2          
   306  O     s      0.0000       9.2410 *     6.5363 *  0.0000     1          
   307  Cl    s      6.7617 *     2.4793 *     8.7902 *  0.0000     2          
   308  O     s      9.0156 *     0.2254 *    -6.9871 *  0.0000     2          
   309  Cl    s     11.2695 *    -2.0285 *    -0.2254 *  0.0000     2          
   310  Cl    s      2.2539 *     6.9871 *     8.7902 *  0.0000     2          
   311  O     s      0.0000       0.2254 *   -11.4949 *  0.0000     1          
   312  Cl    s      2.2539 *    -6.5363 *    -9.2410 *  0.0000     2          
   313  Cl    s     11.2695 *     2.4793 *    -0.2254 *  0.0000     2          
   314  O     s      0.0000       9.2410 *    -6.9871 *  0.0000     1          
   315  Cl    s      6.7617 *    -2.0285 *    -9.2410 *  0.0000     2          
   316  Cl    s      2.2539 *    11.4949 *    -0.2254 *  0.0000     2          
   317  Cl    s      6.7617 *     2.4793 *    -9.2410 *  0.0000     2          
   318  Cl    s      2.2539 *     6.9871 *    -9.2410 *  0.0000     2          
   319  O     s      0.0000      -4.2824 *    11.0441 *  0.0000     1          
   320  O     s      4.5078 *    -8.7902 *     6.5363 *  0.0000     2          
   321  O     s      4.5078 *     0.2254 *    11.0441 *  0.0000     2          
   322  O     s      9.0156 *    -4.2824 *     6.5363 *  0.0000     2          
--------------------------------------------------------------------------------

  Components of defect energy : 

--------------------------------------------------------------------------------
  Region 1 - region 1                   =      2.48622898 eV
  Region 1 - region 2a (unrelaxed)      =      5.88267687 eV
  Region 1 - 2a (relaxed - correction)  =     -0.30836963 eV
  Region 1 (Total)                      =      8.06053623 eV
  Region 2a                             =      0.15408230 eV
  Region 2b                             =     -0.43795988 eV
--------------------------------------------------------------------------------
  Total defect energy                   =      7.77665864 eV
--------------------------------------------------------------------------------

  Largest displacement in region 2 =   0.0322 Angstroms


  Number of variables =      875

  Maximum number of calculations  =        1000
  Maximum Hessian update interval =          10
  Maximum step size               =   1.0000000
  Maximum parameter tolerance     =   0.0000100
  Maximum function  tolerance     =   0.0000100
  Maximum gradient  tolerance     =   0.0010000

  Symmetry adapted optimisation

  Symmetry to be used for second derivatives

  Newton-Raphson optimiser to be used

  BFGS hessian update to be used

  Lower half triangular hessian to be used

  Start of defect optimisation :

  Cycle:      0 Defect Energy:   7.776659  Gnorm:     0.018891  CPU:    3.172
  ** Hessian calculated **
  Cycle:      1 Defect Energy:   6.053054  Gnorm:     0.007256  CPU:    8.219
  Cycle:      2 Defect Energy:   5.439479  Gnorm:     0.005996  CPU:   12.576
  Cycle:      3 Defect Energy:   5.301514  Gnorm:     0.003304  CPU:   15.931
  Cycle:      4 Defect Energy:   5.251091  Gnorm:     0.003150  CPU:   16.873
  Cycle:      5 Defect Energy:   5.184007  Gnorm:     0.002638  CPU:   17.880
  Cycle:      6 Defect Energy:   5.096571  Gnorm:     0.002122  CPU:   18.770
  Cycle:      7 Defect Energy:   5.004243  Gnorm:     0.002011  CPU:   19.660
  Cycle:      8 Defect Energy:   4.940235  Gnorm:     0.001688  CPU:   20.548
  Cycle:      9 Defect Energy:   4.889949  Gnorm:     0.001783  CPU:   21.433
  Cycle:     10 Defect Energy:   4.841729  Gnorm:     0.001836  CPU:   22.406
  ** Hessian calculated **
  Cycle:     11 Defect Energy:   4.824657  Gnorm:     0.001580  CPU:   28.431
  Cycle:     12 Defect Energy:   4.803079  Gnorm:     0.001502  CPU:   29.557
  Cycle:     13 Defect Energy:   4.774993  Gnorm:     0.001477  CPU:   30.690
  Cycle:     14 Defect Energy:   4.741488  Gnorm:     0.001441  CPU:   31.821
  Cycle:     15 Defect Energy:   4.712566  Gnorm:     0.001397  CPU:   33.028
  Cycle:     16 Defect Energy:   4.687530  Gnorm:     0.001363  CPU:   34.084
  Cycle:     17 Defect Energy:   4.665410  Gnorm:     0.001359  CPU:   35.161
  Cycle:     18 Defect Energy:   4.642391  Gnorm:     0.001316  CPU:   36.204
  Cycle:     19 Defect Energy:   4.619878  Gnorm:     0.001274  CPU:   37.257
  Cycle:     20 Defect Energy:   4.597310  Gnorm:     0.001234  CPU:   38.384
  ** Hessian calculated **
  Cycle:     21 Defect Energy:   4.563285  Gnorm:     0.001080  CPU:   40.953
  Cycle:     22 Defect Energy:   4.522647  Gnorm:     0.000853  CPU:   42.074
  Cycle:     23 Defect Energy:   4.508811  Gnorm:     0.000736  CPU:   43.018
  ** Hessian calculated **
  Cycle:     24 Defect Energy:   4.483136  Gnorm:     0.000517  CPU:   45.568
  Cycle:     25 Defect Energy:   4.470024  Gnorm:     0.000365  CPU:   46.607
  Cycle:     26 Defect Energy:   4.462536  Gnorm:     0.000258  CPU:   47.540
  Cycle:     27 Defect Energy:   4.457280  Gnorm:     0.000187  CPU:   48.473
  Cycle:     28 Defect Energy:   4.451830  Gnorm:     0.000178  CPU:   49.409
  Cycle:     29 Defect Energy:   4.446592  Gnorm:     0.000292  CPU:   50.375
  Cycle:     30 Defect Energy:   4.444926  Gnorm:     0.000242  CPU:   51.345
  Cycle:     31 Defect Energy:   4.444256  Gnorm:     0.000217  CPU:   52.252
  ** Hessian calculated **
  Cycle:     32 Defect Energy:   4.441825  Gnorm:     0.000157  CPU:   54.588
  Cycle:     33 Defect Energy:   4.440531  Gnorm:     0.000108  CPU:   55.575
  Cycle:     34 Defect Energy:   4.439695  Gnorm:     0.000088  CPU:   56.244
  Cycle:     35 Defect Energy:   4.439117  Gnorm:     0.000103  CPU:   58.089
  Cycle:     36 Defect Energy:   4.439363  Gnorm:     0.000096  CPU:   61.304
  ** Hessian calculated **
  Cycle:     37 Defect Energy:   4.439313  Gnorm:     0.000053  CPU:   64.203
  Cycle:     38 Defect Energy:   4.439249  Gnorm:     0.000039  CPU:   65.310
  Cycle:     39 Defect Energy:   4.439177  Gnorm:     0.000038  CPU:   66.578
  Cycle:     40 Defect Energy:   4.439062  Gnorm:     0.000042  CPU:   67.618
  Cycle:     41 Defect Energy:   4.438934  Gnorm:     0.000048  CPU:   68.683
  Cycle:     42 Defect Energy:   4.438748  Gnorm:     0.000066  CPU:   69.756
  Cycle:     43 Defect Energy:   4.438546  Gnorm:     0.000077  CPU:   70.923
  Cycle:     44 Defect Energy:   4.438313  Gnorm:     0.000094  CPU:   71.963
  Cycle:     45 Defect Energy:   4.437998  Gnorm:     0.000110  CPU:   72.995
  Cycle:     46 Defect Energy:   4.437597  Gnorm:     0.000132  CPU:   74.029
  ** Hessian calculated **
  Cycle:     47 Defect Energy:   4.437445  Gnorm:     0.000114  CPU:   76.708
  Cycle:     48 Defect Energy:   4.437301  Gnorm:     0.000108  CPU:   77.675
  Cycle:     49 Defect Energy:   4.437099  Gnorm:     0.000103  CPU:   78.629
  Cycle:     50 Defect Energy:   4.436878  Gnorm:     0.000100  CPU:   79.596
  Cycle:     51 Defect Energy:   4.436571  Gnorm:     0.000098  CPU:   80.663
  Cycle:     52 Defect Energy:   4.436297  Gnorm:     0.000104  CPU:   81.613
  Cycle:     53 Defect Energy:   4.436018  Gnorm:     0.000109  CPU:   82.550
  Cycle:     54 Defect Energy:   4.435743  Gnorm:     0.000125  CPU:   83.489
  Cycle:     55 Defect Energy:   4.435359  Gnorm:     0.000138  CPU:   84.424
  Cycle:     56 Defect Energy:   4.434898  Gnorm:     0.000160  CPU:   85.420
  ** Hessian calculated **
  Cycle:     57 Defect Energy:   4.434701  Gnorm:     0.000146  CPU:   87.765
  Cycle:     58 Defect Energy:   4.434423  Gnorm:     0.000142  CPU:   88.657
  Cycle:     59 Defect Energy:   4.434048  Gnorm:     0.000138  CPU:   89.545
  Cycle:     60 Defect Energy:   4.433560  Gnorm:     0.000136  CPU:   90.498
  Cycle:     61 Defect Energy:   4.432910  Gnorm:     0.000140  CPU:   91.097
  Cycle:     62 Defect Energy:   4.432178  Gnorm:     0.000154  CPU:   93.999
  Cycle:     63 Defect Energy:   4.431303  Gnorm:     0.000179  CPU:   96.886
  Cycle:     64 Defect Energy:   4.430422  Gnorm:     0.000205  CPU:   98.000
  Cycle:     65 Defect Energy:   4.429042  Gnorm:     0.000250  CPU:   99.110
  Cycle:     66 Defect Energy:   4.427045  Gnorm:     0.000316  CPU:  100.223
  ** Hessian calculated **
  Cycle:     67 Defect Energy:   4.426046  Gnorm:     0.000297  CPU:  103.159
  Cycle:     68 Defect Energy:   4.424783  Gnorm:     0.000291  CPU:  104.204
  Cycle:     69 Defect Energy:   4.423000  Gnorm:     0.000279  CPU:  105.257
  Cycle:     70 Defect Energy:   4.420724  Gnorm:     0.000273  CPU:  106.418
  Cycle:     71 Defect Energy:   4.417777  Gnorm:     0.000275  CPU:  107.437
  Cycle:     72 Defect Energy:   4.414338  Gnorm:     0.000301  CPU:  108.442
  Cycle:     73 Defect Energy:   4.411104  Gnorm:     0.000345  CPU:  109.456
  Cycle:     74 Defect Energy:   4.407227  Gnorm:     0.000404  CPU:  110.443
  Cycle:     75 Defect Energy:   4.402484  Gnorm:     0.000510  CPU:  111.523
  Cycle:     76 Defect Energy:   4.397366  Gnorm:     0.000583  CPU:  112.490
  ** Hessian calculated **
  Cycle:     77 Defect Energy:   4.393686  Gnorm:     0.000552  CPU:  115.091
  Cycle:     78 Defect Energy:   4.388561  Gnorm:     0.000535  CPU:  116.019
  Cycle:     79 Defect Energy:   4.381919  Gnorm:     0.000513  CPU:  116.951
  Cycle:     80 Defect Energy:   4.373239  Gnorm:     0.000493  CPU:  117.913
  Cycle:     81 Defect Energy:   4.363868  Gnorm:     0.000507  CPU:  118.839
  Cycle:     82 Defect Energy:   4.356179  Gnorm:     0.000534  CPU:  119.842
  Cycle:     83 Defect Energy:   4.349652  Gnorm:     0.000582  CPU:  120.728
  Cycle:     84 Defect Energy:   4.343538  Gnorm:     0.000608  CPU:  121.628
  Cycle:     85 Defect Energy:   4.338258  Gnorm:     0.000650  CPU:  122.530
  Cycle:     86 Defect Energy:   4.332465  Gnorm:     0.000690  CPU:  123.406
  ** Hessian calculated **
  Cycle:     87 Defect Energy:   4.323308  Gnorm:     0.000676  CPU:  129.147
  Cycle:     88 Defect Energy:   4.312371  Gnorm:     0.000667  CPU:  130.230
  Cycle:     89 Defect Energy:   4.284166  Gnorm:     0.000603  CPU:  131.363
  Cycle:     90 Defect Energy:   4.256691  Gnorm:     0.000549  CPU:  132.452
  Cycle:     91 Defect Energy:   4.245015  Gnorm:     0.000309  CPU:  133.593
  Cycle:     92 Defect Energy:   4.241132  Gnorm:     0.000203  CPU:  134.641
  Cycle:     93 Defect Energy:   4.240356  Gnorm:     0.000163  CPU:  135.715
  Cycle:     94 Defect Energy:   4.239821  Gnorm:     0.000118  CPU:  136.799
  Cycle:     95 Defect Energy:   4.239531  Gnorm:     0.000086  CPU:  137.944
  Cycle:     96 Defect Energy:   4.239414  Gnorm:     0.000055  CPU:  138.938
  ** Hessian calculated **
  Cycle:     97 Defect Energy:   4.239378  Gnorm:     0.000039  CPU:  141.586


  **** Optimisation achieved ****


  Final defect energy  =        4.23937028
  Final defect Gnorm   =        0.00002700

  Components of defect energy : 

--------------------------------------------------------------------------------
  Region 1 - region 1                   =     -1.57144732 eV
  Region 1 - region 2a (unrelaxed)      =      6.35562949 eV
  Region 1 - 2a (relaxed - correction)  =     -0.22710021 eV
  Region 1 (Total)                      =      4.55708195 eV
  Region 2a                             =      0.11347881 eV
  Region 2b                             =     -0.43119049 eV
--------------------------------------------------------------------------------
  Total defect energy                   =      4.23937028 eV
--------------------------------------------------------------------------------

  Largest displacement in region 2 =   0.0325 Angstroms

  Final coordinates of region 1 :

--------------------------------------------------------------------------------
   No.  Atomic        x           y           z          Radius      Charge
        Label       (Angs)      (Angs)      (Angs)       (Angs)       (e) 
--------------------------------------------------------------------------------
     1  Na    c     2.253894    2.028504    0.047093    0.000000    1.000000
     2  O     c     2.253894    2.366687    2.235978    0.000000    0.183000
     3  O     c     2.253894    2.266878   -2.247484    0.000000    0.183000
     4  Cl    c     4.640793    0.030599   -0.097194    0.000000    1.485000
     5  Cl    c    -0.133006    0.030599   -0.097194    0.000000    1.485000
     6  Na    c     4.417762    1.830596    2.259182    0.000000    1.000000
     7  Na    c     0.090025    1.830596    2.259182    0.000000    1.000000
     8  Na    c     2.253894    4.548057    2.134449    0.000000    1.000000
     9  Na    c     2.253894    0.029403   -2.622374    0.000000    1.000000
    10  Cl    c     4.547991    4.615722   -0.081067    0.000000    1.485000
    11  Cl    c    -0.040204    4.615722   -0.081067    0.000000    1.485000
    12  Na    c     4.511829    2.164928   -2.273616    0.000000    1.000000
    13  Na    c    -0.004042    2.164928   -2.273616    0.000000    1.000000
    14  Na    c     2.253894    4.512297   -1.857421    0.000000    1.000000
    15  Na    c     2.253894    1.968114    4.421577    0.000000    1.000000
    16  Na    c     2.253894   -1.719466    0.088414    0.000000    1.000000
    17  Na    c    -2.105587    2.610636   -0.002943    0.000000    1.000000
    18  Na    c     6.613374    2.610636   -0.002943    0.000000    1.000000
    19  Na    c     2.253894    2.670607   -4.490225    0.000000    1.000000
    20  Na    c     2.253894    7.096727   -0.017610    0.000000    1.000000
    21  O     c     2.253894   -2.310819    2.236655    0.000000    0.183000
    22  O     c    -2.210151    2.233023    2.239729    0.000000    0.183000
    23  O     c     6.717938    2.233023    2.239729    0.000000    0.183000
    24  O     c     2.253894   -2.200801   -2.205910    0.000000    0.183000
    25  O     c     2.253894    6.828810    2.230454    0.000000    0.183000
    26  O     c    -2.263474    2.265374   -2.259119    0.000000    0.183000
    27  O     c     6.771261    2.265374   -2.259119    0.000000    0.183000
    28  Na    c     4.440676   -1.892721    2.255864    0.000000    1.000000
    29  Na    c     0.067112   -1.892721    2.255864    0.000000    1.000000
    30  Cl    c     4.606694    0.001632    4.635659    0.000000    1.485000
    31  Cl    c    -0.098906    0.001632    4.635659    0.000000    1.485000
    32  O     c     2.253894    6.764192   -2.263108    0.000000    0.183000
    33  Na    c    -2.485139    0.003375    1.872908    0.000000    1.000000
    34  Na    c     6.992926    0.003375    1.872908    0.000000    1.000000
    35  Cl    c     4.518238    4.652107    4.639918    0.000000    1.485000
    36  Cl    c    -0.010451    4.652107    4.639918    0.000000    1.485000
    37  Na    c     4.508925   -2.130101   -2.203056    0.000000    1.000000
    38  Na    c    -0.001138   -2.130101   -2.203056    0.000000    1.000000
    39  Na    c    -1.923823    4.463773    2.586705    0.000000    1.000000
    40  Na    c     6.431610    4.463773    2.586705    0.000000    1.000000
    41  Na    c    -2.368408    0.008994   -1.890750    0.000000    1.000000
    42  Na    c     6.876195    0.008994   -1.890750    0.000000    1.000000
    43  Cl    c     4.515905    0.011884   -4.510421    0.000000    1.485000
    44  Cl    c    -0.008117    0.011884   -4.510421    0.000000    1.485000
    45  Na    c     4.503694    6.871584    2.143003    0.000000    1.000000
    46  Na    c     0.004093    6.871584    2.143003    0.000000    1.000000
    47  Na    c    -2.158443    4.503005   -2.633722    0.000000    1.000000
    48  Na    c     6.666230    4.503005   -2.633722    0.000000    1.000000
    49  Cl    c     4.501419    4.519929   -4.558445    0.000000    1.485000
    50  Cl    c     0.006368    4.519929   -4.558445    0.000000    1.485000
    51  Na    c     4.514215    6.744345   -2.197850    0.000000    1.000000
    52  Na    c    -0.006428    6.744345   -2.197850    0.000000    1.000000
    53  Na    c     2.253894   -1.829233    4.409470    0.000000    1.000000
    54  Na    c     6.676087   -2.607778    0.004087    0.000000    1.000000
    55  Na    c    -2.168300   -2.607778    0.004087    0.000000    1.000000
    56  Na    c    -2.314858    1.893128    4.489071    0.000000    1.000000
    57  Na    c     6.822646    1.893128    4.489071    0.000000    1.000000
    58  Na    c     2.253894    6.632800    4.489289    0.000000    1.000000
    59  Na    c     2.253894   -2.637758   -4.445755    0.000000    1.000000
    60  O     c     2.253894    2.240715    6.721752    0.000000    0.183000
    61  Na    c    -2.298280    6.392921   -0.008896    0.000000    1.000000
    62  Na    c     6.806067    6.392921   -0.008896    0.000000    1.000000
    63  Na    c     6.836013    1.878747   -4.495963    0.000000    1.000000
    64  Na    c    -2.328226    1.878747   -4.495963    0.000000    1.000000
    65  O     c     6.732732   -2.228035    2.237823    0.000000    0.183000
    66  O     c    -2.224945   -2.228035    2.237823    0.000000    0.183000
    67  Na    c     2.253894    6.404527   -4.506950    0.000000    1.000000
    68  O     c     6.766385   -2.246614   -2.242859    0.000000    0.183000
    69  O     c    -2.258598   -2.246614   -2.242859    0.000000    0.183000
    70  O     c    -2.242425    6.715132    2.246719    0.000000    0.183000
    71  O     c     6.750212    6.715132    2.246719    0.000000    0.183000
    72  Na    c     2.253894   -0.000507    7.014365    0.000000    1.000000
    73  Na    c     2.253894   -4.494482    2.191075    0.000000    1.000000
    74  Cl    c     4.610868   -4.627669   -0.073017    0.000000    1.485000
    75  Cl    c    -0.103081   -4.627669   -0.073017    0.000000    1.485000
    76  Na    c     4.507808    2.281457    6.640507    0.000000    1.000000
    77  Na    c    -0.000021    2.281457    6.640507    0.000000    1.000000
    78  O     c    -2.267940    6.748934   -2.267381    0.000000    0.183000
    79  O     c     6.775727    6.748934   -2.267381    0.000000    0.183000
    80  Na    c     2.253894    4.485721    6.582467    0.000000    1.000000
    81  Na    c     2.253894   -4.450281   -1.799712    0.000000    1.000000
    82  O     c     2.253894    2.260027   -6.737196    0.000000    0.183000
    83  Cl    c     9.119618   -0.005205   -0.034673    0.000000    1.485000
    84  Cl    c    -4.611831   -0.005205   -0.034673    0.000000    1.485000
    85  Na    c     8.980799    2.509514    2.204727    0.000000    1.000000
    86  Na    c    -4.473012    2.509514    2.204727    0.000000    1.000000
    87  Cl    c     9.061343    4.501670   -0.020744    0.000000    1.485000
    88  Cl    c    -4.553555    4.501670   -0.020744    0.000000    1.485000
    89  Na    c     9.014755    2.403981   -2.162659    0.000000    1.000000
    90  Na    c    -4.506967    2.403981   -2.162659    0.000000    1.000000
    91  Na    c     2.253894    9.042046    2.581018    0.000000    1.000000
    92  Na    c     2.253894    0.002785   -6.405289    0.000000    1.000000
    93  Cl    c     4.539302    9.041577   -0.001563    0.000000    1.485000
    94  Cl    c    -0.031514    9.041577   -0.001563    0.000000    1.485000
    95  Na    c     4.512345    2.234604   -6.673454    0.000000    1.000000
    96  Na    c    -0.004558    2.234604   -6.673454    0.000000    1.000000
    97  Na    c     2.253894    8.994202   -2.625502    0.000000    1.000000
    98  Na    c     2.253894    4.491620   -7.124023    0.000000    1.000000
    99  Na    c     6.801823   -1.947587    4.495497    0.000000    1.000000
   100  Na    c    -2.294036   -1.947587    4.495497    0.000000    1.000000
   101  O     c     2.253894   -2.240888    6.702694    0.000000    0.183000
   102  Na    c     6.784895   -1.961218   -4.495110    0.000000    1.000000
   103  Na    c    -2.277108   -1.961218   -4.495110    0.000000    1.000000
   104  Na    c    -2.178315    7.013762    4.494119    0.000000    1.000000
   105  Na    c     6.686103    7.013762    4.494119    0.000000    1.000000
   106  O     c    -2.257847    2.249062    6.745090    0.000000    0.183000
   107  O     c     6.765634    2.249062    6.745090    0.000000    0.183000
   108  O     c     2.253894    6.749855    6.754906    0.000000    0.183000
   109  Na    c     6.777293    7.112128   -4.495212    0.000000    1.000000
   110  Na    c    -2.269506    7.112128   -4.495212    0.000000    1.000000
   111  Cl    c     4.578988   -4.647468    4.619216    0.000000    1.485000
   112  Cl    c    -0.071201   -4.647468    4.619216    0.000000    1.485000
   113  Na    c     4.505515   -2.296367    6.629221    0.000000    1.000000
   114  Na    c     0.002272   -2.296367    6.629221    0.000000    1.000000
   115  Na    c    -2.152211    0.002414    7.033078    0.000000    1.000000
   116  Na    c     6.659998    0.002414    7.033078    0.000000    1.000000
   117  Na    c     6.519693   -4.477986    2.508745    0.000000    1.000000
   118  Na    c    -2.011906   -4.477986    2.508745    0.000000    1.000000
   119  O     c     2.253894   -2.252470   -6.705083    0.000000    0.183000
   120  Cl    c     9.065590   -0.014515    4.510539    0.000000    1.485000
   121  Cl    c    -4.557803   -0.014515    4.510539    0.000000    1.485000
   122  Na    c     8.988668   -2.472064    2.244735    0.000000    1.000000
   123  Na    c    -4.480880   -2.472064    2.244735    0.000000    1.000000
   124  Na    c     6.786309    4.506708    6.481828    0.000000    1.000000
   125  Na    c    -2.278521    4.506708    6.481828    0.000000    1.000000
   126  Na    c     6.668221   -4.497039   -2.500226    0.000000    1.000000
   127  Na    c    -2.160434   -4.497039   -2.500226    0.000000    1.000000
   128  O     c    -2.261682    2.244479   -6.746254    0.000000    0.183000
   129  O     c     6.769469    2.244479   -6.746254    0.000000    0.183000
   130  Cl    c     4.534991   -4.520416   -4.569939    0.000000    1.485000
   131  Cl    c    -0.027204   -4.520416   -4.569939    0.000000    1.485000
   132  Na    c     4.510380    6.696078    6.760999    0.000000    1.000000
   133  Na    c    -0.002593    6.696078    6.760999    0.000000    1.000000
   134  Cl    c     9.060142    4.493189    4.502006    0.000000    1.485000
   135  Cl    c    -4.552354    4.493189    4.502006    0.000000    1.485000
   136  Na    c     9.010429   -2.358568   -2.209975    0.000000    1.000000
   137  Na    c    -4.502642   -2.358568   -2.209975    0.000000    1.000000
   138  O     c     2.253894    6.735935   -6.768622    0.000000    0.183000
   139  Cl    c     4.495303    9.059769    4.495498    0.000000    1.485000
   140  Cl    c     0.012484    9.059769    4.495498    0.000000    1.485000
   141  Cl    c     9.066127   -0.015522   -4.545043    0.000000    1.485000
   142  Cl    c    -4.558340   -0.015522   -4.545043    0.000000    1.485000
   143  Na    c     9.000519    6.515599    2.314037    0.000000    1.000000
   144  Na    c    -4.492731    6.515599    2.314037    0.000000    1.000000
   145  Na    c     4.507592   -2.212561   -6.676843    0.000000    1.000000
   146  Na    c     0.000195   -2.212561   -6.676843    0.000000    1.000000
   147  Na    c     6.887120    8.978996    2.014026    0.000000    1.000000
   148  Na    c    -2.379332    8.978996    2.014026    0.000000    1.000000
   149  Na    c     6.803963    0.008199   -7.075171    0.000000    1.000000
   150  Na    c    -2.296176    0.008199   -7.075171    0.000000    1.000000
   151  Cl    c     9.054822    4.515501   -4.528636    0.000000    1.485000
   152  Cl    c    -4.547035    4.515501   -4.528636    0.000000    1.485000
   153  Na    c     9.021670    6.646963   -2.268369    0.000000    1.000000
   154  Na    c    -4.513882    6.646963   -2.268369    0.000000    1.000000
   155  Na    c     6.807624    8.994358   -1.960329    0.000000    1.000000
   156  Na    c    -2.299837    8.994358   -1.960329    0.000000    1.000000
   157  Na    c    -2.232934    4.505754   -6.466804    0.000000    1.000000
   158  Na    c     6.740721    4.505754   -6.466804    0.000000    1.000000
   159  Cl    c     4.509491    9.048935   -4.550179    0.000000    1.485000
   160  Cl    c    -0.001704    9.048935   -4.550179    0.000000    1.485000
   161  Na    c     4.505779    6.735377   -6.702846    0.000000    1.000000
   162  Na    c     0.002009    6.735377   -6.702846    0.000000    1.000000
   163  Na    c     2.253894    2.401211    8.989052    0.000000    1.000000
   164  Na    c     2.253894   -6.963418    0.001094    0.000000    1.000000
   165  Na    c    11.282795    2.226279    0.005148    0.000000    1.000000
   166  Na    c    -6.775008    2.226279    0.005148    0.000000    1.000000
   167  O     c     6.762591   -2.240801    6.757096    0.000000    0.183000
   168  O     c    -2.254804   -2.240801    6.757096    0.000000    0.183000
   169  O     c     2.253894   -6.782309    2.235720    0.000000    0.183000
   170  O     c     2.253894   -6.720827   -2.228604    0.000000    0.183000
   171  Na    c     2.253894    1.950834   -8.986545    0.000000    1.000000
   172  Na    c     2.253894   10.980382   -0.005214    0.000000    1.000000
   173  O     c    -2.262882    6.772745    6.747858    0.000000    0.183000
   174  O     c     6.770669    6.772745    6.747858    0.000000    0.183000
   175  Na    c     2.253894   -4.491682    6.486205    0.000000    1.000000
   176  O     c    11.248575    2.248409    2.254505    0.000000    0.183000
   177  O     c    -6.740788    2.248409    2.254505    0.000000    0.183000
   178  Cl    c     4.504992    0.021071    9.042167    0.000000    1.485000
   179  Cl    c     0.002795    0.021071    9.042167    0.000000    1.485000
   180  Na    c     4.497814   -6.789258    2.187560    0.000000    1.000000
   181  Na    c     0.009973   -6.789258    2.187560    0.000000    1.000000
   182  O     c    11.270760    2.249959   -2.251856    0.000000    0.183000
   183  O     c    -6.762973    2.249959   -2.251856    0.000000    0.183000
   184  O     c     6.761954   -2.226126   -6.760079    0.000000    0.183000
   185  O     c    -2.254167   -2.226126   -6.760079    0.000000    0.183000
   186  Cl    c     9.074393   -4.497247   -0.019660    0.000000    1.485000
   187  Cl    c    -4.566606   -4.497247   -0.019660    0.000000    1.485000
   188  Na    c     9.009432    2.215793    6.813870    0.000000    1.000000
   189  Na    c    -4.501644    2.215793    6.813870    0.000000    1.000000
   190  Cl    c     4.513005    4.522352    9.074148    0.000000    1.485000
   191  Cl    c    -0.005218    4.522352    9.074148    0.000000    1.485000
   192  Na    c     4.506894   -6.712610   -2.210972    0.000000    1.000000
   193  Na    c     0.000893   -6.712610   -2.210972    0.000000    1.000000
   194  O     c     2.253894   11.261397    2.248547    0.000000    0.183000
   195  Na    c    11.064459   -0.010275    2.277604    0.000000    1.000000
   196  Na    c    -6.556672   -0.010275    2.277604    0.000000    1.000000
   197  O     c     2.253894   11.241493   -2.262247    0.000000    0.183000
   198  Na    c     2.253894    9.008490    6.694175    0.000000    1.000000
   199  O     c     6.760024    6.769176   -6.736490    0.000000    0.183000
   200  O     c    -2.252237    6.769176   -6.736490    0.000000    0.183000
   201  Na    c     2.253894   -4.488195   -6.969243    0.000000    1.000000
   202  Na    c    11.443550    4.486381    2.304708    0.000000    1.000000
[...]
    242 y          0.000000      0.001446     0.001446    Cartesian    0.00
    242 z          4.507787      4.635984     0.128196    Cartesian    2.84
    243 x          2.253894      2.253894     0.000000    Cartesian    0.00
    243 y          6.761681      6.764218     0.002537    Cartesian    0.04
    243 z         -2.253894     -2.263081    -0.009188    Cartesian    0.41
    244 x          4.507787      4.531530     0.023743    Cartesian    0.53
    244 y          4.507787      4.666296     0.158509    Cartesian    3.52
    244 z          4.507787      4.652679     0.144892    Cartesian    3.21
    245 x          4.507787      4.512410     0.004622    Cartesian    0.10
    245 y          0.000000      0.013622     0.013622    Cartesian    0.00
    245 z         -4.507787     -4.511190    -0.003403    Cartesian    0.08
    246 x          4.507787      4.500977    -0.006811    Cartesian   -0.15
    246 y          4.507787      4.520379     0.012592    Cartesian    0.28
    246 z         -4.507787     -4.561863    -0.054076    Cartesian    1.20
    247 x          2.253894      2.253894     0.000000    Cartesian    0.00
    247 y          2.253894      2.240734    -0.013160    Cartesian   -0.58
    247 z          6.761681      6.721800    -0.039881    Cartesian   -0.59
    248 x          6.761681      6.732796    -0.028884    Cartesian   -0.43
    248 y         -2.253894     -2.228050     0.025844    Cartesian   -1.15
    248 z          2.253894      2.237801    -0.016092    Cartesian   -0.71
    249 x          6.761681      6.766392     0.004712    Cartesian    0.07
    249 y         -2.253894     -2.246649     0.007245    Cartesian   -0.32
    249 z         -2.253894     -2.242844     0.011049    Cartesian   -0.49
    250 x         -2.253894     -2.242390     0.011504    Cartesian   -0.51
    250 y          6.761681      6.715150    -0.046531    Cartesian   -0.69
    250 z          2.253894      2.246739    -0.007155    Cartesian   -0.32
    251 x          4.507787      4.623923     0.116136    Cartesian    2.58
    251 y         -4.507787     -4.637104    -0.129316    Cartesian    2.87
    251 z          0.000000     -0.085839    -0.085839    Cartesian    0.00
    252 x         -2.253894     -2.267951    -0.014058    Cartesian    0.62
    252 y          6.761681      6.748938    -0.012742    Cartesian   -0.19
    252 z         -2.253894     -2.267412    -0.013519    Cartesian    0.60
    253 x          2.253894      2.253894     0.000000    Cartesian    0.00
    253 y          2.253894      2.260051     0.006157    Cartesian    0.27
    253 z         -6.761681     -6.737205     0.024475    Cartesian   -0.36
    254 x          9.015574      9.115963     0.100388    Cartesian    1.11
    254 y          0.000000     -0.006055    -0.006055    Cartesian    0.00
    254 z          0.000000     -0.034727    -0.034727    Cartesian    0.00
    255 x          9.015574      9.056660     0.041086    Cartesian    0.46
    255 y          4.507787      4.501747    -0.006040    Cartesian   -0.13
    255 z          0.000000     -0.020431    -0.020431    Cartesian    0.00
    256 x          4.507787      4.537761     0.029974    Cartesian    0.66
    256 y          9.015574      9.042105     0.026531    Cartesian    0.29
    256 z          0.000000     -0.001009    -0.001009    Cartesian    0.00
    257 x          2.253894      2.253894     0.000000    Cartesian    0.00
    257 y         -2.253894     -2.240887     0.013007    Cartesian   -0.58
    257 z          6.761681      6.702741    -0.058940    Cartesian   -0.87
    258 x         -2.253894     -2.257851    -0.003958    Cartesian    0.18
    258 y          2.253894      2.249030    -0.004864    Cartesian   -0.22
    258 z          6.761681      6.745116    -0.016565    Cartesian   -0.24
    259 x          2.253894      2.253894     0.000000    Cartesian    0.00
    259 y          6.761681      6.749824    -0.011857    Cartesian   -0.18
    259 z          6.761681      6.754893    -0.006788    Cartesian   -0.10
    260 x          4.507787      4.593998     0.086210    Cartesian    1.91
    260 y         -4.507787     -4.661898    -0.154111    Cartesian    3.42
    260 z          4.507787      4.631556     0.123769    Cartesian    2.75
    261 x          2.253894      2.253894     0.000000    Cartesian    0.00
    261 y         -2.253894     -2.252518     0.001376    Cartesian   -0.06
    261 z         -6.761681     -6.705081     0.056600    Cartesian   -0.84
    262 x          9.015574      9.065144     0.049570    Cartesian    0.55
    262 y          0.000000     -0.013700    -0.013700    Cartesian    0.00
    262 z          4.507787      4.509587     0.001800    Cartesian    0.04
    263 x         -2.253894     -2.261700    -0.007806    Cartesian    0.35
    263 y          2.253894      2.244442    -0.009452    Cartesian   -0.42
    263 z         -6.761681     -6.746279     0.015402    Cartesian   -0.23
    264 x          4.507787      4.537057     0.029270    Cartesian    0.65
    264 y         -4.507787     -4.521580    -0.013793    Cartesian    0.31
    264 z         -4.507787     -4.575013    -0.067226    Cartesian    1.49
    265 x          9.015574      9.062745     0.047171    Cartesian    0.52
    265 y          4.507787      4.494666    -0.013121    Cartesian   -0.29
    265 z          4.507787      4.498601    -0.009186    Cartesian   -0.20
    266 x          2.253894      2.253894     0.000000    Cartesian    0.00
    266 y          6.761681      6.735916    -0.025765    Cartesian   -0.38
    266 z         -6.761681     -6.768662    -0.006982    Cartesian    0.10
    267 x          4.507787      4.492907    -0.014880    Cartesian   -0.33
    267 y          9.015574      9.061619     0.046044    Cartesian    0.51
    267 z          4.507787      4.489785    -0.018002    Cartesian   -0.40
    268 x          9.015574      9.063906     0.048331    Cartesian    0.54
    268 y          0.000000     -0.014163    -0.014163    Cartesian    0.00
    268 z         -4.507787     -4.548387    -0.040599    Cartesian    0.90
    269 x          9.015574      9.052865     0.037290    Cartesian    0.41
    269 y          4.507787      4.516948     0.009160    Cartesian    0.20
    269 z         -4.507787     -4.530962    -0.023175    Cartesian    0.51
    270 x          4.507787      4.506835    -0.000953    Cartesian   -0.02
    270 y          9.015574      9.050279     0.034705    Cartesian    0.38
    270 z         -4.507787     -4.553174    -0.045387    Cartesian    1.01
    271 x          6.761681      6.762590     0.000909    Cartesian    0.01
    271 y         -2.253894     -2.240784     0.013110    Cartesian   -0.58
    271 z          6.761681      6.757128    -0.004553    Cartesian   -0.07
    272 x          2.253894      2.253894     0.000000    Cartesian    0.00
    272 y         -6.761681     -6.782396    -0.020715    Cartesian    0.31
    272 z          2.253894      2.235684    -0.018210    Cartesian   -0.81
    273 x          2.253894      2.253894     0.000000    Cartesian    0.00
    273 y         -6.761681     -6.720886     0.040795    Cartesian   -0.60
    273 z         -2.253894     -2.228527     0.025366    Cartesian   -1.13
    274 x         -2.253894     -2.262891    -0.008997    Cartesian    0.40
    274 y          6.761681      6.772788     0.011107    Cartesian    0.16
    274 z          6.761681      6.747860    -0.013821    Cartesian   -0.20
    275 x         11.269468     11.248602    -0.020866    Cartesian   -0.19
    275 y          2.253894      2.248441    -0.005453    Cartesian   -0.24
    275 z          2.253894      2.254506     0.000612    Cartesian    0.03
    276 x          4.507787      4.506720    -0.001067    Cartesian   -0.02
    276 y          0.000000      0.023379     0.023379    Cartesian    0.00
    276 z          9.015574      9.039518     0.023944    Cartesian    0.27
    277 x         11.269468     11.270771     0.001303    Cartesian    0.01
    277 y          2.253894      2.249969    -0.003925    Cartesian   -0.17
    277 z         -2.253894     -2.251856     0.002038    Cartesian   -0.09
    278 x          6.761681      6.761962     0.000281    Cartesian    0.00
    278 y         -2.253894     -2.226104     0.027790    Cartesian   -1.23
    278 z         -6.761681     -6.760119     0.001562    Cartesian   -0.02
    279 x          9.015574      9.076834     0.061260    Cartesian    0.68
    279 y         -4.507787     -4.491808     0.015979    Cartesian   -0.35
    279 z          0.000000     -0.020755    -0.020755    Cartesian    0.00
    280 x          4.507787      4.515974     0.008187    Cartesian    0.18
    280 y          4.507787      4.522356     0.014569    Cartesian    0.32
    280 z          9.015574      9.081731     0.066156    Cartesian    0.73
    281 x          2.253894      2.253894     0.000000    Cartesian    0.00
    281 y         11.269468     11.261358    -0.008110    Cartesian   -0.07
    281 z          2.253894      2.248602    -0.005291    Cartesian   -0.23
    282 x          2.253894      2.253894     0.000000    Cartesian    0.00
    282 y         11.269468     11.241497    -0.027971    Cartesian   -0.25
    282 z         -2.253894     -2.262304    -0.008410    Cartesian    0.37
    283 x          6.761681      6.760025    -0.001656    Cartesian   -0.02
    283 y          6.761681      6.769228     0.007547    Cartesian    0.11
    283 z         -6.761681     -6.736481     0.025199    Cartesian   -0.37
    284 x          4.507787      4.499052    -0.008735    Cartesian   -0.19
    284 y          0.000000     -0.012612    -0.012612    Cartesian    0.00
    284 z         -9.015574     -9.041032    -0.025458    Cartesian    0.28
    285 x          9.015574      9.036390     0.020816    Cartesian    0.23
    285 y          9.015574      9.080593     0.065019    Cartesian    0.72
    285 z          0.000000     -0.023126    -0.023126    Cartesian    0.00
    286 x          4.507787      4.544277     0.036490    Cartesian    0.81
    286 y          4.507787      4.516189     0.008402    Cartesian    0.19
    286 z         -9.015574     -9.063628    -0.048054    Cartesian    0.53
    287 x         -2.253894     -2.234760     0.019133    Cartesian   -0.85
    287 y         -6.761681     -6.742255     0.019426    Cartesian   -0.29
    287 z          2.253894      2.267304     0.013410    Cartesian    0.59
    288 x         11.269468     11.254269    -0.015199    Cartesian   -0.13
    288 y         -2.253894     -2.266943    -0.013050    Cartesian    0.58
    288 z          2.253894      2.252829    -0.001065    Cartesian   -0.05
    289 x         -2.253894     -2.257874    -0.003980    Cartesian    0.18
    289 y         -6.761681     -6.755873     0.005808    Cartesian   -0.09
    289 z         -2.253894     -2.280845    -0.026951    Cartesian    1.20
    290 x         11.269468     11.269114    -0.000354    Cartesian   -0.00
    290 y         -2.253894     -2.258933    -0.005040    Cartesian    0.22
    290 z         -2.253894     -2.253861     0.000032    Cartesian   -0.00
    291 x          9.015574      9.052682     0.037107    Cartesian    0.41
    291 y         -4.507787     -4.508248    -0.000461    Cartesian    0.01
    291 z          4.507787      4.483435    -0.024352    Cartesian   -0.54
    292 x         11.269468     11.264827    -0.004641    Cartesian   -0.04
    292 y          6.761681      6.733100    -0.028581    Cartesian   -0.42
    292 z          2.253894      2.258800     0.004906    Cartesian    0.22
    293 x         -2.253894     -2.268730    -0.014836    Cartesian    0.66
    293 y         11.269468     11.254076    -0.015392    Cartesian   -0.14
    293 z          2.253894      2.234344    -0.019549    Cartesian   -0.87
    294 x         11.269468     11.273083     0.003615    Cartesian    0.03
    294 y          6.761681      6.750447    -0.011234    Cartesian   -0.17
    294 z         -2.253894     -2.253714     0.000180    Cartesian   -0.01
    295 x          9.015574      9.025469     0.009894    Cartesian    0.11
    295 y         -4.507787     -4.527677    -0.019890    Cartesian    0.44
    295 z         -4.507787     -4.526842    -0.019055    Cartesian    0.42
    296 x         -2.253894     -2.258346    -0.004452    Cartesian    0.20
    296 y         11.269468     11.255958    -0.013510    Cartesian   -0.12
    296 z         -2.253894     -2.233031     0.020862    Cartesian   -0.93
    297 x          9.015574      9.048332     0.032758    Cartesian    0.36
    297 y          9.015574      9.029532     0.013957    Cartesian    0.15
    297 z          4.507787      4.509436     0.001649    Cartesian    0.04
    298 x          9.015574      9.047783     0.032209    Cartesian    0.36
    298 y          9.015574      9.022116     0.006542    Cartesian    0.07
    298 z         -4.507787     -4.541171    -0.033384    Cartesian    0.74
    299 x          2.253894      2.253894     0.000000    Cartesian    0.00
    299 y         -6.761681     -6.753151     0.008530    Cartesian   -0.13
    299 z          6.761681      6.758110    -0.003571    Cartesian   -0.05
    300 x          2.253894      2.253894     0.000000    Cartesian    0.00
    300 y          2.253894      2.258060     0.004166    Cartesian    0.18
    300 z         11.269468     11.256954    -0.012514    Cartesian   -0.11
    301 x         11.269468     11.268798    -0.000670    Cartesian   -0.01
    301 y          2.253894      2.251053    -0.002840    Cartesian   -0.13
    301 z          6.761681      6.765409     0.003728    Cartesian    0.06
    302 x          4.507787      4.527891     0.020104    Cartesian    0.45
    302 y         -4.507787     -4.495063     0.012725    Cartesian   -0.28
    302 z          9.015574      9.098785     0.083211    Cartesian    0.92
    303 x          2.253894      2.253894     0.000000    Cartesian    0.00
    303 y         -6.761681     -6.738005     0.023676    Cartesian   -0.35
    303 z         -6.761681     -6.770135    -0.008454    Cartesian    0.13
    304 x          4.507787      4.467890    -0.039897    Cartesian   -0.89
    304 y         -9.015574     -9.053287    -0.037713    Cartesian    0.42
    304 z          0.000000      0.020313     0.020313    Cartesian    0.00
    305 x          9.015574      9.082030     0.066455    Cartesian    0.74
    305 y          0.000000      0.001829     0.001829    Cartesian    0.00
    305 z          9.015574      9.000059    -0.015515    Cartesian   -0.17
    306 x          2.253894      2.253894     0.000000    Cartesian    0.00
    306 y         11.269468     11.279754     0.010286    Cartesian    0.09
    306 z          6.761681      6.751965    -0.009716    Cartesian   -0.14
    307 x          9.015574      9.009529    -0.006045    Cartesian   -0.07
    307 y          4.507787      4.516214     0.008427    Cartesian    0.19
    307 z          9.015574      9.069350     0.053775    Cartesian    0.60
    308 x         11.269468     11.271294     0.001826    Cartesian    0.02
    308 y          2.253894      2.261592     0.007698    Cartesian    0.34
    308 z         -6.761681     -6.762817    -0.001136    Cartesian    0.02
    309 x         13.523362     13.602341     0.078979    Cartesian    0.58
    309 y          0.000000      0.017295     0.017295    Cartesian    0.00
    309 z          0.000000     -0.005725    -0.005725    Cartesian    0.00
    310 x          4.507787      4.546877     0.039090    Cartesian    0.87
    310 y          9.015574      9.069037     0.053463    Cartesian    0.59
    310 z          9.015574      9.022850     0.007276    Cartesian    0.08
    311 x          2.253894      2.253894     0.000000    Cartesian    0.00
    311 y          2.253894      2.223473    -0.030420    Cartesian   -1.35
    311 z        -11.269468    -11.253041     0.016427    Cartesian   -0.15
    312 x          4.507787      4.508431     0.000644    Cartesian    0.01
    312 y         -4.507787     -4.516060    -0.008273    Cartesian    0.18
    312 z         -9.015574     -9.057352    -0.041777    Cartesian    0.46
    313 x         13.523362     13.533087     0.009725    Cartesian    0.07
    313 y          4.507787      4.541025     0.033238    Cartesian    0.74
    313 z          0.000000      0.002817     0.002817    Cartesian    0.00
    314 x          2.253894      2.253894     0.000000    Cartesian    0.00
    314 y         11.269468     11.276614     0.007146    Cartesian    0.06
    314 z         -6.761681     -6.743178     0.018503    Cartesian   -0.27
    315 x          9.015574      9.057195     0.041620    Cartesian    0.46
    315 y          0.000000      0.005984     0.005984    Cartesian    0.00
    315 z         -9.015574     -9.018715    -0.003141    Cartesian    0.03
    316 x          4.507787      4.543302     0.035514    Cartesian    0.79
    316 y         13.523362     13.590408     0.067046    Cartesian    0.50
    316 z          0.000000     -0.012149    -0.012149    Cartesian    0.00
    317 x          9.015574      8.996402    -0.019172    Cartesian   -0.21
    317 y          4.507787      4.507284    -0.000504    Cartesian   -0.01
    317 z         -9.015574     -9.069438    -0.053864    Cartesian    0.60
    318 x          4.507787      4.516351     0.008564    Cartesian    0.19
    318 y          9.015574      9.035363     0.019788    Cartesian    0.22
    318 z         -9.015574     -9.051947    -0.036373    Cartesian    0.40
    319 x          2.253894      2.253894     0.000000    Cartesian    0.00
    319 y         -2.253894     -2.264942    -0.011049    Cartesian    0.49
    319 z         11.269468     11.253432    -0.016037    Cartesian   -0.14
    320 x          6.761681      6.774151     0.012470    Cartesian    0.18
    320 y         -6.761681     -6.771099    -0.009418    Cartesian    0.14
    320 z          6.761681      6.765825     0.004145    Cartesian    0.06
    321 x          6.761681      6.763807     0.002126    Cartesian    0.03
    321 y          2.253894      2.259136     0.005242    Cartesian    0.23
    321 z         11.269468     11.267993    -0.001475    Cartesian   -0.01
    322 x         11.269468     11.276272     0.006804    Cartesian    0.06
    322 y         -2.253894     -2.256942    -0.003048    Cartesian    0.14
    322 z          6.761681      6.767277     0.005596    Cartesian    0.08
--------------------------------------------------------------------------------


  Time to end of optimisation  =      142.6587 seconds


  Peak dynamic memory used =      94.76 MB 


  Timing analysis for GULP :

--------------------------------------------------------------------------------
  Task / Subroutine                                          Time (Seconds)
--------------------------------------------------------------------------------
  Calculation of reciprocal space energy and derivatives          0.0008
  Calculation of reciprocal space energy using symmetry           0.0012
  Calculation of real space energy and derivatives                0.0044
  Calculation of real space energy using symmetry                 0.0105
  Calculation for region 1 energy and derivatives (2-b)          79.0412
  Calculation for region 2a energy                               55.1548
  Calculation for region 2b energy                                0.0233
  Calculation and manipulation of Hessian matrix                  0.2687
  Calculation of matrix inversion                                 7.5988
  Symmetry generation of equivalent positions                     0.0053
--------------------------------------------------------------------------------
  Total CPU time                                                142.6588
--------------------------------------------------------------------------------


  Dump file written as Na3OCl.grs


  Job Finished at 22:42.00 30th November   2020                               

