********************************************************************************
*                       GENERAL UTILITY LATTICE PROGRAM                        *
*                                 Julian Gale                                  *
*                       Curtin Institute for Computation                       *
*                    School of Molecular and Life Sciences                     *
*                    Curtin University, Western Australia                      *
********************************************************************************
* Version = 5.2.0 * Last modified =  10th September 2020                       *
********************************************************************************
*  optimise     - perform optimisation run                                     *
*  conp         - constant pressure calculation                                *
*  property     - calculate properties for final geometry                      *
*  defect       - perform defect calculation after bulk run                    *
*  compare      - compare initial and final structures                         *
********************************************************************************

  Job Started  at 22:39.27 30th November   2020                               

  Number of CPUs =     1


  Total number of configurations input =      1

********************************************************************************
*  Input for Configuration =   1                                               *
********************************************************************************

  Formula = ClONa3                                                      

  Number of irreducible atoms/shells =       5


  Total number atoms/shells =       7

  Dimensionality = 3               :  Bulk   


  Symmetry :

  Crystal family                   :  Cubic       
  Crystal class  (Groth - 1921)    :  Cubic Hexakisoctahedral              

  Space group (centrosymmetric)    :  P M 3 M         

  Patterson group                  :  P m -3 m 

  Cartesian lattice vectors (Angstroms) :

        4.504000    0.000000    0.000000
        0.000000    4.504000    0.000000
        0.000000    0.000000    4.504000

  Cell parameters (Angstroms/Degrees):

  a =       4.5040    alpha =  90.0000
  b =       4.5040    beta  =  90.0000
  c =       4.5040    gamma =  90.0000

  Initial cell volume =          91.368216 Angs**3

  Temperature of configuration =   0.00     K 

  Pressure of configuration =         0.000 GPa 

  Fractional coordinates of asymmetric unit :

--------------------------------------------------------------------------------
   No.  Atomic       x           y          z         Charge      Occupancy
        Label      (Frac)      (Frac)     (Frac)        (e)         (Frac)  
--------------------------------------------------------------------------------
      1 Cl    c    0.000000    0.000000    0.000000     1.48500    1.000000    
      2 O     c    0.500000    0.500000    0.500000     0.18300    1.000000    
      3 Na    c    0.500000    0.500000    0.000000     1.00000    1.000000    
      4 Cl    s    0.000000    0.000000    0.000000    -2.48500    1.000000    
      5 O     s    0.500000    0.500000    0.500000    -2.18300    1.000000    
--------------------------------------------------------------------------------


  Constraints : 

--------------------------------------------------------------------------------
  Constraint no.      Unconstrained     Constrained    Coefficient    Offset
                         Variable         Variable
--------------------------------------------------------------------------------
           1              Strain 1        Strain 2       1.00000      0.0000
           2              Strain 1        Strain 3       1.00000      0.0000
--------------------------------------------------------------------------------


********************************************************************************
*  General input information                                                   *
********************************************************************************

  Species output for all configurations : 

--------------------------------------------------------------------------------
  Species    Type    Atomic    Atomic    Charge       Radii (Angs)     Library
                     Number     Mass       (e)     Cova   Ionic  VDW   Symbol
--------------------------------------------------------------------------------
    Na       Core       11      22.99   1.000000   0.970  0.000  2.300          
    O        Core        8      16.00   0.183000   0.730  0.000  1.360          
    O        Shell       8       0.00  -2.183000   0.730  0.000  1.360          
    Cl       Core       17      35.45   1.485000   0.990  0.000  1.650          
    Cl       Shell      17       0.00  -2.485000   0.990  0.000  1.650          
    Mg       Core       12      24.31   0.415000   1.100  0.000  0.000          
    Mg       Shell      12       0.00   1.585000   1.100  0.000  0.000          
    Ca       Core       20      40.08  -1.135000   0.990  0.000  0.000          
    Ca       Shell      20       0.00   3.135000   0.990  0.000  0.000          
    Sr       Core       38      87.62  -1.251000   1.120  0.000  0.000          
    Sr       Shell      38       0.00   3.251000   1.120  0.000  0.000          
    Ba       Core       56     137.33  -7.203000   1.340  0.000  0.000          
    Ba       Shell      56       0.00   9.203000   1.340  0.000  0.000          
--------------------------------------------------------------------------------


  Lattice summation method               =    Ewald          (3-D)
                                         =    Parry          (2-D)
                                         =    Saunders et al (1-D)
  Accuracy factor for lattice sums       =   12.000


  Analytic derivatives to be used

  Time limit = Infinity

  Maximum range for interatomic potentials =    100000.000000 Angstroms

  General interatomic potentials :

--------------------------------------------------------------------------------
Atom  Types   Potential      Parameter       Value         Units   Cutoffs(Ang)
  1     2                                                            Min /  Max 
--------------------------------------------------------------------------------
O    c O    s Spring (c-s)  Spring k 2       593.71600    eV*Ang^-2 0.000  0.800
                            Spring k 4       0.0000000    eV*Ang^-4 
--------------------------------------------------------------------------------
Cl   c Cl   s Spring (c-s)  Spring k 2       29.380000    eV*Ang^-2 0.000  0.800
                            Spring k 4       0.0000000    eV*Ang^-4 
--------------------------------------------------------------------------------
Mg   c Mg   s Spring (c-s)  Spring k 2       361.60000    eV*Ang^-2 0.000  0.800
                            Spring k 4       0.0000000    eV*Ang^-4 
--------------------------------------------------------------------------------
Ca   c Ca   s Spring (c-s)  Spring k 2       110.20000    eV*Ang^-2 0.000  0.800
                            Spring k 4       0.0000000    eV*Ang^-4 
--------------------------------------------------------------------------------
Sr   c Sr   s Spring (c-s)  Spring k 2       71.700000    eV*Ang^-2 0.000  0.800
                            Spring k 4       0.0000000    eV*Ang^-4 
--------------------------------------------------------------------------------
Ba   c Ba   s Spring (c-s)  Spring k 2       495.20000    eV*Ang^-2 0.000  0.800
                            Spring k 4       0.0000000    eV*Ang^-4 
--------------------------------------------------------------------------------
Na   c Na   c Buckingham    Buckingham A     1788.1900    eV        0.000 12.000
                            Buckingham rho  0.15900000    Ang       
                            Buckingham C     0.0000000    eV*Ang^6  
--------------------------------------------------------------------------------
Na   c O    s Buckingham    Buckingham A     1226.8400    eV        0.000 12.000
                            Buckingham rho  0.30700000    Ang       
                            Buckingham C     0.0000000    eV*Ang^6  
--------------------------------------------------------------------------------
Na   c Cl   s Buckingham    Buckingham A     2314.7000    eV        0.000 12.000
                            Buckingham rho  0.29000000    Ang       
                            Buckingham C     0.0000000    eV*Ang^6  
--------------------------------------------------------------------------------
O    s O    s Buckingham    Buckingham A     22764.300    eV        0.000 12.000
                            Buckingham rho  0.14900000    Ang       
                            Buckingham C     13.190000    eV*Ang^6  
--------------------------------------------------------------------------------
O    s Cl   s Buckingham    Buckingham A     8286.9100    eV        0.000 12.000
                            Buckingham rho  0.25900000    Ang       
                            Buckingham C     62.200000    eV*Ang^6  
--------------------------------------------------------------------------------
Cl   s Cl   s Buckingham    Buckingham A     1227.2000    eV        0.000 12.000
                            Buckingham rho  0.32100000    Ang       
                            Buckingham C     14.530000    eV*Ang^6  
--------------------------------------------------------------------------------
O    s Mg   s Buckingham    Buckingham A     1428.5000    eV        0.000 12.000
                            Buckingham rho  0.29450000    Ang       
                            Buckingham C     0.0000000    eV*Ang^6  
--------------------------------------------------------------------------------
Mg   s Cl   s Buckingham    Buckingham A     4914.5400    eV        0.000 12.000
                            Buckingham rho  0.25700000    Ang       
                            Buckingham C     0.0000000    eV*Ang^6  
--------------------------------------------------------------------------------
O    s Ca   s Buckingham    Buckingham A     1090.4000    eV        0.000 12.000
                            Buckingham rho  0.34370000    Ang       
                            Buckingham C     0.0000000    eV*Ang^6  
--------------------------------------------------------------------------------
Cl   s Ca   s Buckingham    Buckingham A     2302.0000    eV        0.000 12.000
                            Buckingham rho  0.34020000    Ang       
                            Buckingham C     0.0000000    eV*Ang^6  
--------------------------------------------------------------------------------
O    s Sr   s Buckingham    Buckingham A     959.10000    eV        0.000 12.000
                            Buckingham rho  0.37210000    Ang       
                            Buckingham C     0.0000000    eV*Ang^6  
--------------------------------------------------------------------------------
Cl   s Sr   s Buckingham    Buckingham A     2191.0900    eV        0.000 12.000
                            Buckingham rho  0.34570000    Ang       
                            Buckingham C     0.0000000    eV*Ang^6  
--------------------------------------------------------------------------------
O    s Ba   s Buckingham    Buckingham A     905.70000    eV        0.000 12.000
                            Buckingham rho  0.39760000    Ang       
                            Buckingham C     0.0000000    eV*Ang^6  
--------------------------------------------------------------------------------
Cl   s Ba   s Buckingham    Buckingham A     2704.5500    eV        0.000 12.000
                            Buckingham rho  0.35280000    Ang       
                            Buckingham C     0.0000000    eV*Ang^6  
--------------------------------------------------------------------------------

********************************************************************************
*  Output for configuration   1                                                *
********************************************************************************


  Components of energy : 

--------------------------------------------------------------------------------
  Interatomic potentials     =           5.13022605 eV    
  Monopole - monopole (real) =         -10.03624526 eV    
  Monopole - monopole (recip)=         -29.53581274 eV    
  Monopole - monopole (total)=         -39.57205800 eV    
--------------------------------------------------------------------------------
  Total lattice energy       =         -34.44183194 eV    
--------------------------------------------------------------------------------
  Total lattice energy       =           -3323.1103 kJ/(mole unit cells)
--------------------------------------------------------------------------------


  Number of variables =        1

  Maximum number of calculations  =          1000
  Maximum Hessian update interval =            10
  Maximum step size               =   1.000000000
  Maximum parameter tolerance     =   0.000010000
  Maximum function  tolerance     =   0.000010000
  Maximum gradient  tolerance     =   0.001000000
  Maximum gradient  component     =   0.010000000

  Symmetry constrained optimisation

  Symmetry used for second derivatives

  Cell parameters to be optimised using strains

  Newton-Raphson optimiser to be used

  BFGS hessian update to be used

  Lower half triangular hessian to be used

  Start of bulk optimisation :

  Cycle:      0 Energy:       -34.441832  Gnorm:      0.196570  CPU:    0.016
  ** Hessian calculated **
  Cycle:      1 Energy:       -34.441914  Gnorm:      0.000103  CPU:    0.020


  **** Optimisation achieved ****


  Final energy =     -34.44191447 eV
  Final Gnorm  =       0.00000000

  Components of energy : 

--------------------------------------------------------------------------------
  Interatomic potentials     =           5.09689708 eV    
  Monopole - monopole (real) =         -10.02781331 eV    
  Monopole - monopole (recip)=         -29.51099824 eV    
  Monopole - monopole (total)=         -39.53881155 eV    
--------------------------------------------------------------------------------
  Total lattice energy       =         -34.44191447 eV    
--------------------------------------------------------------------------------
  Total lattice energy       =           -3323.1183 kJ/(mole unit cells)
--------------------------------------------------------------------------------

  Final asymmetric unit coordinates :

--------------------------------------------------------------------------------
   No.  Atomic        x           y           z         Radius
        Label       (Frac)      (Frac)      (Frac)       (Angs) 
--------------------------------------------------------------------------------
     1  Cl    c     0.000000    0.000000    0.000000    0.000000
     2  O     c     0.500000    0.500000    0.500000    0.000000
     3  Na    c     0.500000    0.500000    0.000000    0.000000
     4  Cl    s     0.000000    0.000000    0.000000    0.000000
     5  O     s     0.500000    0.500000    0.500000    0.000000
--------------------------------------------------------------------------------

  Final Cartesian lattice vectors (Angstroms) :

        4.507787    0.000000    0.000000
        0.000000    4.507787    0.000000
        0.000000    0.000000    4.507787


  Final cell parameters and derivatives :

--------------------------------------------------------------------------------
       a            4.507787 Angstrom     dE/de1(xx)     0.000000 eV/strain
       b            4.507787 Angstrom     dE/de2(yy)     0.000000 eV/strain
       c            4.507787 Angstrom     dE/de3(zz)     0.000000 eV/strain
       alpha       90.000000 Degrees      dE/de4(yz)     0.000000 eV/strain
       beta        90.000000 Degrees      dE/de5(xz)     0.000000 eV/strain
       gamma       90.000000 Degrees      dE/de6(xy)     0.000000 eV/strain
--------------------------------------------------------------------------------

  Primitive cell volume =            91.598892 Angs**3

  Density of cell =      2.183054 g/cm**3

  Non-primitive cell volume =            91.598892 Angs**3


  Final internal derivatives :

--------------------------------------------------------------------------------
   No.  Atomic          a             b             c           Radius
        Label          (eV)          (eV)          (eV)        (eV/Angs)
--------------------------------------------------------------------------------
      1 Cl    c       0.000000      0.000000      0.000000      0.000000
      2 O     c       0.000000      0.000000      0.000000      0.000000
      3 Na    c       0.000000      0.000000      0.000000      0.000000
      4 Cl    s       0.000000      0.000000      0.000000      0.000000
      5 O     s       0.000000      0.000000      0.000000      0.000000
--------------------------------------------------------------------------------
  Maximum abs         0.000000      0.000000      0.000000      0.000000
--------------------------------------------------------------------------------

  Comparison of initial and final structures : 

--------------------------------------------------------------------------------
  Parameter   Initial value   Final value   Difference    Units      Percent
--------------------------------------------------------------------------------
    Volume        91.368216     91.598892     0.230676    Angs**3      0.25
    a              4.504000      4.507787     0.003787    Angstroms    0.08
    b              4.504000      4.507787     0.003787    Angstroms    0.08
    c              4.504000      4.507787     0.003787    Angstroms    0.08
    alpha         90.000000     90.000000     0.000000    Degrees      0.00
    beta          90.000000     90.000000     0.000000    Degrees      0.00
    gamma         90.000000     90.000000     0.000000    Degrees      0.00
      1 x          0.000000      0.000000     0.000000    Fractional   0.00
      1 y          0.000000      0.000000     0.000000    Fractional   0.00
      1 z          0.000000      0.000000     0.000000    Fractional   0.00
      2 x          0.500000      0.500000     0.000000    Fractional   0.00
      2 y          0.500000      0.500000     0.000000    Fractional   0.00
      2 z          0.500000      0.500000     0.000000    Fractional   0.00
      3 x          0.500000      0.500000     0.000000    Fractional   0.00
      3 y          0.500000      0.500000     0.000000    Fractional   0.00
      3 z          0.000000      0.000000     0.000000    Fractional   0.00
      4 x          0.000000      0.000000     0.000000    Fractional   0.00
      4 y          0.000000      0.000000     0.000000    Fractional   0.00
      4 z          0.000000      0.000000     0.000000    Fractional   0.00
      5 x          0.500000      0.500000     0.000000    Fractional   0.00
      5 y          0.500000      0.500000     0.000000    Fractional   0.00
      5 z          0.500000      0.500000     0.000000    Fractional   0.00
--------------------------------------------------------------------------------


  Born effective charge tensors : 

-------------------------------------------------------------------------------
  Atom             x           y             z
-------------------------------------------------------------------------------
    1 Cl    x      -1.0181     -0.0000      0.0000
            y      -0.0000     -1.0181      0.0000
            z       0.0000      0.0000     -1.0181
-------------------------------------------------------------------------------
    2 O     x      -2.2647      0.0000     -0.0000
            y       0.0000     -2.2647     -0.0000
            z      -0.0000     -0.0000     -2.2647
-------------------------------------------------------------------------------
    3 Na    x       1.2258     -0.0000      0.0000
            y      -0.0000      1.2258     -0.0000
            z       0.0000     -0.0000      0.8313
-------------------------------------------------------------------------------




  Elastic Constant Matrix: (Units=GPa)

-------------------------------------------------------------------------------
  Indices      1         2         3         4         5         6    
-------------------------------------------------------------------------------
       1     95.8177   20.0737   20.0737   -0.0000   -0.0000    0.0000
       2     20.0737   95.8177   20.0737   -0.0000   -0.0000    0.0000
       3     20.0737   20.0737   95.8177   -0.0000   -0.0000    0.0000
       4     -0.0000   -0.0000   -0.0000   20.0737   -0.0000    0.0000
       5     -0.0000   -0.0000   -0.0000   -0.0000   20.0737    0.0000
       6      0.0000    0.0000    0.0000    0.0000    0.0000   20.0737
-------------------------------------------------------------------------------


  Elastic Compliance Matrix: (Units=1/GPa)

-------------------------------------------------------------------------------
  Indices      1         2         3         4         5         6    
-------------------------------------------------------------------------------
       1    0.011253 -0.001949 -0.001949  0.000000  0.000000 -0.000000
       2   -0.001949  0.011253 -0.001949  0.000000  0.000000  0.000000
       3   -0.001949 -0.001949  0.011253  0.000000  0.000000 -0.000000
       4    0.000000  0.000000  0.000000  0.049816  0.000000 -0.000000
       5    0.000000  0.000000  0.000000  0.000000  0.049816 -0.000000
       6   -0.000000  0.000000 -0.000000 -0.000000 -0.000000  0.049816
-------------------------------------------------------------------------------

  Mechanical properties :

-------------------------------------------------------------------------------
  Convention :                    Reuss         Voigt         Hill
-------------------------------------------------------------------------------
  Bulk  Modulus (GPa)     =      45.32174      45.32174      45.32174
  Shear Modulus (GPa)     =      24.72085      27.19304      25.95695
-------------------------------------------------------------------------------
  Velocity S-wave (km/s)  =       3.36511       3.52937       3.44822
  Velocity P-wave (km/s)  =       5.98827       6.11304       6.05098
-------------------------------------------------------------------------------
  Compressibility (1/GPa) =    0.02206447
-------------------------------------------------------------------------------
  Stress axis :                     x             y             z
-------------------------------------------------------------------------------
  Youngs Moduli (GPa)     =      88.86373      88.86373      88.86373
-------------------------------------------------------------------------------
  Poissons Ratio (x)      =                     0.17321       0.17321
  Poissons Ratio (y)      =       0.17321                     0.17321
  Poissons Ratio (z)      =       0.17321       0.17321
-------------------------------------------------------------------------------


  Piezoelectric Strain Matrix: (Units=C/m**2)

-------------------------------------------------------------------------------
  Indices      1         2         3         4         5         6    
-------------------------------------------------------------------------------
       x    -0.00000  -0.00000  -0.00000   0.00000  -0.00000  -0.00000
       y    -0.00000  -0.00000   0.00000  -0.00000   0.00000   0.00000
       z    -0.00000  -0.00000  -0.00000  -0.00000   0.00000   0.00000
-------------------------------------------------------------------------------


  Piezoelectric Stress Matrix: (Units=10**-11 C/N)

-------------------------------------------------------------------------------
  Indices      1         2         3         4         5         6    
-------------------------------------------------------------------------------
       x    -0.00000   0.00000   0.00000   0.00000  -0.00000  -0.00000
       y    -0.00000  -0.00000   0.00000  -0.00000   0.00000   0.00000
       z     0.00000   0.00000  -0.00000  -0.00000   0.00000   0.00000
-------------------------------------------------------------------------------


  Static dielectric constant tensor : 

-------------------------------------------------------------------------------
              x         y         z
-------------------------------------------------------------------------------
       x    22.84729   0.00000   0.00000
       y     0.00000  22.84729  -0.00000
       z     0.00000  -0.00000  22.84729
--------------------------------------------------------------------------------

  High frequency dielectric constant tensor : 

-------------------------------------------------------------------------------
              x         y         z
-------------------------------------------------------------------------------
       x     1.47557   0.00000  -0.00000
       y     0.00000   1.47557  -0.00000
       z    -0.00000  -0.00000   1.47557
-------------------------------------------------------------------------------

  Static refractive indices : 

-------------------------------------------------------------------------------
    1 =    4.77988      2 =    4.77988      3 =    4.77988
-------------------------------------------------------------------------------

  High frequency refractive indices : 

-------------------------------------------------------------------------------
    1 =    1.21473      2 =    1.21473      3 =    1.21473
-------------------------------------------------------------------------------


  Time to end of optimisation =       0.0302 seconds

********************************************************************************
*  Defect calculation for configuration   1 :                                  *
********************************************************************************

  Total number of defects =      3

  Total charge on defect  =  -1.00

  Defect centre is at   0.5000   0.4600   0.0400  Frac

  Region 1 radius =  12.0000      Number of ions =    554

  Number of symmetry inequivalent region 1 ions  =    322

  Region 2 radius =  16.0000      Number of ions =    755

  Number of symmetry inequivalent region 2a ions =    410

  Region 2a mode = 4 : screened electrostatics due to region 1 
                       neglect correction to region 1 forces from 2a
                       region 2a displacements based on defects only

  Region 2a ions will only interact with defects in region 1

  Vacancies:

--------------------------------------------------------------------------------
    Specification type     Symbol/Number         x          y          z
--------------------------------------------------------------------------------
    Fractional                               0.500000   0.500000   0.000000
    Fractional                               0.500000   0.000000   0.500000
--------------------------------------------------------------------------------

  Interstitials:

--------------------------------------------------------------------------------
    Specification type     Symbol/Number         x          y          z
--------------------------------------------------------------------------------
    Atom/Fractional         Na               0.500000   0.460000   0.040000
--------------------------------------------------------------------------------


  Symmetry reduced region 1 (Relative to defect centre) :

--------------------------------------------------------------------------------
   No.   Atomic       x            y             z       Radius  Multiplicity   
         Label      (Angs)       (Angs)        (Angs)    (Angs)     
--------------------------------------------------------------------------------
     1  Na    c      0.0000       0.0000       0.0000 *  0.0000     1    Defect
     2  O     c      0.0000       0.1803 *     2.0736 *  0.0000     1          
     3  O     c      0.0000       0.1803 *    -2.4342 *  0.0000     1          
     4  Cl    c      2.2539 *    -2.0736 *    -0.1803 *  0.0000     2          
     5  Na    c      2.2539 *     0.1803 *     2.0736 *  0.0000     2          
     6  Na    c      0.0000       2.4342 *     2.0736 *  0.0000     1          
     7  Na    c      0.0000      -2.0736 *    -2.4342 *  0.0000     1          
     8  Cl    c      2.2539 *     2.4342 *    -0.1803 *  0.0000     2          
     9  Na    c      2.2539 *     0.1803 *    -2.4342 *  0.0000     2          
    10  Na    c      0.0000       2.4342 *    -2.4342 *  0.0000     1          
    11  Na    c      0.0000       0.1803 *     4.3275 *  0.0000     1          
    12  Na    c      0.0000      -4.3275 *    -0.1803 *  0.0000     1          
    13  Na    c     -4.5078 *     0.1803 *    -0.1803 *  0.0000     2          
    14  Na    c      0.0000       4.6881 *    -0.1803 *  0.0000     1          
    15  Na    c      0.0000       0.1803 *    -4.6881 *  0.0000     1          
    16  O     c      0.0000      -4.3275 *     2.0736 *  0.0000     1          
    17  O     c     -4.5078 *     0.1803 *     2.0736 *  0.0000     2          
    18  O     c      0.0000      -4.3275 *    -2.4342 *  0.0000     1          
    19  O     c      0.0000       4.6881 *     2.0736 *  0.0000     1          
    20  O     c     -4.5078 *     0.1803 *    -2.4342 *  0.0000     2          
    21  O     c      0.0000       4.6881 *    -2.4342 *  0.0000     1          
    22  Cl    c      2.2539 *    -2.0736 *     4.3275 *  0.0000     2          
    23  Na    c      2.2539 *    -4.3275 *     2.0736 *  0.0000     2          
    24  Na    c     -4.5078 *    -2.0736 *     2.0736 *  0.0000     2          
    25  Cl    c      2.2539 *     2.4342 *     4.3275 *  0.0000     2          
    26  Na    c      2.2539 *    -4.3275 *    -2.4342 *  0.0000     2          
    27  Na    c     -4.5078 *     2.4342 *     2.0736 *  0.0000     2          
    28  Na    c     -4.5078 *    -2.0736 *    -2.4342 *  0.0000     2          
    29  Na    c      2.2539 *     4.6881 *     2.0736 *  0.0000     2          
    30  Cl    c      2.2539 *    -2.0736 *    -4.6881 *  0.0000     2          
    31  Na    c     -4.5078 *     2.4342 *    -2.4342 *  0.0000     2          
    32  Na    c      2.2539 *     4.6881 *    -2.4342 *  0.0000     2          
    33  Cl    c      2.2539 *     2.4342 *    -4.6881 *  0.0000     2          
    34  Na    c      0.0000      -4.3275 *     4.3275 *  0.0000     1          
    35  Na    c     -4.5078 *     0.1803 *     4.3275 *  0.0000     2          
    36  Na    c     -4.5078 *    -4.3275 *    -0.1803 *  0.0000     2          
    37  Na    c      0.0000       4.6881 *     4.3275 *  0.0000     1          
    38  Na    c      0.0000      -4.3275 *    -4.6881 *  0.0000     1          
    39  Na    c     -4.5078 *     4.6881 *    -0.1803 *  0.0000     2          
    40  Na    c     -4.5078 *     0.1803 *    -4.6881 *  0.0000     2          
    41  O     c      0.0000       0.1803 *     6.5814 *  0.0000     1          
    42  O     c     -4.5078 *    -4.3275 *     2.0736 *  0.0000     2          
    43  Na    c      0.0000       4.6881 *    -4.6881 *  0.0000     1          
    44  O     c     -4.5078 *    -4.3275 *    -2.4342 *  0.0000     2          
    45  O     c     -4.5078 *     4.6881 *     2.0736 *  0.0000     2          
    46  Na    c      0.0000      -2.0736 *     6.5814 *  0.0000     1          
    47  Na    c      0.0000      -6.5814 *     2.0736 *  0.0000     1          
    48  O     c     -4.5078 *     4.6881 *    -2.4342 *  0.0000     2          
    49  O     c      0.0000       0.1803 *    -6.9420 *  0.0000     1          
    50  Cl    c      2.2539 *    -6.5814 *    -0.1803 *  0.0000     2          
    51  Na    c      2.2539 *     0.1803 *     6.5814 *  0.0000     2          
    52  Na    c      0.0000       2.4342 *     6.5814 *  0.0000     1          
    53  Na    c      0.0000      -6.5814 *    -2.4342 *  0.0000     1          
    54  Cl    c      6.7617 *    -2.0736 *    -0.1803 *  0.0000     2          
    55  Na    c      6.7617 *     0.1803 *     2.0736 *  0.0000     2          
    56  Cl    c      6.7617 *     2.4342 *    -0.1803 *  0.0000     2          
    57  Na    c      6.7617 *     0.1803 *    -2.4342 *  0.0000     2          
    58  Na    c      0.0000       6.9420 *     2.0736 *  0.0000     1          
    59  Na    c      0.0000      -2.0736 *    -6.9420 *  0.0000     1          
    60  Cl    c      2.2539 *     6.9420 *    -0.1803 *  0.0000     2          
    61  Na    c      2.2539 *     0.1803 *    -6.9420 *  0.0000     2          
    62  Na    c      0.0000       2.4342 *    -6.9420 *  0.0000     1          
    63  Na    c      0.0000       6.9420 *    -2.4342 *  0.0000     1          
    64  Na    c     -4.5078 *    -4.3275 *     4.3275 *  0.0000     2          
    65  Na    c     -4.5078 *     4.6881 *     4.3275 *  0.0000     2          
    66  Na    c     -4.5078 *    -4.3275 *    -4.6881 *  0.0000     2          
    67  O     c      0.0000      -4.3275 *     6.5814 *  0.0000     1          
    68  O     c     -4.5078 *     0.1803 *     6.5814 *  0.0000     2          
    69  Na    c     -4.5078 *     4.6881 *    -4.6881 *  0.0000     2          
    70  O     c      0.0000       4.6881 *     6.5814 *  0.0000     1          
    71  O     c      0.0000      -4.3275 *    -6.9420 *  0.0000     1          
    72  Cl    c      2.2539 *    -6.5814 *     4.3275 *  0.0000     2          
    73  Na    c      2.2539 *    -4.3275 *     6.5814 *  0.0000     2          
    74  Na    c     -4.5078 *    -6.5814 *     2.0736 *  0.0000     2          
    75  Na    c      4.5078 *    -2.0736 *     6.5814 *  0.0000     2          
    76  O     c      4.5078 *     0.1803 *    -6.9420 *  0.0000     2          
    77  Cl    c      6.7617 *    -2.0736 *     4.3275 *  0.0000     2          
    78  Na    c      6.7617 *    -4.3275 *     2.0736 *  0.0000     2          
    79  Na    c     -4.5078 *    -6.5814 *    -2.4342 *  0.0000     2          
    80  Na    c      4.5078 *     2.4342 *     6.5814 *  0.0000     2          
    81  O     c      0.0000       4.6881 *    -6.9420 *  0.0000     1          
    82  Cl    c      2.2539 *    -6.5814 *    -4.6881 *  0.0000     2          
    83  Cl    c      6.7617 *     2.4342 *     4.3275 *  0.0000     2          
    84  Na    c      2.2539 *     4.6881 *     6.5814 *  0.0000     2          
    85  Na    c      6.7617 *    -4.3275 *    -2.4342 *  0.0000     2          
    86  Cl    c      2.2539 *     6.9420 *     4.3275 *  0.0000     2          
    87  Na    c      2.2539 *    -4.3275 *    -6.9420 *  0.0000     2          
    88  Na    c      6.7617 *     4.6881 *     2.0736 *  0.0000     2          
    89  Cl    c      6.7617 *    -2.0736 *    -4.6881 *  0.0000     2          
    90  Na    c      4.5078 *     6.9420 *     2.0736 *  0.0000     2          
    91  Na    c     -4.5078 *    -2.0736 *    -6.9420 *  0.0000     2          
    92  Cl    c      6.7617 *     2.4342 *    -4.6881 *  0.0000     2          
    93  Na    c      6.7617 *     4.6881 *    -2.4342 *  0.0000     2          
    94  Na    c      4.5078 *     6.9420 *    -2.4342 *  0.0000     2          
    95  Na    c     -4.5078 *     2.4342 *    -6.9420 *  0.0000     2          
    96  Cl    c      2.2539 *     6.9420 *    -4.6881 *  0.0000     2          
    97  Na    c      2.2539 *     4.6881 *    -6.9420 *  0.0000     2          
    98  Na    c      0.0000       0.1803 *     8.8353 *  0.0000     1          
    99  Na    c      0.0000      -8.8353 *    -0.1803 *  0.0000     1          
   100  Na    c      9.0156 *     0.1803 *    -0.1803 *  0.0000     2          
   101  O     c     -4.5078 *    -4.3275 *     6.5814 *  0.0000     2          
   102  O     c      0.0000      -8.8353 *     2.0736 *  0.0000     1          
   103  O     c      0.0000      -8.8353 *    -2.4342 *  0.0000     1          
   104  Na    c      0.0000       9.1959 *    -0.1803 *  0.0000     1          
   105  Na    c      0.0000       0.1803 *    -9.1959 *  0.0000     1          
   106  O     c      9.0156 *     0.1803 *     2.0736 *  0.0000     2          
   107  O     c     -4.5078 *     4.6881 *     6.5814 *  0.0000     2          
   108  Na    c      0.0000      -6.5814 *     6.5814 *  0.0000     1          
   109  O     c      9.0156 *     0.1803 *    -2.4342 *  0.0000     2          
   110  O     c     -4.5078 *    -4.3275 *    -6.9420 *  0.0000     2          
   111  Cl    c      2.2539 *    -2.0736 *     8.8353 *  0.0000     2          
   112  Na    c      2.2539 *    -8.8353 *     2.0736 *  0.0000     2          
   113  O     c      0.0000       9.1959 *     2.0736 *  0.0000     1          
   114  Cl    c      2.2539 *     2.4342 *     8.8353 *  0.0000     2          
   115  Cl    c      6.7617 *    -6.5814 *    -0.1803 *  0.0000     2          
   116  Na    c      2.2539 *    -8.8353 *    -2.4342 *  0.0000     2          
   117  Na    c      6.7617 *     0.1803 *     6.5814 *  0.0000     2          
   118  Na    c      9.0156 *    -2.0736 *     2.0736 *  0.0000     2          
   119  O     c      0.0000       9.1959 *    -2.4342 *  0.0000     1          
   120  O     c      4.5078 *     4.6881 *    -6.9420 *  0.0000     2          
   121  Na    c      9.0156 *     2.4342 *     2.0736 *  0.0000     2          
   122  Na    c      9.0156 *    -2.0736 *    -2.4342 *  0.0000     2          
   123  Na    c      0.0000       6.9420 *     6.5814 *  0.0000     1          
   124  Na    c      0.0000      -6.5814 *    -6.9420 *  0.0000     1          
   125  Na    c      9.0156 *     2.4342 *    -2.4342 *  0.0000     2          
   126  Na    c      2.2539 *     9.1959 *     2.0736 *  0.0000     2          
   127  Cl    c      2.2539 *    -2.0736 *    -9.1959 *  0.0000     2          
   128  Cl    c      6.7617 *     6.9420 *    -0.1803 *  0.0000     2          
   129  Na    c      6.7617 *     0.1803 *    -6.9420 *  0.0000     2          
   130  Na    c      2.2539 *     9.1959 *    -2.4342 *  0.0000     2          
   131  Cl    c      2.2539 *     2.4342 *    -9.1959 *  0.0000     2          
   132  Na    c      0.0000       6.9420 *    -6.9420 *  0.0000     1          
   133  Na    c      0.0000      -4.3275 *     8.8353 *  0.0000     1          
   134  Na    c      0.0000      -8.8353 *     4.3275 *  0.0000     1          
   135  Na    c      4.5078 *     0.1803 *     8.8353 *  0.0000     2          
   136  Na    c     -4.5078 *    -8.8353 *    -0.1803 *  0.0000     2          
   137  Na    c      0.0000       4.6881 *     8.8353 *  0.0000     1          
   138  Na    c      9.0156 *     0.1803 *     4.3275 *  0.0000     2          
   139  Na    c      9.0156 *    -4.3275 *    -0.1803 *  0.0000     2          
   140  Na    c      0.0000      -8.8353 *    -4.6881 *  0.0000     1          
   141  O     c     -4.5078 *    -8.8353 *     2.0736 *  0.0000     2          
   142  Na    c      0.0000       9.1959 *     4.3275 *  0.0000     1          
   143  Na    c      9.0156 *     4.6881 *    -0.1803 *  0.0000     2          
   144  Na    c      0.0000      -4.3275 *    -9.1959 *  0.0000     1          
   145  Na    c      9.0156 *     0.1803 *    -4.6881 *  0.0000     2          
   146  O     c      9.0156 *    -4.3275 *     2.0736 *  0.0000     2          
   147  O     c     -4.5078 *    -8.8353 *    -2.4342 *  0.0000     2          
   148  Na    c     -4.5078 *     9.1959 *    -0.1803 *  0.0000     2          
   149  Na    c      4.5078 *     0.1803 *    -9.1959 *  0.0000     2          
   150  O     c      9.0156 *    -4.3275 *    -2.4342 *  0.0000     2          
   151  Na    c      0.0000       9.1959 *    -4.6881 *  0.0000     1          
   152  Na    c      0.0000       4.6881 *    -9.1959 *  0.0000     1          
   153  Na    c     -4.5078 *    -6.5814 *     6.5814 *  0.0000     2          
   154  O     c      9.0156 *     4.6881 *     2.0736 *  0.0000     2          
   155  Cl    c      6.7617 *    -6.5814 *     4.3275 *  0.0000     2          
   156  Na    c      6.7617 *    -4.3275 *     6.5814 *  0.0000     2          
   157  O     c     -4.5078 *     9.1959 *     2.0736 *  0.0000     2          
   158  O     c      9.0156 *     4.6881 *    -2.4342 *  0.0000     2          
   159  O     c     -4.5078 *     9.1959 *    -2.4342 *  0.0000     2          
   160  Na    c      6.7617 *     4.6881 *     6.5814 *  0.0000     2          
   161  Cl    c      6.7617 *    -6.5814 *    -4.6881 *  0.0000     2          
   162  Na    c      4.5078 *     6.9420 *     6.5814 *  0.0000     2          
   163  Na    c      4.5078 *    -6.5814 *    -6.9420 *  0.0000     2          
   164  Cl    c      6.7617 *     6.9420 *     4.3275 *  0.0000     2          
   165  Na    c      6.7617 *    -4.3275 *    -6.9420 *  0.0000     2          
   166  Cl    c      6.7617 *     6.9420 *    -4.6881 *  0.0000     2          
   167  Na    c      6.7617 *     4.6881 *    -6.9420 *  0.0000     2          
   168  Na    c      4.5078 *     6.9420 *    -6.9420 *  0.0000     2          
   169  Na    c     -4.5078 *    -4.3275 *     8.8353 *  0.0000     2          
   170  Na    c      4.5078 *    -8.8353 *     4.3275 *  0.0000     2          
   171  Na    c      9.0156 *    -4.3275 *     4.3275 *  0.0000     2          
   172  Na    c     -4.5078 *     4.6881 *     8.8353 *  0.0000     2          
   173  Na    c      4.5078 *    -8.8353 *    -4.6881 *  0.0000     2          
   174  O     c      0.0000      -8.8353 *     6.5814 *  0.0000     1          
   175  Na    c      9.0156 *     4.6881 *     4.3275 *  0.0000     2          
   176  Na    c      9.0156 *    -4.3275 *    -4.6881 *  0.0000     2          
   177  O     c      0.0000       0.1803 *    11.0892 *  0.0000     1          
   178  Na    c      4.5078 *     9.1959 *     4.3275 *  0.0000     2          
   179  Na    c     -4.5078 *    -4.3275 *    -9.1959 *  0.0000     2          
   180  O     c      9.0156 *     0.1803 *     6.5814 *  0.0000     2          
   181  Na    c      9.0156 *     4.6881 *    -4.6881 *  0.0000     2          
   182  O     c      0.0000      -8.8353 *    -6.9420 *  0.0000     1          
   183  Cl    c      2.2539 *    -6.5814 *     8.8353 *  0.0000     2          
   184  Na    c      2.2539 *    -8.8353 *     6.5814 *  0.0000     2          
   185  Na    c      4.5078 *     9.1959 *    -4.6881 *  0.0000     2          
   186  Na    c     -4.5078 *     4.6881 *    -9.1959 *  0.0000     2          
   187  Na    c      0.0000      -2.0736 *    11.0892 *  0.0000     1          
   188  Na    c      0.0000     -11.0892 *     2.0736 *  0.0000     1          
   189  O     c      0.0000       9.1959 *     6.5814 *  0.0000     1          
   190  Cl    c      2.2539 *   -11.0892 *    -0.1803 *  0.0000     2          
   191  Na    c      2.2539 *     0.1803 *    11.0892 *  0.0000     2          
   192  Cl    c      6.7617 *    -2.0736 *     8.8353 *  0.0000     2          
   193  Na    c      6.7617 *    -8.8353 *     2.0736 *  0.0000     2          
   194  Na    c      0.0000       2.4342 *    11.0892 *  0.0000     1          
   195  Na    c      0.0000     -11.0892 *    -2.4342 *  0.0000     1          
   196  Na    c      9.0156 *    -2.0736 *     6.5814 *  0.0000     2          
   197  Na    c      9.0156 *    -6.5814 *     2.0736 *  0.0000     2          
   198  O     c      9.0156 *     0.1803 *    -6.9420 *  0.0000     2          
   199  Cl    c      6.7617 *     2.4342 *     8.8353 *  0.0000     2          
   200  Na    c      6.7617 *    -8.8353 *    -2.4342 *  0.0000     2          
   201  Na    c      9.0156 *     2.4342 *     6.5814 *  0.0000     2          
   202  Na    c      9.0156 *    -6.5814 *    -2.4342 *  0.0000     2          
   203  O     c      0.0000       0.1803 *   -11.4498 *  0.0000     1          
   204  Cl    c      2.2539 *     6.9420 *     8.8353 *  0.0000     2          
   205  Cl    c     11.2695 *    -2.0736 *    -0.1803 *  0.0000     2          
   206  Na    c     11.2695 *     0.1803 *     2.0736 *  0.0000     2          
   207  Na    c      2.2539 *    -8.8353 *    -6.9420 *  0.0000     2          
   208  O     c      0.0000       9.1959 *    -6.9420 *  0.0000     1          
   209  Cl    c      2.2539 *    -6.5814 *    -9.1959 *  0.0000     2          
   210  Cl    c     11.2695 *     2.4342 *    -0.1803 *  0.0000     2          
   211  Na    c      2.2539 *     9.1959 *     6.5814 *  0.0000     2          
   212  Na    c     11.2695 *     0.1803 *    -2.4342 *  0.0000     2          
   213  Na    c      9.0156 *     6.9420 *     2.0736 *  0.0000     2          
   214  Na    c      9.0156 *    -2.0736 *    -6.9420 *  0.0000     2          
   215  Na    c      6.7617 *     9.1959 *     2.0736 *  0.0000     2          
   216  Cl    c      6.7617 *    -2.0736 *    -9.1959 *  0.0000     2          
   217  Na    c      0.0000      11.4498 *     2.0736 *  0.0000     1          
   218  Na    c      0.0000      -2.0736 *   -11.4498 *  0.0000     1          
   219  Na    c      9.0156 *     2.4342 *    -6.9420 *  0.0000     2          
   220  Na    c      9.0156 *     6.9420 *    -2.4342 *  0.0000     2          
   221  Cl    c      2.2539 *    11.4498 *    -0.1803 *  0.0000     2          
   222  Cl    c      6.7617 *     2.4342 *    -9.1959 *  0.0000     2          
   223  Na    c      2.2539 *     0.1803 *   -11.4498 *  0.0000     2          
   224  Na    c      6.7617 *     9.1959 *    -2.4342 *  0.0000     2          
   225  Na    c      0.0000       2.4342 *   -11.4498 *  0.0000     1          
   226  Na    c      0.0000      11.4498 *    -2.4342 *  0.0000     1          
   227  Na    c      2.2539 *     9.1959 *    -6.9420 *  0.0000     2          
   228  Cl    c      2.2539 *     6.9420 *    -9.1959 *  0.0000     2          
   229  O     c      0.0000      -4.3275 *    11.0892 *  0.0000     1          
   230  O     c     -4.5078 *    -8.8353 *     6.5814 *  0.0000     2          
   231  O     c      4.5078 *     0.1803 *    11.0892 *  0.0000     2          
   232  O     c      9.0156 *    -4.3275 *     6.5814 *  0.0000     2          
   233  O     s      0.0000       0.1803 *     2.0736 *  0.0000     1          
   234  O     s      0.0000       0.1803 *    -2.4342 *  0.0000     1          
   235  Cl    s      2.2539 *    -2.0736 *    -0.1803 *  0.0000     2          
   236  Cl    s      2.2539 *     2.4342 *    -0.1803 *  0.0000     2          
   237  O     s      0.0000      -4.3275 *     2.0736 *  0.0000     1          
   238  O     s     -4.5078 *     0.1803 *     2.0736 *  0.0000     2          
   239  O     s      0.0000      -4.3275 *    -2.4342 *  0.0000     1          
   240  O     s      0.0000       4.6881 *     2.0736 *  0.0000     1          
   241  O     s     -4.5078 *     0.1803 *    -2.4342 *  0.0000     2          
   242  O     s      0.0000       4.6881 *    -2.4342 *  0.0000     1          
   243  Cl    s      2.2539 *    -2.0736 *     4.3275 *  0.0000     2          
   244  Cl    s      2.2539 *     2.4342 *     4.3275 *  0.0000     2          
   245  Cl    s      2.2539 *    -2.0736 *    -4.6881 *  0.0000     2          
   246  Cl    s      2.2539 *     2.4342 *    -4.6881 *  0.0000     2          
   247  O     s      0.0000       0.1803 *     6.5814 *  0.0000     1          
   248  O     s     -4.5078 *    -4.3275 *     2.0736 *  0.0000     2          
   249  O     s     -4.5078 *    -4.3275 *    -2.4342 *  0.0000     2          
   250  O     s     -4.5078 *     4.6881 *     2.0736 *  0.0000     2          
   251  O     s     -4.5078 *     4.6881 *    -2.4342 *  0.0000     2          
   252  O     s      0.0000       0.1803 *    -6.9420 *  0.0000     1          
   253  Cl    s      2.2539 *    -6.5814 *    -0.1803 *  0.0000     2          
   254  Cl    s      6.7617 *    -2.0736 *    -0.1803 *  0.0000     2          
   255  Cl    s      6.7617 *     2.4342 *    -0.1803 *  0.0000     2          
   256  Cl    s      2.2539 *     6.9420 *    -0.1803 *  0.0000     2          
   257  O     s      0.0000      -4.3275 *     6.5814 *  0.0000     1          
   258  O     s     -4.5078 *     0.1803 *     6.5814 *  0.0000     2          
   259  O     s      0.0000       4.6881 *     6.5814 *  0.0000     1          
   260  O     s      0.0000      -4.3275 *    -6.9420 *  0.0000     1          
   261  Cl    s      2.2539 *    -6.5814 *     4.3275 *  0.0000     2          
   262  O     s      4.5078 *     0.1803 *    -6.9420 *  0.0000     2          
   263  Cl    s      6.7617 *    -2.0736 *     4.3275 *  0.0000     2          
   264  O     s      0.0000       4.6881 *    -6.9420 *  0.0000     1          
   265  Cl    s      2.2539 *    -6.5814 *    -4.6881 *  0.0000     2          
   266  Cl    s      6.7617 *     2.4342 *     4.3275 *  0.0000     2          
   267  Cl    s      2.2539 *     6.9420 *     4.3275 *  0.0000     2          
   268  Cl    s      6.7617 *    -2.0736 *    -4.6881 *  0.0000     2          
   269  Cl    s      6.7617 *     2.4342 *    -4.6881 *  0.0000     2          
   270  Cl    s      2.2539 *     6.9420 *    -4.6881 *  0.0000     2          
   271  O     s     -4.5078 *    -4.3275 *     6.5814 *  0.0000     2          
   272  O     s      0.0000      -8.8353 *     2.0736 *  0.0000     1          
   273  O     s      0.0000      -8.8353 *    -2.4342 *  0.0000     1          
   274  O     s      9.0156 *     0.1803 *     2.0736 *  0.0000     2          
   275  O     s     -4.5078 *     4.6881 *     6.5814 *  0.0000     2          
   276  O     s      9.0156 *     0.1803 *    -2.4342 *  0.0000     2          
   277  O     s     -4.5078 *    -4.3275 *    -6.9420 *  0.0000     2          
   278  Cl    s      2.2539 *    -2.0736 *     8.8353 *  0.0000     2          
   279  O     s      0.0000       9.1959 *     2.0736 *  0.0000     1          
   280  Cl    s      2.2539 *     2.4342 *     8.8353 *  0.0000     2          
   281  Cl    s      6.7617 *    -6.5814 *    -0.1803 *  0.0000     2          
   282  O     s      0.0000       9.1959 *    -2.4342 *  0.0000     1          
   283  O     s      4.5078 *     4.6881 *    -6.9420 *  0.0000     2          
   284  Cl    s      2.2539 *    -2.0736 *    -9.1959 *  0.0000     2          
   285  Cl    s      6.7617 *     6.9420 *    -0.1803 *  0.0000     2          
   286  Cl    s      2.2539 *     2.4342 *    -9.1959 *  0.0000     2          
   287  O     s     -4.5078 *    -8.8353 *     2.0736 *  0.0000     2          
   288  O     s      9.0156 *    -4.3275 *     2.0736 *  0.0000     2          
   289  O     s     -4.5078 *    -8.8353 *    -2.4342 *  0.0000     2          
   290  O     s      9.0156 *    -4.3275 *    -2.4342 *  0.0000     2          
   291  O     s      9.0156 *     4.6881 *     2.0736 *  0.0000     2          
   292  Cl    s      6.7617 *    -6.5814 *     4.3275 *  0.0000     2          
   293  O     s     -4.5078 *     9.1959 *     2.0736 *  0.0000     2          
   294  O     s      9.0156 *     4.6881 *    -2.4342 *  0.0000     2          
   295  O     s     -4.5078 *     9.1959 *    -2.4342 *  0.0000     2          
   296  Cl    s      6.7617 *    -6.5814 *    -4.6881 *  0.0000     2          
   297  Cl    s      6.7617 *     6.9420 *     4.3275 *  0.0000     2          
   298  Cl    s      6.7617 *     6.9420 *    -4.6881 *  0.0000     2          
   299  O     s      0.0000      -8.8353 *     6.5814 *  0.0000     1          
   300  O     s      0.0000       0.1803 *    11.0892 *  0.0000     1          
   301  O     s      9.0156 *     0.1803 *     6.5814 *  0.0000     2          
   302  O     s      0.0000      -8.8353 *    -6.9420 *  0.0000     1          
   303  Cl    s      2.2539 *    -6.5814 *     8.8353 *  0.0000     2          
   304  O     s      0.0000       9.1959 *     6.5814 *  0.0000     1          
   305  Cl    s      2.2539 *   -11.0892 *    -0.1803 *  0.0000     2          
   306  Cl    s      6.7617 *    -2.0736 *     8.8353 *  0.0000     2          
   307  O     s      9.0156 *     0.1803 *    -6.9420 *  0.0000     2          
   308  Cl    s      6.7617 *     2.4342 *     8.8353 *  0.0000     2          
   309  O     s      0.0000       0.1803 *   -11.4498 *  0.0000     1          
   310  Cl    s      2.2539 *     6.9420 *     8.8353 *  0.0000     2          
   311  Cl    s     11.2695 *    -2.0736 *    -0.1803 *  0.0000     2          
   312  O     s      0.0000       9.1959 *    -6.9420 *  0.0000     1          
   313  Cl    s      2.2539 *    -6.5814 *    -9.1959 *  0.0000     2          
   314  Cl    s     11.2695 *     2.4342 *    -0.1803 *  0.0000     2          
   315  Cl    s      6.7617 *    -2.0736 *    -9.1959 *  0.0000     2          
   316  Cl    s      2.2539 *    11.4498 *    -0.1803 *  0.0000     2          
   317  Cl    s      6.7617 *     2.4342 *    -9.1959 *  0.0000     2          
   318  Cl    s      2.2539 *     6.9420 *    -9.1959 *  0.0000     2          
   319  O     s      0.0000      -4.3275 *    11.0892 *  0.0000     1          
   320  O     s     -4.5078 *    -8.8353 *     6.5814 *  0.0000     2          
   321  O     s      4.5078 *     0.1803 *    11.0892 *  0.0000     2          
   322  O     s      9.0156 *    -4.3275 *     6.5814 *  0.0000     2          
--------------------------------------------------------------------------------

  Components of defect energy : 

--------------------------------------------------------------------------------
  Region 1 - region 1                   =      2.55301231 eV
  Region 1 - region 2a (unrelaxed)      =      5.81385605 eV
  Region 1 - 2a (relaxed - correction)  =     -0.30958746 eV
  Region 1 (Total)                      =      8.05728090 eV
  Region 2a                             =      0.15468999 eV
  Region 2b                             =     -0.43831521 eV
--------------------------------------------------------------------------------
  Total defect energy                   =      7.77365568 eV
--------------------------------------------------------------------------------

  Largest displacement in region 2 =   0.0324 Angstroms


  Number of variables =      875

  Maximum number of calculations  =        1000
  Maximum Hessian update interval =          10
  Maximum step size               =   1.0000000
  Maximum parameter tolerance     =   0.0000100
  Maximum function  tolerance     =   0.0000100
  Maximum gradient  tolerance     =   0.0010000

  Symmetry adapted optimisation

  Symmetry to be used for second derivatives

  Newton-Raphson optimiser to be used

  BFGS hessian update to be used

  Lower half triangular hessian to be used

  Start of defect optimisation :

  Cycle:      0 Defect Energy:   7.773656  Gnorm:     0.019001  CPU:    2.981
  ** Hessian calculated **
  Cycle:      1 Defect Energy:   6.041490  Gnorm:     0.007300  CPU:    7.815
  Cycle:      2 Defect Energy:   5.444674  Gnorm:     0.005939  CPU:   12.043
  Cycle:      3 Defect Energy:   5.308484  Gnorm:     0.003277  CPU:   15.409
  Cycle:      4 Defect Energy:   5.258584  Gnorm:     0.003129  CPU:   16.306
  Cycle:      5 Defect Energy:   5.191680  Gnorm:     0.002645  CPU:   17.199
  Cycle:      6 Defect Energy:   5.103974  Gnorm:     0.002134  CPU:   18.168
  Cycle:      7 Defect Energy:   5.010965  Gnorm:     0.002024  CPU:   18.895
  Cycle:      8 Defect Energy:   4.946944  Gnorm:     0.001694  CPU:   22.808
  Cycle:      9 Defect Energy:   4.896943  Gnorm:     0.001783  CPU:   24.509
  Cycle:     10 Defect Energy:   4.849064  Gnorm:     0.001833  CPU:   25.645
  ** Hessian calculated **
  Cycle:     11 Defect Energy:   4.823228  Gnorm:     0.001761  CPU:   28.566
  ** Hessian calculated **
  Cycle:     12 Defect Energy:   4.771971  Gnorm:     0.001651  CPU:   31.632
  Cycle:     13 Defect Energy:   4.734133  Gnorm:     0.001463  CPU:   32.693
  ** Hessian calculated **
  Cycle:     14 Defect Energy:   4.661597  Gnorm:     0.001076  CPU:   35.462
  Cycle:     15 Defect Energy:   4.662075  Gnorm:     0.001504  CPU:   36.477
  ** Hessian calculated **
  Cycle:     16 Defect Energy:   4.602556  Gnorm:     0.001066  CPU:   39.250
  Cycle:     17 Defect Energy:   4.570972  Gnorm:     0.000762  CPU:   40.246
  Cycle:     18 Defect Energy:   4.553349  Gnorm:     0.000540  CPU:   41.237
  Cycle:     19 Defect Energy:   4.544500  Gnorm:     0.000396  CPU:   42.272
  ** Hessian calculated **
  Cycle:     20 Defect Energy:   4.536910  Gnorm:     0.000288  CPU:   44.835
  Cycle:     21 Defect Energy:   4.532051  Gnorm:     0.000223  CPU:   45.768
  Cycle:     22 Defect Energy:   4.528285  Gnorm:     0.000161  CPU:   46.713
  Cycle:     23 Defect Energy:   4.525290  Gnorm:     0.000152  CPU:   47.749
  Cycle:     24 Defect Energy:   4.522695  Gnorm:     0.000128  CPU:   48.691
  Cycle:     25 Defect Energy:   4.521090  Gnorm:     0.000147  CPU:   49.623
  Cycle:     26 Defect Energy:   4.518294  Gnorm:     0.000163  CPU:   50.549
  Cycle:     27 Defect Energy:   4.515620  Gnorm:     0.000289  CPU:   51.467
  Cycle:     28 Defect Energy:   4.512554  Gnorm:     0.000329  CPU:   52.401
  Cycle:     29 Defect Energy:   4.505969  Gnorm:     0.000424  CPU:   53.291
  ** Hessian calculated **
  Cycle:     30 Defect Energy:   4.504315  Gnorm:     0.000239  CPU:   59.168
  Cycle:     31 Defect Energy:   4.502741  Gnorm:     0.000189  CPU:   60.227
  Cycle:     32 Defect Energy:   4.500861  Gnorm:     0.000186  CPU:   61.319
  Cycle:     33 Defect Energy:   4.498534  Gnorm:     0.000203  CPU:   62.596
  Cycle:     34 Defect Energy:   4.495594  Gnorm:     0.000243  CPU:   63.672
  Cycle:     35 Defect Energy:   4.492780  Gnorm:     0.000298  CPU:   64.726
  Cycle:     36 Defect Energy:   4.490189  Gnorm:     0.000341  CPU:   65.818
  Cycle:     37 Defect Energy:   4.487622  Gnorm:     0.000376  CPU:   66.995
  Cycle:     38 Defect Energy:   4.484873  Gnorm:     0.000418  CPU:   68.041
  Cycle:     39 Defect Energy:   4.481932  Gnorm:     0.000442  CPU:   69.084
  ** Hessian calculated **
  Cycle:     40 Defect Energy:   4.480683  Gnorm:     0.000398  CPU:   71.780
  Cycle:     41 Defect Energy:   4.479080  Gnorm:     0.000382  CPU:   72.909
  Cycle:     42 Defect Energy:   4.476987  Gnorm:     0.000363  CPU:   73.894
  Cycle:     43 Defect Energy:   4.474370  Gnorm:     0.000355  CPU:   74.878
  Cycle:     44 Defect Energy:   4.471978  Gnorm:     0.000338  CPU:   75.853
  Cycle:     45 Defect Energy:   4.470192  Gnorm:     0.000340  CPU:   76.892
  Cycle:     46 Defect Energy:   4.468546  Gnorm:     0.000346  CPU:   77.850
  Cycle:     47 Defect Energy:   4.466723  Gnorm:     0.000353  CPU:   78.797
  Cycle:     48 Defect Energy:   4.464401  Gnorm:     0.000373  CPU:   79.758
  Cycle:     49 Defect Energy:   4.461527  Gnorm:     0.000397  CPU:   80.726
  ** Hessian calculated **
  Cycle:     50 Defect Energy:   4.453916  Gnorm:     0.000392  CPU:   83.268
  Cycle:     51 Defect Energy:   4.444409  Gnorm:     0.000376  CPU:   84.198
  Cycle:     52 Defect Energy:   4.436079  Gnorm:     0.000332  CPU:   85.110
  Cycle:     53 Defect Energy:   4.435724  Gnorm:     0.000308  CPU:   86.022
  ** Hessian calculated **
  Cycle:     54 Defect Energy:   4.434934  Gnorm:     0.000203  CPU:   89.969
  Cycle:     55 Defect Energy:   4.434150  Gnorm:     0.000172  CPU:   92.851
  Cycle:     56 Defect Energy:   4.433274  Gnorm:     0.000170  CPU:   94.003
  Cycle:     57 Defect Energy:   4.432475  Gnorm:     0.000174  CPU:   95.137
  Cycle:     58 Defect Energy:   4.431927  Gnorm:     0.000167  CPU:   96.274
  Cycle:     59 Defect Energy:   4.431565  Gnorm:     0.000172  CPU:   97.505
  Cycle:     60 Defect Energy:   4.431256  Gnorm:     0.000173  CPU:   98.600
  Cycle:     61 Defect Energy:   4.431053  Gnorm:     0.000171  CPU:   99.687
  Cycle:     62 Defect Energy:   4.430788  Gnorm:     0.000172  CPU:  100.759
  Cycle:     63 Defect Energy:   4.430593  Gnorm:     0.000174  CPU:  101.830
  ** Hessian calculated **
  Cycle:     64 Defect Energy:   4.430498  Gnorm:     0.000171  CPU:  104.611
  Cycle:     65 Defect Energy:   4.430399  Gnorm:     0.000170  CPU:  105.640
  Cycle:     66 Defect Energy:   4.430235  Gnorm:     0.000168  CPU:  106.665
  Cycle:     67 Defect Energy:   4.430017  Gnorm:     0.000167  CPU:  107.704
  Cycle:     68 Defect Energy:   4.429681  Gnorm:     0.000166  CPU:  108.813
  Cycle:     69 Defect Energy:   4.429229  Gnorm:     0.000166  CPU:  109.801
  Cycle:     70 Defect Energy:   4.428566  Gnorm:     0.000171  CPU:  110.799
  Cycle:     71 Defect Energy:   4.427656  Gnorm:     0.000179  CPU:  111.824
  Cycle:     72 Defect Energy:   4.426360  Gnorm:     0.000207  CPU:  112.895
  Cycle:     73 Defect Energy:   4.424536  Gnorm:     0.000252  CPU:  113.832
  ** Hessian calculated **
  Cycle:     74 Defect Energy:   4.424005  Gnorm:     0.000234  CPU:  116.290
  Cycle:     75 Defect Energy:   4.423160  Gnorm:     0.000229  CPU:  117.230
  Cycle:     76 Defect Energy:   4.422042  Gnorm:     0.000227  CPU:  118.253
  Cycle:     77 Defect Energy:   4.420420  Gnorm:     0.000227  CPU:  119.126
  Cycle:     78 Defect Energy:   4.418311  Gnorm:     0.000239  CPU:  120.025
  Cycle:     79 Defect Energy:   4.415355  Gnorm:     0.000264  CPU:  120.934
  Cycle:     80 Defect Energy:   4.411546  Gnorm:     0.000325  CPU:  121.835
  Cycle:     81 Defect Energy:   4.406236  Gnorm:     0.000388  CPU:  122.843
  Cycle:     82 Defect Energy:   4.399313  Gnorm:     0.000524  CPU:  125.808
  Cycle:     83 Defect Energy:   4.394041  Gnorm:     0.000623  CPU:  128.099
  ** Hessian calculated **
  Cycle:     84 Defect Energy:   4.390293  Gnorm:     0.000584  CPU:  131.019
  Cycle:     85 Defect Energy:   4.385434  Gnorm:     0.000571  CPU:  132.211
  Cycle:     86 Defect Energy:   4.378538  Gnorm:     0.000552  CPU:  133.298
  Cycle:     87 Defect Energy:   4.369613  Gnorm:     0.000542  CPU:  134.355
  Cycle:     88 Defect Energy:   4.358389  Gnorm:     0.000544  CPU:  135.412
  Cycle:     89 Defect Energy:   4.350223  Gnorm:     0.000570  CPU:  136.497
  Cycle:     90 Defect Energy:   4.344469  Gnorm:     0.000585  CPU:  137.638
  Cycle:     91 Defect Energy:   4.340335  Gnorm:     0.000591  CPU:  138.674
  Cycle:     92 Defect Energy:   4.336277  Gnorm:     0.000613  CPU:  139.706
  Cycle:     93 Defect Energy:   4.331131  Gnorm:     0.000645  CPU:  140.744
  ** Hessian calculated **
  Cycle:     94 Defect Energy:   4.312886  Gnorm:     0.000597  CPU:  143.388
  Cycle:     95 Defect Energy:   4.288146  Gnorm:     0.000512  CPU:  144.360
  Cycle:     96 Defect Energy:   4.263167  Gnorm:     0.000350  CPU:  145.334
  Cycle:     97 Defect Energy:   4.254390  Gnorm:     0.000233  CPU:  146.310
  Cycle:     98 Defect Energy:   4.250697  Gnorm:     0.000163  CPU:  147.372
  Cycle:     99 Defect Energy:   4.248894  Gnorm:     0.000110  CPU:  148.331
  Cycle:    100 Defect Energy:   4.247961  Gnorm:     0.000076  CPU:  149.290
  Cycle:    101 Defect Energy:   4.247401  Gnorm:     0.000042  CPU:  150.229
  Cycle:    102 Defect Energy:   4.247260  Gnorm:     0.000026  CPU:  151.234
  Cycle:    103 Defect Energy:   4.247178  Gnorm:     0.000019  CPU:  152.142
  ** Hessian calculated **
  Cycle:    104 Defect Energy:   4.247139  Gnorm:     0.000013  CPU:  154.491
  Cycle:    105 Defect Energy:   4.247118  Gnorm:     0.000009  CPU:  155.369
  Cycle:    106 Defect Energy:   4.247106  Gnorm:     0.000007  CPU:  156.204


  **** Optimisation achieved ****


  Final defect energy  =        4.24709938
  Final defect Gnorm   =        0.00000459

  Components of defect energy : 

--------------------------------------------------------------------------------
  Region 1 - region 1                   =     -1.56704064 eV
  Region 1 - region 2a (unrelaxed)      =      6.35875724 eV
  Region 1 - 2a (relaxed - correction)  =     -0.22727242 eV
  Region 1 (Total)                      =      4.56444418 eV
  Region 2a                             =      0.11356475 eV
  Region 2b                             =     -0.43090954 eV
--------------------------------------------------------------------------------
  Total defect energy                   =      4.24709938 eV
--------------------------------------------------------------------------------

  Largest displacement in region 2 =   0.0326 Angstroms

  Final coordinates of region 1 :

--------------------------------------------------------------------------------
   No.  Atomic        x           y           z          Radius      Charge
        Label       (Angs)      (Angs)      (Angs)       (Angs)       (e) 
--------------------------------------------------------------------------------
     1  Na    c     2.253894    2.073582    0.047726    0.000000    1.000000
     2  O     c     2.253894    2.367705    2.241762    0.000000    0.183000
     3  O     c     2.253894    2.270315   -2.248435    0.000000    0.183000
     4  Cl    c     4.644809    0.031030   -0.097055    0.000000    1.485000
     5  Cl    c    -0.137022    0.031030   -0.097055    0.000000    1.485000
     6  Na    c     4.416912    1.827063    2.255911    0.000000    1.000000
     7  Na    c     0.090876    1.827063    2.255911    0.000000    1.000000
     8  Na    c     2.253894    4.549660    2.174499    0.000000    1.000000
     9  Na    c     2.253894    0.032001   -2.614650    0.000000    1.000000
    10  Cl    c     4.546189    4.612143   -0.087008    0.000000    1.485000
    11  Cl    c    -0.038402    4.612143   -0.087008    0.000000    1.485000
    12  Na    c     4.511607    2.160685   -2.270435    0.000000    1.000000
    13  Na    c    -0.003820    2.160685   -2.270435    0.000000    1.000000
    14  Na    c     2.253894    4.516659   -1.874790    0.000000    1.000000
    15  Na    c     2.253894    1.944706    4.422646    0.000000    1.000000
    16  Na    c     2.253894   -1.707363    0.091461    0.000000    1.000000
    17  Na    c    -2.110225    2.609543   -0.003461    0.000000    1.000000
    18  Na    c     6.618012    2.609543   -0.003461    0.000000    1.000000
    19  Na    c     2.253894    7.079279   -0.016939    0.000000    1.000000
    20  Na    c     2.253894    2.667063   -4.491945    0.000000    1.000000
    21  O     c     2.253894   -2.310445    2.237153    0.000000    0.183000
    22  O     c    -2.209359    2.232486    2.240062    0.000000    0.183000
    23  O     c     6.717146    2.232486    2.240062    0.000000    0.183000
    24  O     c     2.253894   -2.198611   -2.202800    0.000000    0.183000
    25  O     c     2.253894    6.829570    2.232412    0.000000    0.183000
    26  O     c    -2.262883    2.265496   -2.260451    0.000000    0.183000
    27  O     c     6.770671    2.265496   -2.260451    0.000000    0.183000
    28  O     c     2.253894    6.767345   -2.264860    0.000000    0.183000
    29  Cl    c     4.605925    0.000402    4.635711    0.000000    1.485000
    30  Cl    c    -0.098138    0.000402    4.635711    0.000000    1.485000
    31  Na    c     4.441128   -1.895228    2.256231    0.000000    1.000000
    32  Na    c     0.066659   -1.895228    2.256231    0.000000    1.000000
    33  Na    c    -2.484664    0.002903    1.871796    0.000000    1.000000
    34  Na    c     6.992451    0.002903    1.871796    0.000000    1.000000
    35  Cl    c     4.517618    4.659406    4.636581    0.000000    1.485000
    36  Cl    c    -0.009831    4.659406    4.636581    0.000000    1.485000
    37  Na    c     4.509040   -2.128065   -2.199917    0.000000    1.000000
    38  Na    c    -0.001253   -2.128065   -2.199917    0.000000    1.000000
    39  Na    c    -1.922963    4.463089    2.585941    0.000000    1.000000
    40  Na    c     6.430750    4.463089    2.585941    0.000000    1.000000
    41  Na    c    -2.372384    0.009083   -1.891253    0.000000    1.000000
    42  Na    c     6.880172    0.009083   -1.891253    0.000000    1.000000
    43  Na    c     4.503428    6.871143    2.143782    0.000000    1.000000
    44  Na    c     0.004359    6.871143    2.143782    0.000000    1.000000
    45  Cl    c     4.514306    0.012340   -4.509372    0.000000    1.485000
    46  Cl    c    -0.006519    0.012340   -4.509372    0.000000    1.485000
    47  Na    c    -2.146504    4.503097   -2.632103    0.000000    1.000000
    48  Na    c     6.654292    4.503097   -2.632103    0.000000    1.000000
    49  Na    c     4.514457    6.754084   -2.197653    0.000000    1.000000
    50  Na    c    -0.006669    6.754084   -2.197653    0.000000    1.000000
    51  Cl    c     4.498290    4.521566   -4.560852    0.000000    1.485000
    52  Cl    c     0.009497    4.521566   -4.560852    0.000000    1.485000
    53  Na    c     2.253894   -1.834183    4.411053    0.000000    1.000000
    54  Na    c    -2.311398    1.890869    4.488858    0.000000    1.000000
    55  Na    c     6.819185    1.890869    4.488858    0.000000    1.000000
    56  Na    c    -2.169237   -2.606657    0.004054    0.000000    1.000000
    57  Na    c     6.677024   -2.606657    0.004054    0.000000    1.000000
    58  Na    c     2.253894    6.666965    4.493373    0.000000    1.000000
    59  Na    c     2.253894   -2.633680   -4.443666    0.000000    1.000000
    60  Na    c    -2.298651    6.391473   -0.009192    0.000000    1.000000
    61  Na    c     6.806438    6.391473   -0.009192    0.000000    1.000000
    62  Na    c    -2.323889    1.877089   -4.496768    0.000000    1.000000
    63  Na    c     6.831676    1.877089   -4.496768    0.000000    1.000000
    64  O     c     2.253894    2.240314    6.720796    0.000000    0.183000
    65  O     c    -2.225368   -2.228428    2.238210    0.000000    0.183000
    66  O     c     6.733155   -2.228428    2.238210    0.000000    0.183000
    67  Na    c     2.253894    6.411407   -4.508794    0.000000    1.000000
    68  O     c    -2.258898   -2.246714   -2.243078    0.000000    0.183000
    69  O     c     6.766686   -2.246714   -2.243078    0.000000    0.183000
    70  O     c    -2.241866    6.714536    2.246069    0.000000    0.183000
    71  O     c     6.749653    6.714536    2.246069    0.000000    0.183000
    72  Na    c     2.253894   -0.000703    7.023672    0.000000    1.000000
    73  Na    c     2.253894   -4.494120    2.184783    0.000000    1.000000
    74  O     c    -2.268098    6.748760   -2.267269    0.000000    0.183000
    75  O     c     6.775885    6.748760   -2.267269    0.000000    0.183000
    76  O     c     2.253894    2.259526   -6.738693    0.000000    0.183000
    77  Cl    c     4.612098   -4.628122   -0.071543    0.000000    1.485000
    78  Cl    c    -0.104311   -4.628122   -0.071543    0.000000    1.485000
    79  Na    c     4.507520    2.280872    6.643174    0.000000    1.000000
    80  Na    c     0.000268    2.280872    6.643174    0.000000    1.000000
    81  Na    c     2.253894    4.485272    6.556279    0.000000    1.000000
    82  Na    c     2.253894   -4.448446   -1.795827    0.000000    1.000000
    83  Cl    c     9.120360   -0.006818   -0.033217    0.000000    1.485000
    84  Cl    c    -4.612573   -0.006818   -0.033217    0.000000    1.485000
    85  Na    c     8.980119    2.509862    2.210926    0.000000    1.000000
    86  Na    c    -4.472332    2.509862    2.210926    0.000000    1.000000
    87  Cl    c     9.061821    4.499305   -0.020183    0.000000    1.485000
    88  Cl    c    -4.554034    4.499305   -0.020183    0.000000    1.485000
    89  Na    c     9.014198    2.411401   -2.174016    0.000000    1.000000
    90  Na    c    -4.506410    2.411401   -2.174016    0.000000    1.000000
    91  Na    c     2.253894    9.044298    2.561720    0.000000    1.000000
    92  Na    c     2.253894    0.002745   -6.405129    0.000000    1.000000
    93  Cl    c     4.537650    9.040559   -0.001368    0.000000    1.485000
    94  Cl    c    -0.029863    9.040559   -0.001368    0.000000    1.485000
    95  Na    c     4.512141    2.234345   -6.677035    0.000000    1.000000
    96  Na    c    -0.004354    2.234345   -6.677035    0.000000    1.000000
    97  Na    c     2.253894    4.492092   -7.121295    0.000000    1.000000
    98  Na    c     2.253894    8.996695   -2.619612    0.000000    1.000000
    99  Na    c    -2.294363   -1.948259    4.495729    0.000000    1.000000
   100  Na    c     6.802150   -1.948259    4.495729    0.000000    1.000000
   101  Na    c    -2.172772    7.013299    4.494056    0.000000    1.000000
   102  Na    c     6.680559    7.013299    4.494056    0.000000    1.000000
   103  Na    c    -2.275277   -1.960768   -4.495097    0.000000    1.000000
   104  Na    c     6.783064   -1.960768   -4.495097    0.000000    1.000000
   105  O     c     2.253894   -2.240744    6.704520    0.000000    0.183000
   106  O     c    -2.257482    2.249401    6.744422    0.000000    0.183000
   107  O     c     6.765269    2.249401    6.744422    0.000000    0.183000
   108  Na    c    -2.270002    7.112230   -4.495254    0.000000    1.000000
   109  Na    c     6.777789    7.112230   -4.495254    0.000000    1.000000
   110  O     c     2.253894    6.749169    6.757902    0.000000    0.183000
   111  O     c     2.253894   -2.252191   -6.704513    0.000000    0.183000
   112  Cl    c     4.579045   -4.646450    4.619593    0.000000    1.485000
   113  Cl    c    -0.071258   -4.646450    4.619593    0.000000    1.485000
   114  Na    c     4.505624   -2.294599    6.630192    0.000000    1.000000
   115  Na    c     0.002163   -2.294599    6.630192    0.000000    1.000000
   116  Na    c    -2.012459   -4.478282    2.508218    0.000000    1.000000
   117  Na    c     6.520247   -4.478282    2.508218    0.000000    1.000000
   118  Na    c     6.661650    0.002517    7.034321    0.000000    1.000000
   119  Na    c    -2.153863    0.002517    7.034321    0.000000    1.000000
   120  O     c     6.769341    2.244397   -6.746615    0.000000    0.183000
   121  O     c    -2.261554    2.244397   -6.746615    0.000000    0.183000
   122  Cl    c     9.065313   -0.013283    4.511663    0.000000    1.485000
   123  Cl    c    -4.557526   -0.013283    4.511663    0.000000    1.485000
   124  Na    c     8.988929   -2.471901    2.244681    0.000000    1.000000
   125  Na    c    -4.481141   -2.471901    2.244681    0.000000    1.000000
   126  Na    c    -2.158553   -4.496951   -2.500220    0.000000    1.000000
   127  Na    c     6.666341   -4.496951   -2.500220    0.000000    1.000000
   128  Na    c     6.788616    4.506806    6.479969    0.000000    1.000000
   129  Na    c    -2.280829    4.506806    6.479969    0.000000    1.000000
   130  O     c     2.253894    6.737301   -6.770062    0.000000    0.183000
   131  Cl    c     4.534928   -4.520141   -4.570301    0.000000    1.485000
   132  Cl    c    -0.027141   -4.520141   -4.570301    0.000000    1.485000
   133  Cl    c     9.060111    4.492415    4.502366    0.000000    1.485000
   134  Cl    c    -4.552323    4.492415    4.502366    0.000000    1.485000
   135  Na    c     4.510260    6.691968    6.766949    0.000000    1.000000
   136  Na    c    -0.002472    6.691968    6.766949    0.000000    1.000000
   137  Na    c     9.010392   -2.362285   -2.212135    0.000000    1.000000
   138  Na    c    -4.502605   -2.362285   -2.212135    0.000000    1.000000
   139  Cl    c     4.490705    9.059190    4.492979    0.000000    1.485000
   140  Cl    c     0.017082    9.059190    4.492979    0.000000    1.485000
   141  Na    c     4.507476   -2.212090   -6.677239    0.000000    1.000000
   142  Na    c     0.000311   -2.212090   -6.677239    0.000000    1.000000
   143  Na    c     9.000033    6.516505    2.316738    0.000000    1.000000
   144  Na    c    -4.492246    6.516505    2.316738    0.000000    1.000000
   145  Cl    c     9.065601   -0.013570   -4.544557    0.000000    1.485000
   146  Cl    c    -4.557814   -0.013570   -4.544557    0.000000    1.485000
   147  Na    c     6.885625    8.978778    2.012951    0.000000    1.000000
   148  Na    c    -2.377838    8.978778    2.012951    0.000000    1.000000
   149  Na    c    -2.297784    0.008168   -7.076756    0.000000    1.000000
   150  Na    c     6.805571    0.008168   -7.076756    0.000000    1.000000
   151  Cl    c     9.054141    4.515340   -4.528447    0.000000    1.485000
   152  Cl    c    -4.546354    4.515340   -4.528447    0.000000    1.485000
   153  Na    c     9.021551    6.635835   -2.271713    0.000000    1.000000
   154  Na    c    -4.513764    6.635835   -2.271713    0.000000    1.000000
   155  Na    c     6.814684    8.994113   -1.959923    0.000000    1.000000
   156  Na    c    -2.306897    8.994113   -1.959923    0.000000    1.000000
   157  Na    c    -2.231911    4.505792   -6.466519    0.000000    1.000000
   158  Na    c     6.739698    4.505792   -6.466519    0.000000    1.000000
   159  Cl    c     4.508892    9.049112   -4.549174    0.000000    1.485000
   160  Cl    c    -0.001105    9.049112   -4.549174    0.000000    1.485000
   161  Na    c     4.505810    6.735243   -6.703979    0.000000    1.000000
   162  Na    c     0.001977    6.735243   -6.703979    0.000000    1.000000
   163  Na    c     2.253894    2.414767    8.987692    0.000000    1.000000
   164  Na    c     2.253894   -6.966937    0.000869    0.000000    1.000000
   165  Na    c    11.272074    2.227266    0.004985    0.000000    1.000000
   166  Na    c    -6.764286    2.227266    0.004985    0.000000    1.000000
   167  O     c    -2.254967   -2.240679    6.757300    0.000000    0.183000
   168  O     c     6.762755   -2.240679    6.757300    0.000000    0.183000
   169  O     c     2.253894   -6.782093    2.235187    0.000000    0.183000
   170  O     c     2.253894   -6.720071   -2.228131    0.000000    0.183000
   171  Na    c     2.253894   10.988206   -0.006233    0.000000    1.000000
   172  Na    c     2.253894    1.950883   -8.987329    0.000000    1.000000
   173  O     c    11.248275    2.248410    2.254697    0.000000    0.183000
   174  O     c    -6.740487    2.248410    2.254697    0.000000    0.183000
   175  O     c    -2.262512    6.772545    6.748023    0.000000    0.183000
   176  O     c     6.770299    6.772545    6.748023    0.000000    0.183000
   177  Na    c     2.253894   -4.491598    6.487687    0.000000    1.000000
   178  O     c    11.270765    2.249874   -2.252205    0.000000    0.183000
   179  O     c    -6.762978    2.249874   -2.252205    0.000000    0.183000
   180  O     c    -2.254135   -2.225956   -6.760049    0.000000    0.183000
   181  O     c     6.761922   -2.225956   -6.760049    0.000000    0.183000
   182  Cl    c     4.506362    0.020443    9.041807    0.000000    1.485000
   183  Cl    c     0.001425    0.020443    9.041807    0.000000    1.485000
   184  Na    c     4.497900   -6.788821    2.187133    0.000000    1.000000
   185  Na    c     0.009887   -6.788821    2.187133    0.000000    1.000000
   186  O     c     2.253894   11.263653    2.247745    0.000000    0.183000
   187  Cl    c     4.514517    4.522656    9.076157    0.000000    1.485000
   188  Cl    c    -0.006730    4.522656    9.076157    0.000000    1.485000
   189  Cl    c     9.074988   -4.497437   -0.019439    0.000000    1.485000
   190  Cl    c    -4.567200   -4.497437   -0.019439    0.000000    1.485000
   191  Na    c     4.506708   -6.712292   -2.210622    0.000000    1.000000
   192  Na    c     0.001080   -6.712292   -2.210622    0.000000    1.000000
[...]
    242 y          6.761681      6.767367     0.005686    Cartesian    0.08
    242 z         -2.253894     -2.264833    -0.010939    Cartesian    0.49
    243 x          4.507787      4.614290     0.106503    Cartesian    2.36
    243 y          0.000000      0.000539     0.000539    Cartesian    0.00
    243 z          4.507787      4.635937     0.128150    Cartesian    2.84
    244 x          4.507787      4.530733     0.022946    Cartesian    0.51
    244 y          4.507787      4.673610     0.165823    Cartesian    3.68
    244 z          4.507787      4.649130     0.141342    Cartesian    3.14
    245 x          4.507787      4.511038     0.003250    Cartesian    0.07
    245 y          0.000000      0.014143     0.014143    Cartesian    0.00
    245 z         -4.507787     -4.510116    -0.002329    Cartesian    0.05
    246 x          4.507787      4.498058    -0.009729    Cartesian   -0.22
    246 y          4.507787      4.522124     0.014337    Cartesian    0.32
    246 z         -4.507787     -4.564180    -0.056393    Cartesian    1.25
    247 x          2.253894      2.253894     0.000000    Cartesian    0.00
    247 y          2.253894      2.240332    -0.013562    Cartesian   -0.60
    247 z          6.761681      6.720842    -0.040839    Cartesian   -0.60
    248 x         -2.253894     -2.225432     0.028461    Cartesian   -1.26
    248 y         -2.253894     -2.228443     0.025451    Cartesian   -1.13
    248 z          2.253894      2.238189    -0.015704    Cartesian   -0.70
    249 x         -2.253894     -2.258906    -0.005012    Cartesian    0.22
    249 y         -2.253894     -2.246749     0.007144    Cartesian   -0.32
    249 z         -2.253894     -2.243063     0.010830    Cartesian   -0.48
    250 x         -2.253894     -2.241830     0.012064    Cartesian   -0.54
    250 y          6.761681      6.714554    -0.047127    Cartesian   -0.70
    250 z          2.253894      2.246089    -0.007805    Cartesian   -0.35
    251 x         -2.253894     -2.268108    -0.014214    Cartesian    0.63
    251 y          6.761681      6.748764    -0.012917    Cartesian   -0.19
    251 z         -2.253894     -2.267300    -0.013406    Cartesian    0.59
    252 x          2.253894      2.253894     0.000000    Cartesian    0.00
    252 y          2.253894      2.259548     0.005655    Cartesian    0.25
    252 z         -6.761681     -6.738702     0.022979    Cartesian   -0.34
    253 x          4.507787      4.625151     0.117364    Cartesian    2.60
    253 y         -4.507787     -4.637629    -0.129841    Cartesian    2.88
    253 z          0.000000     -0.084241    -0.084241    Cartesian    0.00
    254 x          9.015574      9.116893     0.101318    Cartesian    1.12
    254 y          0.000000     -0.007849    -0.007849    Cartesian    0.00
    254 z          0.000000     -0.033184    -0.033184    Cartesian    0.00
    255 x          9.015574      9.057141     0.041567    Cartesian    0.46
    255 y          4.507787      4.499489    -0.008298    Cartesian   -0.18
    255 z          0.000000     -0.019960    -0.019960    Cartesian    0.00
    256 x          4.507787      4.536348     0.028561    Cartesian    0.63
    256 y          9.015574      9.040957     0.025382    Cartesian    0.28
    256 z          0.000000     -0.000728    -0.000728    Cartesian    0.00
    257 x          2.253894      2.253894     0.000000    Cartesian    0.00
    257 y         -2.253894     -2.240746     0.013148    Cartesian   -0.58
    257 z          6.761681      6.704567    -0.057114    Cartesian   -0.84
    258 x         -2.253894     -2.257486    -0.003593    Cartesian    0.16
    258 y          2.253894      2.249369    -0.004525    Cartesian   -0.20
    258 z          6.761681      6.744448    -0.017233    Cartesian   -0.25
    259 x          2.253894      2.253894     0.000000    Cartesian    0.00
    259 y          6.761681      6.749142    -0.012539    Cartesian   -0.19
    259 z          6.761681      6.757886    -0.003795    Cartesian   -0.06
    260 x          2.253894      2.253894     0.000000    Cartesian    0.00
    260 y         -2.253894     -2.252238     0.001656    Cartesian   -0.07
    260 z         -6.761681     -6.704511     0.057170    Cartesian   -0.85
    261 x          4.507787      4.594054     0.086267    Cartesian    1.91
    261 y         -4.507787     -4.660869    -0.153082    Cartesian    3.40
    261 z          4.507787      4.632002     0.124215    Cartesian    2.76
    262 x          6.761681      6.769359     0.007678    Cartesian    0.11
    262 y          2.253894      2.244360    -0.009533    Cartesian   -0.42
    262 z         -6.761681     -6.746639     0.015042    Cartesian   -0.22
    263 x          9.015574      9.064779     0.049205    Cartesian    0.55
    263 y          0.000000     -0.012428    -0.012428    Cartesian    0.00
    263 z          4.507787      4.510840     0.003053    Cartesian    0.07
    264 x          2.253894      2.253894     0.000000    Cartesian    0.00
    264 y          6.761681      6.737283    -0.024398    Cartesian   -0.36
    264 z         -6.761681     -6.770101    -0.008420    Cartesian    0.12
    265 x          4.507787      4.537138     0.029351    Cartesian    0.65
    265 y         -4.507787     -4.521425    -0.013638    Cartesian    0.30
    265 z         -4.507787     -4.575407    -0.067620    Cartesian    1.50
    266 x          9.015574      9.062566     0.046992    Cartesian    0.52
    266 y          4.507787      4.493848    -0.013940    Cartesian   -0.31
    266 z          4.507787      4.498997    -0.008790    Cartesian   -0.19
    267 x          4.507787      4.488311    -0.019476    Cartesian   -0.43
    267 y          9.015574      9.060764     0.045190    Cartesian    0.50
    267 z          4.507787      4.487013    -0.020775    Cartesian   -0.46
    268 x          9.015574      9.063374     0.047799    Cartesian    0.53
    268 y          0.000000     -0.012282    -0.012282    Cartesian    0.00
    268 z         -4.507787     -4.547909    -0.040121    Cartesian    0.89
    269 x          9.015574      9.052250     0.036676    Cartesian    0.41
    269 y          4.507787      4.516876     0.009089    Cartesian    0.20
    269 z         -4.507787     -4.530556    -0.022769    Cartesian    0.51
    270 x          4.507787      4.506290    -0.001497    Cartesian   -0.03
    270 y          9.015574      9.050472     0.034897    Cartesian    0.39
    270 z         -4.507787     -4.552004    -0.044217    Cartesian    0.98
    271 x         -2.253894     -2.254967    -0.001073    Cartesian    0.05
    271 y         -2.253894     -2.240661     0.013232    Cartesian   -0.59
    271 z          6.761681      6.757332    -0.004348    Cartesian   -0.06
    272 x          2.253894      2.253894     0.000000    Cartesian    0.00
    272 y         -6.761681     -6.782180    -0.020499    Cartesian    0.30
    272 z          2.253894      2.235151    -0.018743    Cartesian   -0.83
    273 x          2.253894      2.253894     0.000000    Cartesian    0.00
    273 y         -6.761681     -6.720132     0.041549    Cartesian   -0.61
    273 z         -2.253894     -2.228054     0.025840    Cartesian   -1.15
    274 x         11.269468     11.248300    -0.021168    Cartesian   -0.19
    274 y          2.253894      2.248443    -0.005451    Cartesian   -0.24
    274 z          2.253894      2.254697     0.000804    Cartesian    0.04
    275 x         -2.253894     -2.262520    -0.008627    Cartesian    0.38
    275 y          6.761681      6.772589     0.010908    Cartesian    0.16
    275 z          6.761681      6.748025    -0.013655    Cartesian   -0.20
    276 x         11.269468     11.270776     0.001308    Cartesian    0.01
    276 y          2.253894      2.249885    -0.004009    Cartesian   -0.18
    276 z         -2.253894     -2.252206     0.001688    Cartesian   -0.07
    277 x         -2.253894     -2.254143    -0.000249    Cartesian    0.01
    277 y         -2.253894     -2.225934     0.027960    Cartesian   -1.24
    277 z         -6.761681     -6.760089     0.001592    Cartesian   -0.02
    278 x          4.507787      4.508073     0.000286    Cartesian    0.01
    278 y          0.000000      0.022627     0.022627    Cartesian    0.00
    278 z          9.015574      9.039020     0.023446    Cartesian    0.26
    279 x          2.253894      2.253894     0.000000    Cartesian    0.00
    279 y         11.269468     11.263609    -0.005859    Cartesian   -0.05
    279 z          2.253894      2.247798    -0.006096    Cartesian   -0.27
    280 x          4.507787      4.517315     0.009528    Cartesian    0.21
    280 y          4.507787      4.522805     0.015017    Cartesian    0.33
    280 z          9.015574      9.083857     0.068282    Cartesian    0.76
    281 x          9.015574      9.077474     0.061900    Cartesian    0.69
    281 y         -4.507787     -4.491978     0.015810    Cartesian   -0.35
    281 z          0.000000     -0.020542    -0.020542    Cartesian    0.00
    282 x          2.253894      2.253894     0.000000    Cartesian    0.00
    282 y         11.269468     11.243461    -0.026007    Cartesian   -0.23
    282 z         -2.253894     -2.262935    -0.009041    Cartesian    0.40
    283 x          6.761681      6.760044    -0.001636    Cartesian   -0.02
    283 y          6.761681      6.769279     0.007599    Cartesian    0.11
    283 z         -6.761681     -6.736529     0.025152    Cartesian   -0.37
    284 x          4.507787      4.498990    -0.008797    Cartesian   -0.20
    284 y          0.000000     -0.012892    -0.012892    Cartesian    0.00
    284 z         -9.015574     -9.040937    -0.025363    Cartesian    0.28
    285 x          9.015574      9.037418     0.021844    Cartesian    0.24
    285 y          9.015574      9.082928     0.067354    Cartesian    0.75
    285 z          0.000000     -0.020658    -0.020658    Cartesian    0.00
    286 x          4.507787      4.544971     0.037184    Cartesian    0.82
    286 y          4.507787      4.516172     0.008385    Cartesian    0.19
    286 z         -9.015574     -9.063401    -0.047827    Cartesian    0.53
    287 x         -2.253894     -2.234956     0.018937    Cartesian   -0.84
    287 y         -6.761681     -6.742425     0.019256    Cartesian   -0.28
    287 z          2.253894      2.267384     0.013490    Cartesian    0.60
    288 x         11.269468     11.254426    -0.015042    Cartesian   -0.13
    288 y         -2.253894     -2.266958    -0.013065    Cartesian    0.58
    288 z          2.253894      2.253031    -0.000863    Cartesian   -0.04
    289 x         -2.253894     -2.257692    -0.003798    Cartesian    0.17
    289 y         -6.761681     -6.755724     0.005956    Cartesian   -0.09
    289 z         -2.253894     -2.280855    -0.026961    Cartesian    1.20
    290 x         11.269468     11.268970    -0.000498    Cartesian   -0.00
    290 y         -2.253894     -2.259098    -0.005204    Cartesian    0.23
    290 z         -2.253894     -2.254049    -0.000156    Cartesian    0.01
    291 x         11.269468     11.264673    -0.004795    Cartesian   -0.04
    291 y          6.761681      6.733065    -0.028616    Cartesian   -0.42
    291 z          2.253894      2.258934     0.005041    Cartesian    0.22
    292 x          9.015574      9.052819     0.037245    Cartesian    0.41
    292 y         -4.507787     -4.508016    -0.000229    Cartesian    0.01
    292 z          4.507787      4.483967    -0.023821    Cartesian   -0.53
    293 x         -2.253894     -2.268280    -0.014387    Cartesian    0.64
    293 y         11.269468     11.253948    -0.015521    Cartesian   -0.14
    293 z          2.253894      2.234642    -0.019252    Cartesian   -0.85
    294 x         11.269468     11.272774     0.003306    Cartesian    0.03
    294 y          6.761681      6.749306    -0.012375    Cartesian   -0.18
    294 z         -2.253894     -2.253891     0.000002    Cartesian   -0.00
    295 x         -2.253894     -2.258854    -0.004960    Cartesian    0.22
    295 y         11.269468     11.255697    -0.013771    Cartesian   -0.12
    295 z         -2.253894     -2.232977     0.020917    Cartesian   -0.93
    296 x          9.015574      9.025756     0.010181    Cartesian    0.11
    296 y         -4.507787     -4.527419    -0.019632    Cartesian    0.44
    296 z         -4.507787     -4.526628    -0.018841    Cartesian    0.42
    297 x          9.015574      9.047919     0.032344    Cartesian    0.36
    297 y          9.015574      9.028267     0.012693    Cartesian    0.14
    297 z          4.507787      4.510673     0.002886    Cartesian    0.06
    298 x          9.015574      9.047335     0.031761    Cartesian    0.35
    298 y          9.015574      9.022500     0.006926    Cartesian    0.08
    298 z         -4.507787     -4.541720    -0.033933    Cartesian    0.75
    299 x          2.253894      2.253894     0.000000    Cartesian    0.00
    299 y         -6.761681     -6.753021     0.008659    Cartesian   -0.13
    299 z          6.761681      6.757988    -0.003692    Cartesian   -0.05
    300 x          2.253894      2.253894     0.000000    Cartesian    0.00
    300 y          2.253894      2.259268     0.005374    Cartesian    0.24
    300 z         11.269468     11.256138    -0.013330    Cartesian   -0.12
    301 x         11.269468     11.269070    -0.000398    Cartesian   -0.00
    301 y          2.253894      2.251045    -0.002849    Cartesian   -0.13
    301 z          6.761681      6.765459     0.003778    Cartesian    0.06
    302 x          2.253894      2.253894     0.000000    Cartesian    0.00
    302 y         -6.761681     -6.737976     0.023704    Cartesian   -0.35
    302 z         -6.761681     -6.769900    -0.008220    Cartesian    0.12
    303 x          4.507787      4.527021     0.019234    Cartesian    0.43
    303 y         -4.507787     -4.495104     0.012683    Cartesian   -0.28
    303 z          9.015574      9.099181     0.083606    Cartesian    0.93
    304 x          2.253894      2.253894     0.000000    Cartesian    0.00
    304 y         11.269468     11.279409     0.009941    Cartesian    0.09
    304 z          6.761681      6.753594    -0.008086    Cartesian   -0.12
    305 x          4.507787      4.468034    -0.039753    Cartesian   -0.88
    305 y         -9.015574     -9.053199    -0.037625    Cartesian    0.42
    305 z          0.000000      0.020082     0.020082    Cartesian    0.00
    306 x          9.015574      9.081445     0.065871    Cartesian    0.73
    306 y          0.000000      0.001893     0.001893    Cartesian    0.00
    306 z          9.015574      8.999684    -0.015891    Cartesian   -0.18
    307 x         11.269468     11.271673     0.002205    Cartesian    0.02
    307 y          2.253894      2.261421     0.007527    Cartesian    0.33
    307 z         -6.761681     -6.762862    -0.001181    Cartesian    0.02
    308 x          9.015574      9.008941    -0.006634    Cartesian   -0.07
    308 y          4.507787      4.516181     0.008394    Cartesian    0.19
    308 z          9.015574      9.070328     0.054753    Cartesian    0.61
    309 x          2.253894      2.253894     0.000000    Cartesian    0.00
    309 y          2.253894      2.223512    -0.030382    Cartesian   -1.35
    309 z        -11.269468    -11.253293     0.016175    Cartesian   -0.14
    310 x          4.507787      4.546556     0.038769    Cartesian    0.86
    310 y          9.015574      9.071054     0.055479    Cartesian    0.62
    310 z          9.015574      9.020882     0.005308    Cartesian    0.06
    311 x         13.523362     13.603954     0.080592    Cartesian    0.60
    311 y          0.000000      0.017806     0.017806    Cartesian    0.00
    311 z          0.000000     -0.005925    -0.005925    Cartesian    0.00
    312 x          2.253894      2.253894     0.000000    Cartesian    0.00
    312 y         11.269468     11.276908     0.007440    Cartesian    0.07
    312 z         -6.761681     -6.743507     0.018173    Cartesian   -0.27
    313 x          4.507787      4.508898     0.001111    Cartesian    0.02
    313 y         -4.507787     -4.515900    -0.008113    Cartesian    0.18
    313 z         -9.015574     -9.057329    -0.041754    Cartesian    0.46
    314 x         13.523362     13.533089     0.009727    Cartesian    0.07
    314 y          4.507787      4.540562     0.032775    Cartesian    0.73
    314 z          0.000000      0.001917     0.001917    Cartesian    0.00
    315 x          9.015574      9.057927     0.042353    Cartesian    0.47
    315 y          0.000000      0.005568     0.005568    Cartesian    0.00
    315 z         -9.015574     -9.018898    -0.003324    Cartesian    0.04
    316 x          4.507787      4.545269     0.037482    Cartesian    0.83
    316 y         13.523362     13.589776     0.066414    Cartesian    0.49
    316 z          0.000000     -0.012137    -0.012137    Cartesian    0.00
    317 x          9.015574      8.996281    -0.019294    Cartesian   -0.21
    317 y          4.507787      4.507847     0.000060    Cartesian    0.00
    317 z         -9.015574     -9.069742    -0.054168    Cartesian    0.60
    318 x          4.507787      4.516511     0.008724    Cartesian    0.19
    318 y          9.015574      9.035773     0.020198    Cartesian    0.22
    318 z         -9.015574     -9.051927    -0.036352    Cartesian    0.40
    319 x          2.253894      2.253894     0.000000    Cartesian    0.00
    319 y         -2.253894     -2.264770    -0.010876    Cartesian    0.48
    319 z         11.269468     11.253298    -0.016170    Cartesian   -0.14
    320 x         -2.253894     -2.266259    -0.012365    Cartesian    0.55
    320 y         -6.761681     -6.771087    -0.009406    Cartesian    0.14
    320 z          6.761681      6.765848     0.004168    Cartesian    0.06
    321 x          6.761681      6.764076     0.002395    Cartesian    0.04
    321 y          2.253894      2.259016     0.005123    Cartesian    0.23
    321 z         11.269468     11.267793    -0.001675    Cartesian   -0.01
    322 x         11.269468     11.276303     0.006835    Cartesian    0.06
    322 y         -2.253894     -2.256974    -0.003080    Cartesian    0.14
    322 z          6.761681      6.767364     0.005683    Cartesian    0.08
--------------------------------------------------------------------------------


  Time to end of optimisation  =      160.6161 seconds


  Peak dynamic memory used =      94.78 MB 


  Timing analysis for GULP :

--------------------------------------------------------------------------------
  Task / Subroutine                                          Time (Seconds)
--------------------------------------------------------------------------------
  Calculation of reciprocal space energy and derivatives          0.0007
  Calculation of reciprocal space energy using symmetry           0.0010
  Calculation of real space energy and derivatives                0.0039
  Calculation of real space energy using symmetry                 0.0099
  Calculation for region 1 energy and derivatives (2-b)          89.4584
  Calculation for region 2a energy                               62.7591
  Calculation for region 2b energy                                0.0249
  Calculation and manipulation of Hessian matrix                  0.2678
  Calculation of matrix inversion                                 7.4408
  Symmetry generation of equivalent positions                     0.0048
--------------------------------------------------------------------------------
  Total CPU time                                                160.6165
--------------------------------------------------------------------------------


  Dump file written as Na3OCl.grs


  Job Finished at 22:42.20 30th November   2020                               

