********************************************************************************
*                       GENERAL UTILITY LATTICE PROGRAM                        *
*                                 Julian Gale                                  *
*                       Curtin Institute for Computation                       *
*                    School of Molecular and Life Sciences                     *
*                    Curtin University, Western Australia                      *
********************************************************************************
* Version = 5.2.0 * Last modified =  10th September 2020                       *
********************************************************************************
*  optimise     - perform optimisation run                                     *
*  conp         - constant pressure calculation                                *
*  property     - calculate properties for final geometry                      *
*  defect       - perform defect calculation after bulk run                    *
*  compare      - compare initial and final structures                         *
********************************************************************************

  Job Started  at 14:50.29  1st December   2020                               

  Number of CPUs =     1


  Total number of configurations input =      1

********************************************************************************
*  Input for Configuration =   1                                               *
********************************************************************************

  Formula = ClONa3                                                      

  Number of irreducible atoms/shells =       5


  Total number atoms/shells =       7

  Dimensionality = 3               :  Bulk   


  Symmetry :

  Crystal family                   :  Cubic       
  Crystal class  (Groth - 1921)    :  Cubic Hexakisoctahedral              

  Space group (centrosymmetric)    :  P M 3 M         

  Patterson group                  :  P m -3 m 

  Cartesian lattice vectors (Angstroms) :

        4.504000    0.000000    0.000000
        0.000000    4.504000    0.000000
        0.000000    0.000000    4.504000

  Cell parameters (Angstroms/Degrees):

  a =       4.5040    alpha =  90.0000
  b =       4.5040    beta  =  90.0000
  c =       4.5040    gamma =  90.0000

  Initial cell volume =          91.368216 Angs**3

  Temperature of configuration =   0.00     K 

  Pressure of configuration =         0.000 GPa 

  Fractional coordinates of asymmetric unit :

--------------------------------------------------------------------------------
   No.  Atomic       x           y          z         Charge      Occupancy
        Label      (Frac)      (Frac)     (Frac)        (e)         (Frac)  
--------------------------------------------------------------------------------
      1 Cl    c    0.000000    0.000000    0.000000     1.48500    1.000000    
      2 O     c    0.500000    0.500000    0.500000     0.18300    1.000000    
      3 Na    c    0.500000    0.500000    0.000000     1.00000    1.000000    
      4 Cl    s    0.000000    0.000000    0.000000    -2.48500    1.000000    
      5 O     s    0.500000    0.500000    0.500000    -2.18300    1.000000    
--------------------------------------------------------------------------------


  Constraints : 

--------------------------------------------------------------------------------
  Constraint no.      Unconstrained     Constrained    Coefficient    Offset
                         Variable         Variable
--------------------------------------------------------------------------------
           1              Strain 1        Strain 2       1.00000      0.0000
           2              Strain 1        Strain 3       1.00000      0.0000
--------------------------------------------------------------------------------


********************************************************************************
*  General input information                                                   *
********************************************************************************

  Species output for all configurations : 

--------------------------------------------------------------------------------
  Species    Type    Atomic    Atomic    Charge       Radii (Angs)     Library
                     Number     Mass       (e)     Cova   Ionic  VDW   Symbol
--------------------------------------------------------------------------------
    Na       Core       11      22.99   1.000000   0.970  0.000  2.300          
    O        Core        8      16.00   0.183000   0.730  0.000  1.360          
    O        Shell       8       0.00  -2.183000   0.730  0.000  1.360          
    Cl       Core       17      35.45   1.485000   0.990  0.000  1.650          
    Cl       Shell      17       0.00  -2.485000   0.990  0.000  1.650          
    Mg       Core       12      24.31   0.415000   1.100  0.000  0.000          
    Mg       Shell      12       0.00   1.585000   1.100  0.000  0.000          
    Ca       Core       20      40.08  -1.135000   0.990  0.000  0.000          
    Ca       Shell      20       0.00   3.135000   0.990  0.000  0.000          
    Sr       Core       38      87.62  -1.251000   1.120  0.000  0.000          
    Sr       Shell      38       0.00   3.251000   1.120  0.000  0.000          
    Ba       Core       56     137.33  -7.203000   1.340  0.000  0.000          
    Ba       Shell      56       0.00   9.203000   1.340  0.000  0.000          
--------------------------------------------------------------------------------


  Lattice summation method               =    Ewald          (3-D)
                                         =    Parry          (2-D)
                                         =    Saunders et al (1-D)
  Accuracy factor for lattice sums       =   12.000


  Analytic derivatives to be used

  Time limit = Infinity

  Maximum range for interatomic potentials =    100000.000000 Angstroms

  General interatomic potentials :

--------------------------------------------------------------------------------
Atom  Types   Potential      Parameter       Value         Units   Cutoffs(Ang)
  1     2                                                            Min /  Max 
--------------------------------------------------------------------------------
O    c O    s Spring (c-s)  Spring k 2       593.71600    eV*Ang^-2 0.000  0.800
                            Spring k 4       0.0000000    eV*Ang^-4 
--------------------------------------------------------------------------------
Cl   c Cl   s Spring (c-s)  Spring k 2       29.380000    eV*Ang^-2 0.000  0.800
                            Spring k 4       0.0000000    eV*Ang^-4 
--------------------------------------------------------------------------------
Mg   c Mg   s Spring (c-s)  Spring k 2       361.60000    eV*Ang^-2 0.000  0.800
                            Spring k 4       0.0000000    eV*Ang^-4 
--------------------------------------------------------------------------------
Ca   c Ca   s Spring (c-s)  Spring k 2       110.20000    eV*Ang^-2 0.000  0.800
                            Spring k 4       0.0000000    eV*Ang^-4 
--------------------------------------------------------------------------------
Sr   c Sr   s Spring (c-s)  Spring k 2       71.700000    eV*Ang^-2 0.000  0.800
                            Spring k 4       0.0000000    eV*Ang^-4 
--------------------------------------------------------------------------------
Ba   c Ba   s Spring (c-s)  Spring k 2       495.20000    eV*Ang^-2 0.000  0.800
                            Spring k 4       0.0000000    eV*Ang^-4 
--------------------------------------------------------------------------------
Na   c Na   c Buckingham    Buckingham A     1788.1900    eV        0.000 12.000
                            Buckingham rho  0.15900000    Ang       
                            Buckingham C     0.0000000    eV*Ang^6  
--------------------------------------------------------------------------------
Na   c O    s Buckingham    Buckingham A     1226.8400    eV        0.000 12.000
                            Buckingham rho  0.30700000    Ang       
                            Buckingham C     0.0000000    eV*Ang^6  
--------------------------------------------------------------------------------
Na   c Cl   s Buckingham    Buckingham A     2314.7000    eV        0.000 12.000
                            Buckingham rho  0.29000000    Ang       
                            Buckingham C     0.0000000    eV*Ang^6  
--------------------------------------------------------------------------------
O    s O    s Buckingham    Buckingham A     22764.300    eV        0.000 12.000
                            Buckingham rho  0.14900000    Ang       
                            Buckingham C     13.190000    eV*Ang^6  
--------------------------------------------------------------------------------
O    s Cl   s Buckingham    Buckingham A     8286.9100    eV        0.000 12.000
                            Buckingham rho  0.25900000    Ang       
                            Buckingham C     62.200000    eV*Ang^6  
--------------------------------------------------------------------------------
Cl   s Cl   s Buckingham    Buckingham A     1227.2000    eV        0.000 12.000
                            Buckingham rho  0.32100000    Ang       
                            Buckingham C     14.530000    eV*Ang^6  
--------------------------------------------------------------------------------
O    s Mg   s Buckingham    Buckingham A     1428.5000    eV        0.000 12.000
                            Buckingham rho  0.29450000    Ang       
                            Buckingham C     0.0000000    eV*Ang^6  
--------------------------------------------------------------------------------
Mg   s Cl   s Buckingham    Buckingham A     4914.5400    eV        0.000 12.000
                            Buckingham rho  0.25700000    Ang       
                            Buckingham C     0.0000000    eV*Ang^6  
--------------------------------------------------------------------------------
O    s Ca   s Buckingham    Buckingham A     1090.4000    eV        0.000 12.000
                            Buckingham rho  0.34370000    Ang       
                            Buckingham C     0.0000000    eV*Ang^6  
--------------------------------------------------------------------------------
Cl   s Ca   s Buckingham    Buckingham A     2302.0000    eV        0.000 12.000
                            Buckingham rho  0.34020000    Ang       
                            Buckingham C     0.0000000    eV*Ang^6  
--------------------------------------------------------------------------------
O    s Sr   s Buckingham    Buckingham A     959.10000    eV        0.000 12.000
                            Buckingham rho  0.37210000    Ang       
                            Buckingham C     0.0000000    eV*Ang^6  
--------------------------------------------------------------------------------
Cl   s Sr   s Buckingham    Buckingham A     2191.0900    eV        0.000 12.000
                            Buckingham rho  0.34570000    Ang       
                            Buckingham C     0.0000000    eV*Ang^6  
--------------------------------------------------------------------------------
O    s Ba   s Buckingham    Buckingham A     905.70000    eV        0.000 12.000
                            Buckingham rho  0.39760000    Ang       
                            Buckingham C     0.0000000    eV*Ang^6  
--------------------------------------------------------------------------------
Cl   s Ba   s Buckingham    Buckingham A     2704.5500    eV        0.000 12.000
                            Buckingham rho  0.35280000    Ang       
                            Buckingham C     0.0000000    eV*Ang^6  
--------------------------------------------------------------------------------

********************************************************************************
*  Output for configuration   1                                                *
********************************************************************************


  Components of energy : 

--------------------------------------------------------------------------------
  Interatomic potentials     =           5.13022605 eV    
  Monopole - monopole (real) =         -10.03624526 eV    
  Monopole - monopole (recip)=         -29.53581274 eV    
  Monopole - monopole (total)=         -39.57205800 eV    
--------------------------------------------------------------------------------
  Total lattice energy       =         -34.44183194 eV    
--------------------------------------------------------------------------------
  Total lattice energy       =           -3323.1103 kJ/(mole unit cells)
--------------------------------------------------------------------------------


  Number of variables =        1

  Maximum number of calculations  =          1000
  Maximum Hessian update interval =            10
  Maximum step size               =   1.000000000
  Maximum parameter tolerance     =   0.000010000
  Maximum function  tolerance     =   0.000010000
  Maximum gradient  tolerance     =   0.001000000
  Maximum gradient  component     =   0.010000000

  Symmetry constrained optimisation

  Symmetry used for second derivatives

  Cell parameters to be optimised using strains

  Newton-Raphson optimiser to be used

  BFGS hessian update to be used

  Lower half triangular hessian to be used

  Start of bulk optimisation :

  Cycle:      0 Energy:       -34.441832  Gnorm:      0.196570  CPU:    0.015
  ** Hessian calculated **
  Cycle:      1 Energy:       -34.441914  Gnorm:      0.000103  CPU:    0.018


  **** Optimisation achieved ****


  Final energy =     -34.44191447 eV
  Final Gnorm  =       0.00000000

  Components of energy : 

--------------------------------------------------------------------------------
  Interatomic potentials     =           5.09689708 eV    
  Monopole - monopole (real) =         -10.02781331 eV    
  Monopole - monopole (recip)=         -29.51099824 eV    
  Monopole - monopole (total)=         -39.53881155 eV    
--------------------------------------------------------------------------------
  Total lattice energy       =         -34.44191447 eV    
--------------------------------------------------------------------------------
  Total lattice energy       =           -3323.1183 kJ/(mole unit cells)
--------------------------------------------------------------------------------

  Final asymmetric unit coordinates :

--------------------------------------------------------------------------------
   No.  Atomic        x           y           z         Radius
        Label       (Frac)      (Frac)      (Frac)       (Angs) 
--------------------------------------------------------------------------------
     1  Cl    c     0.000000    0.000000    0.000000    0.000000
     2  O     c     0.500000    0.500000    0.500000    0.000000
     3  Na    c     0.500000    0.500000    0.000000    0.000000
     4  Cl    s     0.000000    0.000000    0.000000    0.000000
     5  O     s     0.500000    0.500000    0.500000    0.000000
--------------------------------------------------------------------------------

  Final Cartesian lattice vectors (Angstroms) :

        4.507787    0.000000    0.000000
        0.000000    4.507787    0.000000
        0.000000    0.000000    4.507787


  Final cell parameters and derivatives :

--------------------------------------------------------------------------------
       a            4.507787 Angstrom     dE/de1(xx)     0.000000 eV/strain
       b            4.507787 Angstrom     dE/de2(yy)     0.000000 eV/strain
       c            4.507787 Angstrom     dE/de3(zz)     0.000000 eV/strain
       alpha       90.000000 Degrees      dE/de4(yz)     0.000000 eV/strain
       beta        90.000000 Degrees      dE/de5(xz)     0.000000 eV/strain
       gamma       90.000000 Degrees      dE/de6(xy)     0.000000 eV/strain
--------------------------------------------------------------------------------

  Primitive cell volume =            91.598892 Angs**3

  Density of cell =      2.183054 g/cm**3

  Non-primitive cell volume =            91.598892 Angs**3


  Final internal derivatives :

--------------------------------------------------------------------------------
   No.  Atomic          a             b             c           Radius
        Label          (eV)          (eV)          (eV)        (eV/Angs)
--------------------------------------------------------------------------------
      1 Cl    c       0.000000      0.000000      0.000000      0.000000
      2 O     c       0.000000      0.000000      0.000000      0.000000
      3 Na    c       0.000000      0.000000      0.000000      0.000000
      4 Cl    s       0.000000      0.000000      0.000000      0.000000
      5 O     s       0.000000      0.000000      0.000000      0.000000
--------------------------------------------------------------------------------
  Maximum abs         0.000000      0.000000      0.000000      0.000000
--------------------------------------------------------------------------------

  Comparison of initial and final structures : 

--------------------------------------------------------------------------------
  Parameter   Initial value   Final value   Difference    Units      Percent
--------------------------------------------------------------------------------
    Volume        91.368216     91.598892     0.230676    Angs**3      0.25
    a              4.504000      4.507787     0.003787    Angstroms    0.08
    b              4.504000      4.507787     0.003787    Angstroms    0.08
    c              4.504000      4.507787     0.003787    Angstroms    0.08
    alpha         90.000000     90.000000     0.000000    Degrees      0.00
    beta          90.000000     90.000000     0.000000    Degrees      0.00
    gamma         90.000000     90.000000     0.000000    Degrees      0.00
      1 x          0.000000      0.000000     0.000000    Fractional   0.00
      1 y          0.000000      0.000000     0.000000    Fractional   0.00
      1 z          0.000000      0.000000     0.000000    Fractional   0.00
      2 x          0.500000      0.500000     0.000000    Fractional   0.00
      2 y          0.500000      0.500000     0.000000    Fractional   0.00
      2 z          0.500000      0.500000     0.000000    Fractional   0.00
      3 x          0.500000      0.500000     0.000000    Fractional   0.00
      3 y          0.500000      0.500000     0.000000    Fractional   0.00
      3 z          0.000000      0.000000     0.000000    Fractional   0.00
      4 x          0.000000      0.000000     0.000000    Fractional   0.00
      4 y          0.000000      0.000000     0.000000    Fractional   0.00
      4 z          0.000000      0.000000     0.000000    Fractional   0.00
      5 x          0.500000      0.500000     0.000000    Fractional   0.00
      5 y          0.500000      0.500000     0.000000    Fractional   0.00
      5 z          0.500000      0.500000     0.000000    Fractional   0.00
--------------------------------------------------------------------------------


  Born effective charge tensors : 

-------------------------------------------------------------------------------
  Atom             x           y             z
-------------------------------------------------------------------------------
    1 Cl    x      -1.0181     -0.0000      0.0000
            y      -0.0000     -1.0181      0.0000
            z       0.0000      0.0000     -1.0181
-------------------------------------------------------------------------------
    2 O     x      -2.2647      0.0000     -0.0000
            y       0.0000     -2.2647     -0.0000
            z      -0.0000     -0.0000     -2.2647
-------------------------------------------------------------------------------
    3 Na    x       1.2258     -0.0000      0.0000
            y      -0.0000      1.2258     -0.0000
            z       0.0000     -0.0000      0.8313
-------------------------------------------------------------------------------




  Elastic Constant Matrix: (Units=GPa)

-------------------------------------------------------------------------------
  Indices      1         2         3         4         5         6    
-------------------------------------------------------------------------------
       1     95.8177   20.0737   20.0737   -0.0000   -0.0000    0.0000
       2     20.0737   95.8177   20.0737   -0.0000   -0.0000    0.0000
       3     20.0737   20.0737   95.8177   -0.0000   -0.0000    0.0000
       4     -0.0000   -0.0000   -0.0000   20.0737   -0.0000    0.0000
       5     -0.0000   -0.0000   -0.0000   -0.0000   20.0737    0.0000
       6      0.0000    0.0000    0.0000    0.0000    0.0000   20.0737
-------------------------------------------------------------------------------


  Elastic Compliance Matrix: (Units=1/GPa)

-------------------------------------------------------------------------------
  Indices      1         2         3         4         5         6    
-------------------------------------------------------------------------------
       1    0.011253 -0.001949 -0.001949  0.000000  0.000000 -0.000000
       2   -0.001949  0.011253 -0.001949  0.000000  0.000000  0.000000
       3   -0.001949 -0.001949  0.011253  0.000000  0.000000 -0.000000
       4    0.000000  0.000000  0.000000  0.049816  0.000000 -0.000000
       5    0.000000  0.000000  0.000000  0.000000  0.049816 -0.000000
       6   -0.000000  0.000000 -0.000000 -0.000000 -0.000000  0.049816
-------------------------------------------------------------------------------

  Mechanical properties :

-------------------------------------------------------------------------------
  Convention :                    Reuss         Voigt         Hill
-------------------------------------------------------------------------------
  Bulk  Modulus (GPa)     =      45.32174      45.32174      45.32174
  Shear Modulus (GPa)     =      24.72085      27.19304      25.95695
-------------------------------------------------------------------------------
  Velocity S-wave (km/s)  =       3.36511       3.52937       3.44822
  Velocity P-wave (km/s)  =       5.98827       6.11304       6.05098
-------------------------------------------------------------------------------
  Compressibility (1/GPa) =    0.02206447
-------------------------------------------------------------------------------
  Stress axis :                     x             y             z
-------------------------------------------------------------------------------
  Youngs Moduli (GPa)     =      88.86373      88.86373      88.86373
-------------------------------------------------------------------------------
  Poissons Ratio (x)      =                     0.17321       0.17321
  Poissons Ratio (y)      =       0.17321                     0.17321
  Poissons Ratio (z)      =       0.17321       0.17321
-------------------------------------------------------------------------------


  Piezoelectric Strain Matrix: (Units=C/m**2)

-------------------------------------------------------------------------------
  Indices      1         2         3         4         5         6    
-------------------------------------------------------------------------------
       x    -0.00000  -0.00000  -0.00000   0.00000  -0.00000  -0.00000
       y    -0.00000  -0.00000   0.00000  -0.00000   0.00000   0.00000
       z    -0.00000  -0.00000  -0.00000  -0.00000   0.00000   0.00000
-------------------------------------------------------------------------------


  Piezoelectric Stress Matrix: (Units=10**-11 C/N)

-------------------------------------------------------------------------------
  Indices      1         2         3         4         5         6    
-------------------------------------------------------------------------------
       x    -0.00000   0.00000   0.00000   0.00000  -0.00000  -0.00000
       y    -0.00000  -0.00000   0.00000  -0.00000   0.00000   0.00000
       z     0.00000   0.00000  -0.00000  -0.00000   0.00000   0.00000
-------------------------------------------------------------------------------


  Static dielectric constant tensor : 

-------------------------------------------------------------------------------
              x         y         z
-------------------------------------------------------------------------------
       x    22.84729   0.00000   0.00000
       y     0.00000  22.84729  -0.00000
       z     0.00000  -0.00000  22.84729
--------------------------------------------------------------------------------

  High frequency dielectric constant tensor : 

-------------------------------------------------------------------------------
              x         y         z
-------------------------------------------------------------------------------
       x     1.47557   0.00000  -0.00000
       y     0.00000   1.47557  -0.00000
       z    -0.00000  -0.00000   1.47557
-------------------------------------------------------------------------------

  Static refractive indices : 

-------------------------------------------------------------------------------
    1 =    4.77988      2 =    4.77988      3 =    4.77988
-------------------------------------------------------------------------------

  High frequency refractive indices : 

-------------------------------------------------------------------------------
    1 =    1.21473      2 =    1.21473      3 =    1.21473
-------------------------------------------------------------------------------


  Time to end of optimisation =       0.0271 seconds

********************************************************************************
*  Defect calculation for configuration   1 :                                  *
********************************************************************************

  Total number of defects =      3

  Total charge on defect  =  -1.00

  Defect centre is at   0.5000   0.2500   0.2500  Frac

  Region 1 radius =  15.0000      Number of ions =   1071

  Number of symmetry inequivalent region 1 ions  =    336

  Region 2 radius =  20.0000      Number of ions =   1538

  Number of symmetry inequivalent region 2a ions =    438

  Region 2a mode = 4 : screened electrostatics due to region 1 
                       neglect correction to region 1 forces from 2a
                       region 2a displacements based on defects only

  Region 2a ions will only interact with defects in region 1

  Vacancies:

--------------------------------------------------------------------------------
    Specification type     Symbol/Number         x          y          z
--------------------------------------------------------------------------------
    Fractional                               0.500000   0.500000   0.000000
    Fractional                               0.500000   0.000000   0.500000
--------------------------------------------------------------------------------

  Interstitials:

--------------------------------------------------------------------------------
    Specification type     Symbol/Number         x          y          z
--------------------------------------------------------------------------------
    Atom/Fractional         Na               0.500000   0.250000   0.250000
--------------------------------------------------------------------------------


  Symmetry reduced region 1 (Relative to defect centre) :

--------------------------------------------------------------------------------
   No.   Atomic       x            y             z       Radius  Multiplicity   
         Label      (Angs)       (Angs)        (Angs)    (Angs)     
--------------------------------------------------------------------------------
     1  Na    c      0.0000       0.0000       0.0000    0.0000     1    Defect
     2  O     c      0.0000       1.1269 *     1.1269    0.0000     1          
     3  Cl    c      2.2539 *    -1.1269 *    -1.1269    0.0000     2          
     4  Na    c      2.2539 *     1.1269 *     1.1269    0.0000     2          
     5  O     c      0.0000       1.1269 *    -3.3808 *  0.0000     2          
     6  Na    c      0.0000       1.1269 *     3.3808 *  0.0000     2          
     7  Na    c      0.0000      -3.3808 *    -1.1269 *  0.0000     2          
     8  Cl    c      2.2539 *    -1.1269 *     3.3808 *  0.0000     4          
     9  Na    c      2.2539 *     1.1269 *    -3.3808 *  0.0000     4          
    10  O     c     -4.5078 *     1.1269 *     1.1269    0.0000     2          
    11  Na    c     -4.5078 *     1.1269 *    -1.1269 *  0.0000     4          
    12  O     c      0.0000      -3.3808 *    -3.3808    0.0000     1          
    13  Na    c      0.0000      -3.3808 *     3.3808 *  0.0000     2          
    14  Cl    c      2.2539 *     3.3808 *     3.3808    0.0000     2          
    15  Na    c      2.2539 *    -3.3808 *    -3.3808    0.0000     2          
    16  O     c      0.0000       1.1269 *     5.6347 *  0.0000     2          
    17  Na    c      0.0000       1.1269 *    -5.6347 *  0.0000     2          
    18  Na    c      0.0000       5.6347 *    -1.1269 *  0.0000     2          
    19  O     c     -4.5078 *     1.1269 *    -3.3808 *  0.0000     4          
    20  Na    c     -4.5078 *     1.1269 *     3.3808 *  0.0000     4          
    21  Na    c     -4.5078 *    -3.3808 *    -1.1269 *  0.0000     4          
    22  Cl    c      2.2539 *    -1.1269 *    -5.6347 *  0.0000     4          
    23  Na    c      2.2539 *     1.1269 *     5.6347 *  0.0000     4          
    24  O     c      0.0000       5.6347 *    -3.3808 *  0.0000     2          
    25  Na    c      0.0000       5.6347 *     3.3808 *  0.0000     2          
    26  Na    c      0.0000      -3.3808 *    -5.6347 *  0.0000     2          
    27  O     c      4.5078 *    -3.3808 *    -3.3808    0.0000     2          
    28  Na    c      4.5078 *    -3.3808 *     3.3808 *  0.0000     4          
    29  Cl    c      2.2539 *     3.3808 *    -5.6347 *  0.0000     4          
    30  Na    c      2.2539 *     5.6347 *    -3.3808 *  0.0000     4          
    31  Cl    c      6.7617 *    -1.1269 *    -1.1269    0.0000     2          
    32  Na    c      6.7617 *     1.1269 *     1.1269    0.0000     2          
    33  O     c     -4.5078 *     1.1269 *     5.6347 *  0.0000     4          
    34  Na    c     -4.5078 *     1.1269 *    -5.6347 *  0.0000     4          
    35  Na    c     -4.5078 *    -1.1269 *     5.6347 *  0.0000     4          
    36  Cl    c      6.7617 *    -1.1269 *     3.3808 *  0.0000     4          
    37  Na    c      6.7617 *     1.1269 *    -3.3808 *  0.0000     4          
    38  O     c      0.0000       5.6347 *     5.6347    0.0000     1          
    39  Na    c      0.0000       5.6347 *    -5.6347 *  0.0000     2          
    40  O     c     -4.5078 *    -3.3808 *     5.6347 *  0.0000     4          
    41  Na    c     -4.5078 *    -3.3808 *    -5.6347 *  0.0000     4          
    42  Na    c     -4.5078 *     3.3808 *     5.6347 *  0.0000     4          
    43  O     c      0.0000       1.1269 *    -7.8886 *  0.0000     2          
    44  Na    c      0.0000       1.1269 *     7.8886 *  0.0000     2          
    45  Na    c      0.0000      -7.8886 *    -1.1269 *  0.0000     2          
    46  Cl    c      2.2539 *    -5.6347 *    -5.6347    0.0000     2          
    47  Na    c      2.2539 *     5.6347 *     5.6347    0.0000     2          
    48  Cl    c      2.2539 *    -1.1269 *     7.8886 *  0.0000     4          
    49  Na    c      2.2539 *     1.1269 *    -7.8886 *  0.0000     4          
    50  Cl    c      6.7617 *     3.3808 *     3.3808    0.0000     2          
    51  Na    c      6.7617 *    -3.3808 *    -3.3808    0.0000     2          
    52  O     c      0.0000      -3.3808 *    -7.8886 *  0.0000     2          
    53  Na    c      0.0000      -3.3808 *     7.8886 *  0.0000     2          
    54  Na    c      0.0000      -7.8886 *     3.3808 *  0.0000     2          
    55  Cl    c      2.2539 *     3.3808 *     7.8886 *  0.0000     4          
    56  Cl    c      6.7617 *    -1.1269 *    -5.6347 *  0.0000     4          
    57  Na    c      2.2539 *    -3.3808 *    -7.8886 *  0.0000     4          
    58  Na    c      6.7617 *     1.1269 *     5.6347 *  0.0000     4          
    59  O     c      4.5078 *     5.6347 *     5.6347    0.0000     2          
    60  O     c      4.5078 *    -7.8886 *     1.1269 *  0.0000     4          
    61  O     c      9.0156 *     1.1269 *     1.1269    0.0000     2          
    62  Na    c      4.5078 *     5.6347 *    -5.6347 *  0.0000     4          
    63  Na    c      4.5078 *    -7.8886 *    -1.1269 *  0.0000     4          
    64  Na    c      9.0156 *     1.1269 *    -1.1269 *  0.0000     4          
    65  Na    c     -4.5078 *     1.1269 *     7.8886 *  0.0000     4          
    66  Cl    c      6.7617 *     3.3808 *    -5.6347 *  0.0000     4          
    67  Na    c      6.7617 *    -3.3808 *     5.6347 *  0.0000     4          
    68  O     c      0.0000       5.6347 *    -7.8886 *  0.0000     2          
    69  O     c      9.0156 *    -3.3808 *     1.1269 *  0.0000     4          
    70  O     c     -4.5078 *    -3.3808 *    -7.8886 *  0.0000     4          
    71  Na    c      0.0000       5.6347 *     7.8886 *  0.0000     2          
    72  Na    c      0.0000      -7.8886 *    -5.6347 *  0.0000     2          
    73  Na    c      9.0156 *    -3.3808 *    -1.1269 *  0.0000     4          
    74  Na    c     -4.5078 *    -3.3808 *     7.8886 *  0.0000     4          
    75  Na    c      9.0156 *     3.3808 *     1.1269 *  0.0000     4          
    76  Na    c     -4.5078 *     3.3808 *    -7.8886 *  0.0000     4          
    77  Cl    c      2.2539 *     7.8886 *    -5.6347 *  0.0000     4          
    78  Na    c      2.2539 *     5.6347 *    -7.8886 *  0.0000     4          
    79  O     c      0.0000      10.1425 *     1.1269 *  0.0000     2          
    80  Na    c      0.0000      10.1425 *    -1.1269 *  0.0000     2          
    81  Na    c      0.0000     -10.1425 *     1.1269 *  0.0000     2          
    82  O     c      9.0156 *    -3.3808 *    -3.3808    0.0000     2          
    83  Na    c      9.0156 *    -3.3808 *     3.3808 *  0.0000     4          
    84  Cl    c      6.7617 *    -5.6347 *    -5.6347    0.0000     2          
    85  Na    c      6.7617 *     5.6347 *     5.6347    0.0000     2          
    86  Cl    c      2.2539 *    -1.1269 *   -10.1425 *  0.0000     4          
    87  Cl    c      6.7617 *    -1.1269 *     7.8886 *  0.0000     4          
    88  Na    c      2.2539 *     1.1269 *    10.1425 *  0.0000     4          
    89  Na    c      6.7617 *     1.1269 *    -7.8886 *  0.0000     4          
    90  O     c      4.5078 *     5.6347 *    -7.8886 *  0.0000     4          
    91  O     c      9.0156 *     1.1269 *     5.6347 *  0.0000     4          
    92  Na    c      4.5078 *     5.6347 *     7.8886 *  0.0000     4          
    93  Na    c      4.5078 *    -7.8886 *    -5.6347 *  0.0000     4          
    94  Na    c      9.0156 *     1.1269 *    -5.6347 *  0.0000     4          
    95  Na    c      9.0156 *     5.6347 *    -1.1269 *  0.0000     4          
    96  O     c      0.0000      10.1425 *    -3.3808 *  0.0000     2          
    97  Na    c      0.0000      10.1425 *     3.3808 *  0.0000     2          
    98  Na    c      0.0000      -3.3808 *   -10.1425 *  0.0000     2          
    99  Cl    c      2.2539 *     3.3808 *   -10.1425 *  0.0000     4          
   100  Cl    c      6.7617 *     7.8886 *     3.3808 *  0.0000     4          
   101  Na    c      2.2539 *    10.1425 *    -3.3808 *  0.0000     4          
   102  Na    c      6.7617 *    -7.8886 *    -3.3808 *  0.0000     4          
   103  O     c      9.0156 *    -3.3808 *     5.6347 *  0.0000     4          
   104  O     c     -4.5078 *    10.1425 *     1.1269 *  0.0000     4          
   105  Na    c      9.0156 *    -3.3808 *    -5.6347 *  0.0000     4          
   106  Na    c     -4.5078 *    10.1425 *    -1.1269 *  0.0000     4          
   107  Na    c      9.0156 *     3.3808 *     5.6347 *  0.0000     4          
   108  Na    c     -4.5078 *   -10.1425 *     1.1269 *  0.0000     4          
   109  O     c      0.0000      -7.8886 *    -7.8886    0.0000     1          
   110  Na    c      0.0000      -7.8886 *     7.8886 *  0.0000     2          
   111  Cl    c     11.2695 *    -1.1269 *    -1.1269    0.0000     2          
   112  Na    c     11.2695 *     1.1269 *     1.1269    0.0000     2          
   113  Cl    c      2.2539 *     7.8886 *     7.8886    0.0000     2          
   114  Na    c      2.2539 *    -7.8886 *    -7.8886    0.0000     2          
   115  O     c      0.0000       5.6347 *    10.1425 *  0.0000     2          
   116  O     c     -4.5078 *    10.1425 *    -3.3808 *  0.0000     4          
   117  Na    c      0.0000       5.6347 *   -10.1425 *  0.0000     2          
   118  Na    c      0.0000      10.1425 *    -5.6347 *  0.0000     2          
   119  Na    c     -4.5078 *    10.1425 *     3.3808 *  0.0000     4          
   120  Na    c     -4.5078 *   -10.1425 *    -3.3808 *  0.0000     4          
   121  Cl    c     11.2695 *    -1.1269 *     3.3808 *  0.0000     4          
   122  Na    c     11.2695 *     1.1269 *    -3.3808 *  0.0000     4          
   123  Cl    c      2.2539 *    -5.6347 *   -10.1425 *  0.0000     4          
   124  Cl    c      6.7617 *     7.8886 *    -5.6347 *  0.0000     4          
   125  Na    c      2.2539 *     5.6347 *    10.1425 *  0.0000     4          
   126  Na    c      6.7617 *    -7.8886 *     5.6347 *  0.0000     4          
   127  O     c      9.0156 *     5.6347 *     5.6347    0.0000     2          
   128  O     c      9.0156 *    -7.8886 *     1.1269 *  0.0000     4          
   129  Na    c      9.0156 *     5.6347 *    -5.6347 *  0.0000     4          
   130  Na    c      9.0156 *    -7.8886 *    -1.1269 *  0.0000     4          
   131  Na    c      9.0156 *     7.8886 *     1.1269 *  0.0000     4          
   132  O     c      4.5078 *    -7.8886 *    -7.8886    0.0000     2          
   133  Na    c      4.5078 *    -7.8886 *     7.8886 *  0.0000     4          
   134  Cl    c     11.2695 *     3.3808 *     3.3808    0.0000     2          
   135  Na    c     11.2695 *    -3.3808 *    -3.3808    0.0000     2          
   136  Cl    c      6.7617 *   -10.1425 *    -1.1269 *  0.0000     4          
   137  Na    c      6.7617 *    10.1425 *     1.1269 *  0.0000     4          
   138  O     c      0.0000       1.1269 *   -12.3964 *  0.0000     2          
   139  O     c      9.0156 *    -7.8886 *    -3.3808 *  0.0000     4          
   140  O     c     -4.5078 *    10.1425 *     5.6347 *  0.0000     4          
   141  Na    c      0.0000       1.1269 *    12.3964 *  0.0000     2          
   142  Na    c      0.0000     -12.3964 *    -1.1269 *  0.0000     2          
   143  Na    c      9.0156 *    -7.8886 *     3.3808 *  0.0000     4          
   144  Na    c     -4.5078 *    10.1425 *    -5.6347 *  0.0000     4          
   145  Na    c      9.0156 *     7.8886 *    -3.3808 *  0.0000     4          
   146  Na    c     -4.5078 *   -10.1425 *     5.6347 *  0.0000     4          
   147  Cl    c     11.2695 *    -1.1269 *    -5.6347 *  0.0000     4          
   148  Na    c     11.2695 *     1.1269 *     5.6347 *  0.0000     4          
   149  Cl    c      2.2539 *    -1.1269 *    12.3964 *  0.0000     4          
   150  Cl    c      6.7617 *   -10.1425 *     3.3808 *  0.0000     4          
   151  Na    c      2.2539 *     1.1269 *   -12.3964 *  0.0000     4          
   152  Na    c      6.7617 *    10.1425 *    -3.3808 *  0.0000     4          
   153  O     c      0.0000      -3.3808 *   -12.3964 *  0.0000     2          
   154  Na    c      0.0000      -3.3808 *    12.3964 *  0.0000     2          
   155  Na    c      0.0000     -12.3964 *     3.3808 *  0.0000     2          
   156  O     c      0.0000      10.1425 *    -7.8886 *  0.0000     2          
   157  Na    c      0.0000      10.1425 *     7.8886 *  0.0000     2          
   158  Na    c      0.0000      -7.8886 *   -10.1425 *  0.0000     2          
   159  Cl    c     11.2695 *     3.3808 *    -5.6347 *  0.0000     4          
   160  Na    c     11.2695 *     5.6347 *    -3.3808 *  0.0000     4          
   161  Cl    c      2.2539 *     3.3808 *    12.3964 *  0.0000     4          
   162  Na    c      2.2539 *    -3.3808 *   -12.3964 *  0.0000     4          
   163  Cl    c      2.2539 *     7.8886 *   -10.1425 *  0.0000     4          
   164  Cl    c      6.7617 *     7.8886 *     7.8886    0.0000     2          
   165  Na    c      2.2539 *    10.1425 *    -7.8886 *  0.0000     4          
   166  Na    c      6.7617 *    -7.8886 *    -7.8886    0.0000     2          
   167  O     c      4.5078 *   -12.3964 *     1.1269 *  0.0000     4          
   168  O     c      9.0156 *    -7.8886 *     5.6347 *  0.0000     4          
   169  Na    c      4.5078 *   -12.3964 *    -1.1269 *  0.0000     4          
   170  Na    c      9.0156 *    -7.8886 *    -5.6347 *  0.0000     4          
   171  Na    c     -4.5078 *     1.1269 *    12.3964 *  0.0000     4          
   172  Na    c      9.0156 *     7.8886 *     5.6347 *  0.0000     4          
   173  Cl    c      6.7617 *   -10.1425 *    -5.6347 *  0.0000     4          
   174  Na    c      6.7617 *    10.1425 *     5.6347 *  0.0000     4          
   175  O     c      0.0000       5.6347 *   -12.3964 *  0.0000     2          
   176  O     c      4.5078 *   -12.3964 *    -3.3808 *  0.0000     4          
   177  Na    c      0.0000       5.6347 *    12.3964 *  0.0000     2          
   178  Na    c      0.0000     -12.3964 *    -5.6347 *  0.0000     2          
   179  Na    c      4.5078 *   -12.3964 *     3.3808 *  0.0000     4          
   180  Na    c      4.5078 *    12.3964 *    -3.3808 *  0.0000     4          
   181  O     c      4.5078 *    10.1425 *    -7.8886 *  0.0000     4          
   182  O     c      9.0156 *     1.1269 *    10.1425 *  0.0000     4          
   183  O     c     13.5234 *     1.1269 *     1.1269    0.0000     2          
   184  Na    c      4.5078 *    10.1425 *     7.8886 *  0.0000     4          
   185  Na    c      4.5078 *    -7.8886 *   -10.1425 *  0.0000     4          
   186  Na    c      9.0156 *     1.1269 *   -10.1425 *  0.0000     4          
   187  Na    c      9.0156 *    10.1425 *    -1.1269 *  0.0000     4          
   188  Na    c     13.5234 *     1.1269 *    -1.1269 *  0.0000     4          
   189  Cl    c     11.2695 *    -5.6347 *    -5.6347    0.0000     2          
   190  Na    c     11.2695 *     5.6347 *     5.6347    0.0000     2          
   191  Cl    c      2.2539 *    12.3964 *    -5.6347 *  0.0000     4          
   192  Cl    c     11.2695 *    -1.1269 *     7.8886 *  0.0000     4          
   193  Na    c      2.2539 *     5.6347 *   -12.3964 *  0.0000     4          
   194  Na    c     11.2695 *     1.1269 *    -7.8886 *  0.0000     4          
   195  O     c      9.0156 *    10.1425 *    -3.3808 *  0.0000     4          
   196  O     c     13.5234 *     1.1269 *    -3.3808 *  0.0000     4          
   197  Na    c      9.0156 *    10.1425 *     3.3808 *  0.0000     4          
   198  Na    c      9.0156 *    -3.3808 *   -10.1425 *  0.0000     4          
   199  Na    c     13.5234 *     1.1269 *     3.3808 *  0.0000     4          
   200  Na    c     13.5234 *    -3.3808 *    -1.1269 *  0.0000     4          
   201  Cl    c      6.7617 *    12.3964 *    -1.1269 *  0.0000     4          
   202  Cl    c     11.2695 *     3.3808 *     7.8886 *  0.0000     4          
   203  Na    c      6.7617 *   -12.3964 *     1.1269 *  0.0000     4          
   204  Na    c     11.2695 *    -3.3808 *    -7.8886 *  0.0000     4          
   205  O     c      4.5078 *   -12.3964 *     5.6347 *  0.0000     4          
   206  Na    c      4.5078 *   -12.3964 *    -5.6347 *  0.0000     4          
   207  Na    c      4.5078 *    12.3964 *     5.6347 *  0.0000     4          
   208  O     c      0.0000      10.1425 *    10.1425    0.0000     1          
   209  O     c      9.0156 *    -7.8886 *    -7.8886    0.0000     2          
   210  O     c     13.5234 *    -3.3808 *    -3.3808    0.0000     2          
   211  Na    c      0.0000      10.1425 *   -10.1425 *  0.0000     2          
   212  Na    c      9.0156 *    -7.8886 *     7.8886 *  0.0000     4          
   213  Na    c     13.5234 *    -3.3808 *     3.3808 *  0.0000     4          
   214  Cl    c      6.7617 *    12.3964 *     3.3808 *  0.0000     4          
   215  Na    c      6.7617 *   -12.3964 *    -3.3808 *  0.0000     4          
   216  Cl    c      2.2539 *   -10.1425 *   -10.1425    0.0000     2          
   217  Cl    c      6.7617 *     7.8886 *   -10.1425 *  0.0000     4          
   218  Na    c      2.2539 *    10.1425 *    10.1425    0.0000     2          
   219  Na    c      6.7617 *    10.1425 *    -7.8886 *  0.0000     4          
   220  O     c      0.0000       1.1269 *    14.6503 *  0.0000     2          
   221  Na    c      0.0000       1.1269 *   -14.6503 *  0.0000     2          
   222  Na    c      0.0000      14.6503 *    -1.1269 *  0.0000     2          
   223  O     c      0.0000      -7.8886 *   -12.3964 *  0.0000     2          
   224  O     c      9.0156 *     5.6347 *    10.1425 *  0.0000     4          
   225  O     c     13.5234 *     1.1269 *     5.6347 *  0.0000     4          
   226  Na    c      0.0000      -7.8886 *    12.3964 *  0.0000     2          
   227  Na    c      0.0000     -12.3964 *     7.8886 *  0.0000     2          
   228  Na    c      9.0156 *     5.6347 *   -10.1425 *  0.0000     4          
   229  Na    c      9.0156 *    10.1425 *    -5.6347 *  0.0000     4          
   230  Na    c     13.5234 *     1.1269 *    -5.6347 *  0.0000     4          
   231  Na    c     13.5234 *     5.6347 *    -1.1269 *  0.0000     4          
   232  Cl    c      2.2539 *    -1.1269 *   -14.6503 *  0.0000     4          
   233  Cl    c     11.2695 *     7.8886 *    -5.6347 *  0.0000     4          
   234  Na    c      2.2539 *     1.1269 *    14.6503 *  0.0000     4          
   235  Na    c     11.2695 *     5.6347 *    -7.8886 *  0.0000     4          
   236  Cl    c      2.2539 *     7.8886 *    12.3964 *  0.0000     4          
   237  Na    c      2.2539 *    -7.8886 *   -12.3964 *  0.0000     4          
   238  O     s      0.0000       1.1269 *     1.1269    0.0000     1          
   239  Cl    s      2.2539 *    -1.1269 *    -1.1269    0.0000     2          
   240  O     s      0.0000       1.1269 *    -3.3808 *  0.0000     2          
   241  Cl    s      2.2539 *    -1.1269 *     3.3808 *  0.0000     4          
   242  O     s     -4.5078 *     1.1269 *     1.1269    0.0000     2          
   243  O     s      0.0000      -3.3808 *    -3.3808    0.0000     1          
   244  Cl    s      2.2539 *     3.3808 *     3.3808    0.0000     2          
   245  O     s      0.0000       1.1269 *     5.6347 *  0.0000     2          
   246  O     s     -4.5078 *     1.1269 *    -3.3808 *  0.0000     4          
   247  Cl    s      2.2539 *    -1.1269 *    -5.6347 *  0.0000     4          
   248  O     s      0.0000       5.6347 *    -3.3808 *  0.0000     2          
   249  O     s      4.5078 *    -3.3808 *    -3.3808    0.0000     2          
   250  Cl    s      2.2539 *     3.3808 *    -5.6347 *  0.0000     4          
   251  Cl    s      6.7617 *    -1.1269 *    -1.1269    0.0000     2          
   252  O     s     -4.5078 *     1.1269 *     5.6347 *  0.0000     4          
   253  Cl    s      6.7617 *    -1.1269 *     3.3808 *  0.0000     4          
   254  O     s      0.0000       5.6347 *     5.6347    0.0000     1          
   255  O     s     -4.5078 *    -3.3808 *     5.6347 *  0.0000     4          
   256  O     s      0.0000       1.1269 *    -7.8886 *  0.0000     2          
   257  Cl    s      2.2539 *    -5.6347 *    -5.6347    0.0000     2          
   258  Cl    s      2.2539 *    -1.1269 *     7.8886 *  0.0000     4          
   259  Cl    s      6.7617 *     3.3808 *     3.3808    0.0000     2          
   260  O     s      0.0000      -3.3808 *    -7.8886 *  0.0000     2          
   261  Cl    s      2.2539 *     3.3808 *     7.8886 *  0.0000     4          
   262  Cl    s      6.7617 *    -1.1269 *    -5.6347 *  0.0000     4          
   263  O     s      4.5078 *     5.6347 *     5.6347    0.0000     2          
   264  O     s      4.5078 *    -7.8886 *     1.1269 *  0.0000     4          
   265  O     s      9.0156 *     1.1269 *     1.1269    0.0000     2          
   266  Cl    s      6.7617 *     3.3808 *    -5.6347 *  0.0000     4          
   267  O     s      0.0000       5.6347 *    -7.8886 *  0.0000     2          
   268  O     s      9.0156 *    -3.3808 *     1.1269 *  0.0000     4          
   269  O     s     -4.5078 *    -3.3808 *    -7.8886 *  0.0000     4          
   270  Cl    s      2.2539 *     7.8886 *    -5.6347 *  0.0000     4          
   271  O     s      0.0000      10.1425 *     1.1269 *  0.0000     2          
   272  O     s      9.0156 *    -3.3808 *    -3.3808    0.0000     2          
   273  Cl    s      6.7617 *    -5.6347 *    -5.6347    0.0000     2          
   274  Cl    s      2.2539 *    -1.1269 *   -10.1425 *  0.0000     4          
   275  Cl    s      6.7617 *    -1.1269 *     7.8886 *  0.0000     4          
   276  O     s      4.5078 *     5.6347 *    -7.8886 *  0.0000     4          
   277  O     s      9.0156 *     1.1269 *     5.6347 *  0.0000     4          
   278  O     s      0.0000      10.1425 *    -3.3808 *  0.0000     2          
   279  Cl    s      2.2539 *     3.3808 *   -10.1425 *  0.0000     4          
   280  Cl    s      6.7617 *     7.8886 *     3.3808 *  0.0000     4          
   281  O     s      9.0156 *    -3.3808 *     5.6347 *  0.0000     4          
   282  O     s     -4.5078 *    10.1425 *     1.1269 *  0.0000     4          
   283  O     s      0.0000      -7.8886 *    -7.8886    0.0000     1          
   284  Cl    s     11.2695 *    -1.1269 *    -1.1269    0.0000     2          
   285  Cl    s      2.2539 *     7.8886 *     7.8886    0.0000     2          
   286  O     s      0.0000       5.6347 *    10.1425 *  0.0000     2          
   287  O     s     -4.5078 *    10.1425 *    -3.3808 *  0.0000     4          
   288  Cl    s     11.2695 *    -1.1269 *     3.3808 *  0.0000     4          
   289  Cl    s      2.2539 *    -5.6347 *   -10.1425 *  0.0000     4          
   290  Cl    s      6.7617 *     7.8886 *    -5.6347 *  0.0000     4          
   291  O     s      9.0156 *     5.6347 *     5.6347    0.0000     2          
   292  O     s      9.0156 *    -7.8886 *     1.1269 *  0.0000     4          
   293  O     s      4.5078 *    -7.8886 *    -7.8886    0.0000     2          
   294  Cl    s     11.2695 *     3.3808 *     3.3808    0.0000     2          
   295  Cl    s      6.7617 *   -10.1425 *    -1.1269 *  0.0000     4          
   296  O     s      0.0000       1.1269 *   -12.3964 *  0.0000     2          
   297  O     s      9.0156 *    -7.8886 *    -3.3808 *  0.0000     4          
   298  O     s     -4.5078 *    10.1425 *     5.6347 *  0.0000     4          
   299  Cl    s     11.2695 *    -1.1269 *    -5.6347 *  0.0000     4          
   300  Cl    s      2.2539 *    -1.1269 *    12.3964 *  0.0000     4          
   301  Cl    s      6.7617 *   -10.1425 *     3.3808 *  0.0000     4          
   302  O     s      0.0000      -3.3808 *   -12.3964 *  0.0000     2          
   303  O     s      0.0000      10.1425 *    -7.8886 *  0.0000     2          
   304  Cl    s     11.2695 *     3.3808 *    -5.6347 *  0.0000     4          
   305  Cl    s      2.2539 *     3.3808 *    12.3964 *  0.0000     4          
   306  Cl    s      2.2539 *     7.8886 *   -10.1425 *  0.0000     4          
   307  Cl    s      6.7617 *     7.8886 *     7.8886    0.0000     2          
   308  O     s      4.5078 *   -12.3964 *     1.1269 *  0.0000     4          
   309  O     s      9.0156 *    -7.8886 *     5.6347 *  0.0000     4          
   310  Cl    s      6.7617 *   -10.1425 *    -5.6347 *  0.0000     4          
   311  O     s      0.0000       5.6347 *   -12.3964 *  0.0000     2          
   312  O     s      4.5078 *   -12.3964 *    -3.3808 *  0.0000     4          
   313  O     s      4.5078 *    10.1425 *    -7.8886 *  0.0000     4          
   314  O     s      9.0156 *     1.1269 *    10.1425 *  0.0000     4          
   315  O     s     13.5234 *     1.1269 *     1.1269    0.0000     2          
   316  Cl    s     11.2695 *    -5.6347 *    -5.6347    0.0000     2          
   317  Cl    s      2.2539 *    12.3964 *    -5.6347 *  0.0000     4          
   318  Cl    s     11.2695 *    -1.1269 *     7.8886 *  0.0000     4          
   319  O     s      9.0156 *    10.1425 *    -3.3808 *  0.0000     4          
   320  O     s     13.5234 *     1.1269 *    -3.3808 *  0.0000     4          
   321  Cl    s      6.7617 *    12.3964 *    -1.1269 *  0.0000     4          
   322  Cl    s     11.2695 *     3.3808 *     7.8886 *  0.0000     4          
   323  O     s      4.5078 *   -12.3964 *     5.6347 *  0.0000     4          
   324  O     s      0.0000      10.1425 *    10.1425    0.0000     1          
   325  O     s      9.0156 *    -7.8886 *    -7.8886    0.0000     2          
   326  O     s     13.5234 *    -3.3808 *    -3.3808    0.0000     2          
   327  Cl    s      6.7617 *    12.3964 *     3.3808 *  0.0000     4          
   328  Cl    s      2.2539 *   -10.1425 *   -10.1425    0.0000     2          
   329  Cl    s      6.7617 *     7.8886 *   -10.1425 *  0.0000     4          
   330  O     s      0.0000       1.1269 *    14.6503 *  0.0000     2          
   331  O     s      0.0000      -7.8886 *   -12.3964 *  0.0000     2          
   332  O     s      9.0156 *     5.6347 *    10.1425 *  0.0000     4          
   333  O     s     13.5234 *     1.1269 *     5.6347 *  0.0000     4          
   334  Cl    s      2.2539 *    -1.1269 *   -14.6503 *  0.0000     4          
   335  Cl    s     11.2695 *     7.8886 *    -5.6347 *  0.0000     4          
   336  Cl    s      2.2539 *     7.8886 *    12.3964 *  0.0000     4          
--------------------------------------------------------------------------------


  Constraints on symmetry reduced coordinates :

--------------------------------------------------------------------------------
  Constraint no.      Unconstrained     Constrained    Coefficient    
                         Variable         Variable
--------------------------------------------------------------------------------
           1                 2 y             2 z         1.00000
           2                 3 y             3 z         1.00000
           3                 4 y             4 z         1.00000
           4                10 y            10 z         1.00000
           5                12 y            12 z         1.00000
           6                14 y            14 z         1.00000
           7                15 y            15 z         1.00000
           8                27 y            27 z         1.00000
           9                31 y            31 z         1.00000
          10                32 y            32 z         1.00000
          11                38 y            38 z         1.00000
          12                46 y            46 z         1.00000
          13                47 y            47 z         1.00000
          14                50 y            50 z         1.00000
          15                51 y            51 z         1.00000
          16                59 y            59 z         1.00000
          17                61 y            61 z         1.00000
          18                82 y            82 z         1.00000
          19                84 y            84 z         1.00000
          20                85 y            85 z         1.00000
          21               109 y           109 z         1.00000
          22               111 y           111 z         1.00000
          23               112 y           112 z         1.00000
          24               113 y           113 z         1.00000
          25               114 y           114 z         1.00000
          26               127 y           127 z         1.00000
          27               132 y           132 z         1.00000
          28               134 y           134 z         1.00000
          29               135 y           135 z         1.00000
          30               164 y           164 z         1.00000
          31               166 y           166 z         1.00000
          32               183 y           183 z         1.00000
          33               189 y           189 z         1.00000
          34               190 y           190 z         1.00000
          35               208 y           208 z         1.00000
          36               209 y           209 z         1.00000
          37               210 y           210 z         1.00000
          38               216 y           216 z         1.00000
          39               218 y           218 z         1.00000
          40               238 y           238 z         1.00000
          41               239 y           239 z         1.00000
          42               242 y           242 z         1.00000
          43               243 y           243 z         1.00000
          44               244 y           244 z         1.00000
          45               249 y           249 z         1.00000
          46               251 y           251 z         1.00000
          47               254 y           254 z         1.00000
          48               257 y           257 z         1.00000
          49               259 y           259 z         1.00000
          50               263 y           263 z         1.00000
          51               265 y           265 z         1.00000
          52               272 y           272 z         1.00000
          53               273 y           273 z         1.00000
          54               283 y           283 z         1.00000
          55               284 y           284 z         1.00000
          56               285 y           285 z         1.00000
          57               291 y           291 z         1.00000
          58               293 y           293 z         1.00000
          59               294 y           294 z         1.00000
          60               307 y           307 z         1.00000
          61               315 y           315 z         1.00000
          62               316 y           316 z         1.00000
          63               324 y           324 z         1.00000
          64               325 y           325 z         1.00000
          65               326 y           326 z         1.00000
          66               328 y           328 z         1.00000
--------------------------------------------------------------------------------


  Components of defect energy : 

--------------------------------------------------------------------------------
  Region 1 - region 1                   =     10.76069220 eV
  Region 1 - region 2a (unrelaxed)      =      0.01041363 eV
  Region 1 - 2a (relaxed - correction)  =     -0.23034944 eV
  Region 1 (Total)                      =     10.54075638 eV
  Region 2a                             =      0.11514619 eV
  Region 2b                             =     -0.34365277 eV
--------------------------------------------------------------------------------
  Total defect energy                   =     10.31224979 eV
--------------------------------------------------------------------------------

  Largest displacement in region 2 =   0.0136 Angstroms


  Number of variables =      865

  Maximum number of calculations  =        1000
  Maximum Hessian update interval =          10
  Maximum step size               =   1.0000000
  Maximum parameter tolerance     =   0.0000100
  Maximum function  tolerance     =   0.0000100
  Maximum gradient  tolerance     =   0.0010000

  Symmetry adapted optimisation

  Symmetry to be used for second derivatives

  Newton-Raphson optimiser to be used

  BFGS hessian update to be used

  Lower half triangular hessian to be used

  Start of defect optimisation :

  Cycle:      0 Defect Energy:  10.312250  Gnorm:     0.034330  CPU:    6.112
  ** Hessian calculated **
  Cycle:      1 Defect Energy:   8.810515  Gnorm:     0.027461  CPU:   20.973
  Cycle:      2 Defect Energy:   7.462219  Gnorm:     0.019620  CPU:   30.432
  ** Hessian calculated **
  Cycle:      3 Defect Energy:   6.922569  Gnorm:     0.010956  CPU:   44.809
  Cycle:      4 Defect Energy:   6.778849  Gnorm:     0.011404  CPU:   56.453
  Cycle:      5 Defect Energy:   6.635803  Gnorm:     0.009165  CPU:   64.370
  Cycle:      6 Defect Energy:   6.425403  Gnorm:     0.009893  CPU:   73.386
  Cycle:      7 Defect Energy:   6.179705  Gnorm:     0.007350  CPU:   81.079
  Cycle:      8 Defect Energy:   5.873329  Gnorm:     0.007217  CPU:   89.226
  Cycle:      9 Defect Energy:   5.637011  Gnorm:     0.009807  CPU:  101.198
  Cycle:     10 Defect Energy:   5.415090  Gnorm:     0.005278  CPU:  108.138
  Cycle:     11 Defect Energy:   5.292882  Gnorm:     0.007696  CPU:  114.664
  Cycle:     12 Defect Energy:   5.207957  Gnorm:     0.003300  CPU:  121.766
  ** Hessian calculated **
  Cycle:     13 Defect Energy:   5.189807  Gnorm:     0.002646  CPU:  130.330
  Cycle:     14 Defect Energy:   5.169600  Gnorm:     0.002480  CPU:  131.507
  Cycle:     15 Defect Energy:   5.145426  Gnorm:     0.002405  CPU:  132.591
  Cycle:     16 Defect Energy:   5.114627  Gnorm:     0.002413  CPU:  133.682
  Cycle:     17 Defect Energy:   5.076080  Gnorm:     0.002469  CPU:  134.756
  Cycle:     18 Defect Energy:   5.037004  Gnorm:     0.002561  CPU:  135.925
  Cycle:     19 Defect Energy:   4.999992  Gnorm:     0.002736  CPU:  136.987
  Cycle:     20 Defect Energy:   4.965161  Gnorm:     0.002692  CPU:  138.027
  Cycle:     21 Defect Energy:   4.935250  Gnorm:     0.002698  CPU:  139.127
  Cycle:     22 Defect Energy:   4.906333  Gnorm:     0.002575  CPU:  140.226
  ** Hessian calculated **
  Cycle:     23 Defect Energy:   4.859411  Gnorm:     0.002478  CPU:  146.780
  Cycle:     24 Defect Energy:   4.715986  Gnorm:     0.001884  CPU:  148.472
  Cycle:     25 Defect Energy:   4.629225  Gnorm:     0.001298  CPU:  150.631
  Cycle:     26 Defect Energy:   4.593064  Gnorm:     0.000903  CPU:  152.882
  Cycle:     27 Defect Energy:   4.576522  Gnorm:     0.000652  CPU:  155.051
  Cycle:     28 Defect Energy:   4.564264  Gnorm:     0.000472  CPU:  157.000
  ** Hessian calculated **
  Cycle:     29 Defect Energy:   4.561655  Gnorm:     0.000330  CPU:  165.991
  Cycle:     30 Defect Energy:   4.560390  Gnorm:     0.000231  CPU:  167.855
  Cycle:     31 Defect Energy:   4.559773  Gnorm:     0.000161  CPU:  169.815
  Cycle:     32 Defect Energy:   4.559481  Gnorm:     0.000112  CPU:  171.662
  Cycle:     33 Defect Energy:   4.559349  Gnorm:     0.000078  CPU:  173.619
  Cycle:     34 Defect Energy:   4.559296  Gnorm:     0.000054  CPU:  175.442
  Cycle:     35 Defect Energy:   4.559279  Gnorm:     0.000038  CPU:  177.225


  **** Optimisation achieved ****


  Final defect energy  =        4.55927874
  Final defect Gnorm   =        0.00002642

  Components of defect energy : 

--------------------------------------------------------------------------------
  Region 1 - region 1                   =      5.65821690 eV
  Region 1 - region 2a (unrelaxed)      =     -0.66066786 eV
  Region 1 - 2a (relaxed - correction)  =     -0.18915644 eV
  Region 1 (Total)                      =      4.80839260 eV
  Region 2a                             =      0.09454781 eV
  Region 2b                             =     -0.34366167 eV
--------------------------------------------------------------------------------
  Total defect energy                   =      4.55927874 eV
--------------------------------------------------------------------------------

  Largest displacement in region 2 =   0.0136 Angstroms

  Final coordinates of region 1 :

--------------------------------------------------------------------------------
   No.  Atomic        x           y           z          Radius      Charge
        Label       (Angs)      (Angs)      (Angs)       (Angs)       (e) 
--------------------------------------------------------------------------------
     1  Na    c     2.253894    1.126947    1.126947    0.000000    1.000000
     2  O     c     2.253894    2.599201    2.599201    0.000000    0.183000
     3  Cl    c     4.597394    0.000452    0.000452    0.000000    1.485000
     4  Cl    c    -0.089607    0.000452    0.000452    0.000000    1.485000
     5  Na    c     4.498164    2.540158    2.540158    0.000000    1.000000
     6  Na    c     0.009624    2.540158    2.540158    0.000000    1.000000
     7  O     c     2.253894    2.311415   -2.246127    0.000000    0.183000
     8  O     c     2.253894   -2.246127    2.311415    0.000000    0.183000
     9  Na    c     2.253894    1.878489    4.656171    0.000000    1.000000
    10  Na    c     2.253894    4.656171    1.878489    0.000000    1.000000
    11  Na    c     2.253894   -2.312366    0.079994    0.000000    1.000000
    12  Na    c     2.253894    0.079994   -2.312366    0.000000    1.000000
    13  Cl    c     4.613194    0.045514    4.688075    0.000000    1.485000
    14  Cl    c     4.613194    4.688075    0.045514    0.000000    1.485000
    15  Cl    c    -0.105407    0.045514    4.688075    0.000000    1.485000
    16  Cl    c    -0.105407    4.688075    0.045514    0.000000    1.485000
    17  Na    c     4.442194    2.283158   -1.827638    0.000000    1.000000
    18  Na    c     4.442194   -1.827638    2.283158    0.000000    1.000000
    19  Na    c     0.065593    2.283158   -1.827638    0.000000    1.000000
    20  Na    c     0.065593   -1.827638    2.283158    0.000000    1.000000
    21  O     c    -2.263520    2.315493    2.315493    0.000000    0.183000
    22  O     c     6.771307    2.315493    2.315493    0.000000    0.183000
    23  Na    c    -2.428147    2.160544    0.054111    0.000000    1.000000
    24  Na    c    -2.428147    0.054111    2.160544    0.000000    1.000000
    25  Na    c     6.935934    2.160544    0.054111    0.000000    1.000000
    26  Na    c     6.935934    0.054111    2.160544    0.000000    1.000000
    27  O     c     2.253894   -2.214454   -2.214454    0.000000    0.183000
    28  Na    c     2.253894   -1.702511    4.483607    0.000000    1.000000
    29  Na    c     2.253894    4.483607   -1.702511    0.000000    1.000000
    30  Cl    c     4.658383    4.632338    4.632338    0.000000    1.485000
    31  Cl    c    -0.150596    4.632338    4.632338    0.000000    1.485000
    32  Na    c     4.490194   -2.170797   -2.170797    0.000000    1.000000
    33  Na    c     0.017593   -2.170797   -2.170797    0.000000    1.000000
    34  O     c     2.253894    2.229261    6.893177    0.000000    0.183000
    35  O     c     2.253894    6.893177    2.229261    0.000000    0.183000
    36  Na    c     2.253894    2.615247   -4.466356    0.000000    1.000000
    37  Na    c     2.253894   -4.466356    2.615247    0.000000    1.000000
    38  Na    c     2.253894    7.251941   -0.020061    0.000000    1.000000
    39  Na    c     2.253894   -0.020061    7.251941    0.000000    1.000000
    40  O     c    -2.218240    2.290532   -2.203032    0.000000    0.183000
    41  O     c    -2.218240   -2.203032    2.290532    0.000000    0.183000
    42  O     c     6.726027    2.290532   -2.203032    0.000000    0.183000
    43  O     c     6.726027   -2.203032    2.290532    0.000000    0.183000
    44  Na    c    -2.169012    2.095842    4.570096    0.000000    1.000000
    45  Na    c    -2.169012    4.570096    2.095842    0.000000    1.000000
    46  Na    c     6.676799    2.095842    4.570096    0.000000    1.000000
    47  Na    c     6.676799    4.570096    2.095842    0.000000    1.000000
    48  Na    c    -2.210845   -2.307687    0.022766    0.000000    1.000000
    49  Na    c    -2.210845    0.022766   -2.307687    0.000000    1.000000
    50  Na    c     6.718632   -2.307687    0.022766    0.000000    1.000000
    51  Na    c     6.718632    0.022766   -2.307687    0.000000    1.000000
    52  Cl    c     4.549919   -0.091578   -4.525649    0.000000    1.485000
    53  Cl    c     4.549919   -4.525649   -0.091578    0.000000    1.485000
    54  Cl    c    -0.042132   -0.091578   -4.525649    0.000000    1.485000
    55  Cl    c    -0.042132   -4.525649   -0.091578    0.000000    1.485000
    56  Na    c     4.522115    2.203357    6.919493    0.000000    1.000000
    57  Na    c     4.522115    6.919493    2.203357    0.000000    1.000000
    58  Na    c    -0.014328    2.203357    6.919493    0.000000    1.000000
    59  Na    c    -0.014328    6.919493    2.203357    0.000000    1.000000
    60  O     c     2.253894    6.747911   -2.241602    0.000000    0.183000
    61  O     c     2.253894   -2.241602    6.747911    0.000000    0.183000
    62  Na    c     2.253894    6.490091    4.445811    0.000000    1.000000
    63  Na    c     2.253894    4.445811    6.490091    0.000000    1.000000
    64  Na    c     2.253894   -2.334265   -4.481685    0.000000    1.000000
    65  Na    c     2.253894   -4.481685   -2.334265    0.000000    1.000000
    66  O     c     6.742164   -2.244818   -2.244818    0.000000    0.183000
    67  O     c    -2.234377   -2.244818   -2.244818    0.000000    0.183000
    68  Na    c     6.821730   -1.947707    4.535126    0.000000    1.000000
    69  Na    c    -2.313943   -1.947707    4.535126    0.000000    1.000000
    70  Na    c     6.821730    4.535126   -1.947707    0.000000    1.000000
    71  Na    c    -2.313943    4.535126   -1.947707    0.000000    1.000000
    72  Cl    c     4.541673    4.595473   -4.606874    0.000000    1.485000
    73  Cl    c     4.541673   -4.606874    4.595473    0.000000    1.485000
    74  Cl    c    -0.033886    4.595473   -4.606874    0.000000    1.485000
    75  Cl    c    -0.033886   -4.606874    4.595473    0.000000    1.485000
    76  Na    c     4.510405    6.669991   -2.273437    0.000000    1.000000
    77  Na    c     4.510405   -2.273437    6.669991    0.000000    1.000000
    78  Na    c    -0.002618    6.669991   -2.273437    0.000000    1.000000
    79  Na    c    -0.002618   -2.273437    6.669991    0.000000    1.000000
    80  Cl    c     9.007678    0.014560    0.014560    0.000000    1.485000
    81  Cl    c    -4.499891    0.014560    0.014560    0.000000    1.485000
    82  Na    c     9.022518    2.554084    2.554084    0.000000    1.000000
    83  Na    c    -4.514731    2.554084    2.554084    0.000000    1.000000
    84  O     c    -2.279874    2.251946    6.821094    0.000000    0.183000
    85  O     c     6.787661    6.821094    2.251946    0.000000    0.183000
    86  O     c    -2.279874    6.821094    2.251946    0.000000    0.183000
    87  O     c     6.787661    2.251946    6.821094    0.000000    0.183000
    88  Na    c    -1.894417    2.461870   -4.448350    0.000000    1.000000
    89  Na    c     6.402205   -4.448350    2.461870    0.000000    1.000000
    90  Na    c    -1.894417   -4.448350    2.461870    0.000000    1.000000
    91  Na    c     6.402205    2.461870   -4.448350    0.000000    1.000000
    92  Na    c    -2.214752   -0.005276    7.065347    0.000000    1.000000
    93  Na    c     6.722539    7.065347   -0.005276    0.000000    1.000000
    94  Na    c    -2.214752    7.065347   -0.005276    0.000000    1.000000
    95  Na    c     6.722539   -0.005276    7.065347    0.000000    1.000000
    96  Cl    c     9.004161    0.057114    4.528305    0.000000    1.485000
    97  Cl    c    -4.496373    0.057114    4.528305    0.000000    1.485000
    98  Cl    c     9.004161    4.528305    0.057114    0.000000    1.485000
    99  Cl    c    -4.496373    4.528305    0.057114    0.000000    1.485000
   100  Na    c     8.974568    2.230596   -2.559236    0.000000    1.000000
   101  Na    c    -4.466781    2.230596   -2.559236    0.000000    1.000000
   102  Na    c     8.974568   -2.559236    2.230596    0.000000    1.000000
   103  Na    c    -4.466781   -2.559236    2.230596    0.000000    1.000000
   104  O     c     2.253894    6.708126    6.708126    0.000000    0.183000
   105  Na    c     2.253894    6.321848   -4.483806    0.000000    1.000000
   106  Na    c     2.253894   -4.483806    6.321848    0.000000    1.000000
   107  O     c    -2.265025   -2.263479    6.779771    0.000000    0.183000
   108  O     c     6.772813    6.779771   -2.263479    0.000000    0.183000
   109  O     c     6.772813   -2.263479    6.779771    0.000000    0.183000
   110  O     c    -2.265025    6.779771   -2.263479    0.000000    0.183000
   111  Na    c    -2.146682   -2.308859   -4.494372    0.000000    1.000000
   112  Na    c     6.654469   -2.308859   -4.494372    0.000000    1.000000
   113  Na    c     6.654469   -4.494372   -2.308859    0.000000    1.000000
   114  Na    c    -2.146682   -4.494372   -2.308859    0.000000    1.000000
   115  Na    c    -2.238732    4.503322    6.637281    0.000000    1.000000
   116  Na    c     6.746519    6.637281    4.503322    0.000000    1.000000
   117  Na    c    -2.238732    6.637281    4.503322    0.000000    1.000000
   118  Na    c     6.746519    4.503322    6.637281    0.000000    1.000000
   119  O     c     2.253894    2.280113   -6.766976    0.000000    0.183000
   120  O     c     2.253894   -6.766976    2.280113    0.000000    0.183000
   121  Na    c     2.253894    2.710239    9.080518    0.000000    1.000000
   122  Na    c     2.253894    9.080518    2.710239    0.000000    1.000000
   123  Na    c     2.253894   -6.383201    0.041816    0.000000    1.000000
   124  Na    c     2.253894    0.041816   -6.383201    0.000000    1.000000
   125  Cl    c     4.485309   -4.494773   -4.494773    0.000000    1.485000
   126  Cl    c     0.022478   -4.494773   -4.494773    0.000000    1.485000
   127  Na    c     4.518273    6.748034    6.748034    0.000000    1.000000
   128  Na    c    -0.010486    6.748034    6.748034    0.000000    1.000000
   129  Cl    c     4.537161   -0.014771    9.085595    0.000000    1.485000
   130  Cl    c    -0.029374   -0.014771    9.085595    0.000000    1.485000
   131  Cl    c     4.537161    9.085595   -0.014771    0.000000    1.485000
   132  Cl    c    -0.029374    9.085595   -0.014771    0.000000    1.485000
   133  Na    c     4.502448    2.344845   -6.885774    0.000000    1.000000
   134  Na    c     0.005339    2.344845   -6.885774    0.000000    1.000000
   135  Na    c     4.502448   -6.885774    2.344845    0.000000    1.000000
   136  Na    c     0.005339   -6.885774    2.344845    0.000000    1.000000
   137  Cl    c     9.043537    4.579205    4.579205    0.000000    1.485000
   138  Cl    c    -4.535750    4.579205    4.579205    0.000000    1.485000
   139  Na    c     8.992776   -2.275378   -2.275378    0.000000    1.000000
   140  Na    c    -4.484989   -2.275378   -2.275378    0.000000    1.000000
   141  O     c     2.253894   -2.212414   -6.749101    0.000000    0.183000
   142  O     c     2.253894   -6.749101   -2.212414    0.000000    0.183000
   143  Na    c     2.253894   -2.659023    8.996482    0.000000    1.000000
   144  Na    c     2.253894    8.996482   -2.659023    0.000000    1.000000
   145  Na    c     2.253894   -7.125285    4.522412    0.000000    1.000000
   146  Na    c     2.253894    4.522412   -7.125285    0.000000    1.000000
   147  Cl    c     4.548322    4.520157    9.060436    0.000000    1.485000
   148  Cl    c    -0.040535    4.520157    9.060436    0.000000    1.485000
   149  Cl    c     4.548322    9.060436    4.520157    0.000000    1.485000
   150  Cl    c    -0.040535    9.060436    4.520157    0.000000    1.485000
   151  Cl    c     9.027138   -0.025552   -4.483826    0.000000    1.485000
   152  Cl    c    -4.519351   -0.025552   -4.483826    0.000000    1.485000
   153  Cl    c     9.027138   -4.483826   -0.025552    0.000000    1.485000
   154  Cl    c    -4.519351   -4.483826   -0.025552    0.000000    1.485000
   155  Na    c     4.506157   -2.260337   -6.789632    0.000000    1.000000
   156  Na    c     0.001630   -2.260337   -6.789632    0.000000    1.000000
   157  Na    c     4.506157   -6.789632   -2.260337    0.000000    1.000000
   158  Na    c     0.001630   -6.789632   -2.260337    0.000000    1.000000
   159  Na    c     9.035390    2.191211    6.595267    0.000000    1.000000
   160  Na    c    -4.527603    2.191211    6.595267    0.000000    1.000000
   161  Na    c     9.035390    6.595267    2.191211    0.000000    1.000000
   162  Na    c    -4.527603    6.595267    2.191211    0.000000    1.000000
   163  O     c     6.780290    6.767172    6.767172    0.000000    0.183000
   164  O     c    -2.272503    6.767172    6.767172    0.000000    0.183000
   165  O     c     6.755866   -6.713669    2.263285    0.000000    0.183000
   166  O     c    -2.248079    2.263285   -6.713669    0.000000    0.183000
   167  O     c    -2.248079   -6.713669    2.263285    0.000000    0.183000
   168  O     c     6.755866    2.263285   -6.713669    0.000000    0.183000
   169  O     c    11.257879    2.263507    2.263507    0.000000    0.183000
   170  O     c    -6.750092    2.263507    2.263507    0.000000    0.183000
   171  Na    c     6.844350    6.439484   -4.509137    0.000000    1.000000
   172  Na    c    -2.336563    6.439484   -4.509137    0.000000    1.000000
   173  Na    c     6.844350   -4.509137    6.439484    0.000000    1.000000
   174  Na    c    -2.336563   -4.509137    6.439484    0.000000    1.000000
   175  Na    c     6.658825   -6.537537    0.017207    0.000000    1.000000
   176  Na    c    -2.151038   -6.537537    0.017207    0.000000    1.000000
   177  Na    c    -2.151038    0.017207   -6.537537    0.000000    1.000000
   178  Na    c     6.658825    0.017207   -6.537537    0.000000    1.000000
   179  Na    c    10.917077    2.299025    0.009200    0.000000    1.000000
   180  Na    c    -6.409290    2.299025    0.009200    0.000000    1.000000
   181  Na    c    10.917077    0.009200    2.299025    0.000000    1.000000
   182  Na    c    -6.409290    0.009200    2.299025    0.000000    1.000000
   183  Na    c    -2.418780    2.539721    9.043128    0.000000    1.000000
   184  Na    c     6.926567    9.043128    2.539721    0.000000    1.000000
   185  Na    c    -2.418780    9.043128    2.539721    0.000000    1.000000
   186  Na    c     6.926567    2.539721    9.043128    0.000000    1.000000
   187  Cl    c     9.051133    4.508332   -4.493413    0.000000    1.485000
   188  Cl    c    -4.543346    4.508332   -4.493413    0.000000    1.485000
   189  Cl    c     9.051133   -4.493413    4.508332    0.000000    1.485000
   190  Cl    c    -4.543346   -4.493413    4.508332    0.000000    1.485000
   191  Na    c     9.017208   -2.187214    6.883988    0.000000    1.000000
   192  Na    c    -4.509421   -2.187214    6.883988    0.000000    1.000000
[...]
    256 y          2.253894      2.280115     0.026222    Cartesian    1.16
    256 z         -6.761681     -6.767069    -0.005388    Cartesian    0.08
    257 x          4.507787      4.484885    -0.022902    Cartesian   -0.51
    257 y         -4.507787     -4.492413     0.015374    Cartesian   -0.34
    257 z         -4.507787     -4.492413     0.015374    Cartesian   -0.34
    258 x          4.507787      4.532141     0.024354    Cartesian    0.54
    258 y          0.000000     -0.011977    -0.011977    Cartesian    0.00
    258 z          9.015574      9.089599     0.074024    Cartesian    0.82
    259 x          9.015574      9.042796     0.027222    Cartesian    0.30
    259 y          4.507787      4.579002     0.071215    Cartesian    1.58
    259 z          4.507787      4.579002     0.071215    Cartesian    1.58
    260 x          2.253894      2.253894     0.000000    Cartesian    0.00
    260 y         -2.253894     -2.212437     0.041457    Cartesian   -1.84
    260 z         -6.761681     -6.749082     0.012599    Cartesian   -0.19
    261 x          4.507787      4.544743     0.036955    Cartesian    0.82
    261 y          4.507787      4.515537     0.007749    Cartesian    0.17
    261 z          9.015574      9.063162     0.047588    Cartesian    0.53
    262 x          9.015574      9.027406     0.011832    Cartesian    0.13
    262 y          0.000000     -0.019884    -0.019884    Cartesian    0.00
    262 z         -4.507787     -4.486279     0.021508    Cartesian   -0.48
    263 x          6.761681      6.780318     0.018637    Cartesian    0.28
    263 y          6.761681      6.767152     0.005471    Cartesian    0.08
    263 z          6.761681      6.767152     0.005471    Cartesian    0.08
    264 x          6.761681      6.755827    -0.005853    Cartesian   -0.09
    264 y         -6.761681     -6.713692     0.047988    Cartesian   -0.71
    264 z          2.253894      2.263271     0.009377    Cartesian    0.42
    265 x         11.269468     11.257877    -0.011591    Cartesian   -0.10
    265 y          2.253894      2.263541     0.009647    Cartesian    0.43
    265 z          2.253894      2.263541     0.009647    Cartesian    0.43
    266 x          9.015574      9.054355     0.038780    Cartesian    0.43
    266 y          4.507787      4.506561    -0.001226    Cartesian   -0.03
    266 z         -4.507787     -4.492561     0.015227    Cartesian   -0.34
    267 x          2.253894      2.253894     0.000000    Cartesian    0.00
    267 y          6.761681      6.759890    -0.001791    Cartesian   -0.03
    267 z         -6.761681     -6.736290     0.025391    Cartesian   -0.38
    268 x         11.269468     11.238276    -0.031193    Cartesian   -0.28
    268 y         -2.253894     -2.247737     0.006157    Cartesian   -0.27
    268 z          2.253894      2.260857     0.006963    Cartesian    0.31
    269 x         -2.253894     -2.257615    -0.003722    Cartesian    0.17
    269 y         -2.253894     -2.236350     0.017543    Cartesian   -0.78
    269 z         -6.761681     -6.749027     0.012654    Cartesian   -0.19
    270 x          4.507787      4.518565     0.010778    Cartesian    0.24
    270 y          9.015574      9.086442     0.070867    Cartesian    0.79
    270 z         -4.507787     -4.522293    -0.014505    Cartesian    0.32
    271 x          2.253894      2.253894     0.000000    Cartesian    0.00
    271 y         11.269468     11.281101     0.011633    Cartesian    0.10
    271 z          2.253894      2.249813    -0.004081    Cartesian   -0.18
    272 x         11.269468     11.260805    -0.008663    Cartesian   -0.08
    272 y         -2.253894     -2.242001     0.011892    Cartesian   -0.53
    272 z         -2.253894     -2.242001     0.011892    Cartesian   -0.53
    273 x          9.015574      9.005558    -0.010017    Cartesian   -0.11
    273 y         -4.507787     -4.516164    -0.008376    Cartesian    0.19
    273 z         -4.507787     -4.516164    -0.008376    Cartesian    0.19
    274 x          4.507787      4.538537     0.030750    Cartesian    0.68
    274 y          0.000000      0.029031     0.029031    Cartesian    0.00
    274 z         -9.015574     -9.034090    -0.018515    Cartesian    0.21
    275 x          9.015574      9.076282     0.060708    Cartesian    0.67
    275 y          0.000000     -0.021139    -0.021139    Cartesian    0.00
    275 z          9.015574      9.022786     0.007212    Cartesian    0.08
    276 x          6.761681      6.775198     0.013517    Cartesian    0.20
    276 y          6.761681      6.766723     0.005043    Cartesian    0.07
    276 z         -6.761681     -6.759169     0.002512    Cartesian   -0.04
    277 x         11.269468     11.288808     0.019340    Cartesian    0.17
    277 y          2.253894      2.249573    -0.004321    Cartesian   -0.19
    277 z          6.761681      6.754969    -0.006712    Cartesian   -0.10
    278 x          2.253894      2.253894     0.000000    Cartesian    0.00
    278 y         11.269468     11.254226    -0.015242    Cartesian   -0.14
    278 z         -2.253894     -2.245440     0.008454    Cartesian   -0.38
    279 x          4.507787      4.525482     0.017695    Cartesian    0.39
    279 y          4.507787      4.516129     0.008342    Cartesian    0.19
    279 z         -9.015574     -9.026243    -0.010668    Cartesian    0.12
    280 x          9.015574      9.070114     0.054540    Cartesian    0.60
    280 y          9.015574      9.055263     0.039689    Cartesian    0.44
    280 z          4.507787      4.532576     0.024789    Cartesian    0.55
    281 x         11.269468     11.270409     0.000941    Cartesian    0.01
    281 y         -2.253894     -2.251773     0.002121    Cartesian   -0.09
    281 z          6.761681      6.764750     0.003069    Cartesian    0.05
    282 x         -2.253894     -2.267924    -0.014031    Cartesian    0.62
    282 y         11.269468     11.276171     0.006703    Cartesian    0.06
    282 z          2.253894      2.256060     0.002167    Cartesian    0.10
    283 x          2.253894      2.253894     0.000000    Cartesian    0.00
    283 y         -6.761681     -6.742073     0.019608    Cartesian   -0.29
    283 z         -6.761681     -6.742073     0.019608    Cartesian   -0.29
    284 x         13.523362     13.558631     0.035269    Cartesian    0.26
    284 y          0.000000     -0.029276    -0.029276    Cartesian    0.00
    284 z          0.000000     -0.029276    -0.029276    Cartesian    0.00
    285 x          4.507787      4.489659    -0.018128    Cartesian   -0.40
    285 y          9.015574      9.059823     0.044248    Cartesian    0.49
    285 z          9.015574      9.059823     0.044248    Cartesian    0.49
    286 x          2.253894      2.253894     0.000000    Cartesian    0.00
    286 y          6.761681      6.746215    -0.015466    Cartesian   -0.23
    286 z         11.269468     11.263944    -0.005524    Cartesian   -0.05
    287 x         -2.253894     -2.257585    -0.003691    Cartesian    0.16
    287 y         11.269468     11.255619    -0.013849    Cartesian   -0.12
    287 z         -2.253894     -2.258787    -0.004893    Cartesian    0.22
    288 x         13.523362     13.547555     0.024193    Cartesian    0.18
    288 y          0.000000      0.009365     0.009365    Cartesian    0.00
    288 z          4.507787      4.512660     0.004873    Cartesian    0.11
    289 x          4.507787      4.500855    -0.006932    Cartesian   -0.15
    289 y         -4.507787     -4.526483    -0.018696    Cartesian    0.41
    289 z         -9.015574     -9.032726    -0.017152    Cartesian    0.19
    290 x          9.015574      9.042596     0.027022    Cartesian    0.30
    290 y          9.015574      9.024106     0.008532    Cartesian    0.09
    290 z         -4.507787     -4.511139    -0.003352    Cartesian    0.07
    291 x         11.269468     11.269744     0.000276    Cartesian    0.00
    291 y          6.761681      6.767291     0.005610    Cartesian    0.08
    291 z          6.761681      6.767291     0.005610    Cartesian    0.08
    292 x         11.269468     11.267727    -0.001741    Cartesian   -0.02
    292 y         -6.761681     -6.730780     0.030901    Cartesian   -0.46
    292 z          2.253894      2.254484     0.000590    Cartesian    0.03
    293 x          6.761681      6.758717    -0.002964    Cartesian   -0.04
    293 y         -6.761681     -6.758282     0.003399    Cartesian   -0.05
    293 z         -6.761681     -6.758282     0.003399    Cartesian   -0.05
    294 x         13.523362     13.536461     0.013099    Cartesian    0.10
    294 y          4.507787      4.526156     0.018369    Cartesian    0.41
    294 z          4.507787      4.526156     0.018369    Cartesian    0.41
    295 x          9.015574      9.050431     0.034857    Cartesian    0.39
    295 y         -9.015574     -9.055062    -0.039488    Cartesian    0.44
    295 z          0.000000     -0.010149    -0.010149    Cartesian    0.00
    296 x          2.253894      2.253894     0.000000    Cartesian    0.00
    296 y          2.253894      2.261408     0.007514    Cartesian    0.33
    296 z        -11.269468    -11.238432     0.031036    Cartesian   -0.28
    297 x         11.269468     11.265390    -0.004078    Cartesian   -0.04
    297 y         -6.761681     -6.755166     0.006515    Cartesian   -0.10
    297 z         -2.253894     -2.248390     0.005503    Cartesian   -0.24
    298 x         -2.253894     -2.248819     0.005075    Cartesian   -0.23
    298 y         11.269468     11.278673     0.009205    Cartesian    0.08
    298 z          6.761681      6.755859    -0.005821    Cartesian   -0.09
    299 x         13.523362     13.520125    -0.003237    Cartesian   -0.02
    299 y          0.000000     -0.011980    -0.011980    Cartesian    0.00
    299 z         -4.507787     -4.512343    -0.004556    Cartesian    0.10
    300 x          4.507787      4.507763    -0.000024    Cartesian   -0.00
    300 y          0.000000     -0.002974    -0.002974    Cartesian    0.00
    300 z         13.523362     13.614595     0.091233    Cartesian    0.67
    301 x          9.015574      9.041924     0.026350    Cartesian    0.29
    301 y         -9.015574     -9.042590    -0.027015    Cartesian    0.30
    301 z          4.507787      4.514224     0.006437    Cartesian    0.14
    302 x          2.253894      2.253894     0.000000    Cartesian    0.00
    302 y         -2.253894     -2.226428     0.027466    Cartesian   -1.22
    302 z        -11.269468    -11.261860     0.007608    Cartesian   -0.07
    303 x          2.253894      2.253894     0.000000    Cartesian    0.00
    303 y         11.269468     11.265928    -0.003540    Cartesian   -0.03
    303 z         -6.761681     -6.742419     0.019262    Cartesian   -0.28
    304 x         13.523362     13.562468     0.039106    Cartesian    0.29
    304 y          4.507787      4.525830     0.018043    Cartesian    0.40
    304 z         -4.507787     -4.516784    -0.008996    Cartesian    0.20
    305 x          4.507787      4.529546     0.021759    Cartesian    0.48
    305 y          4.507787      4.524296     0.016509    Cartesian    0.37
    305 z         13.523362     13.537607     0.014245    Cartesian    0.11
    306 x          4.507787      4.508985     0.001198    Cartesian    0.03
    306 y          9.015574      9.041621     0.026046    Cartesian    0.29
    306 z         -9.015574     -9.070481    -0.054906    Cartesian    0.61
    307 x          9.015574      9.026779     0.011205    Cartesian    0.12
    307 y          9.015574      9.036131     0.020556    Cartesian    0.23
    307 z          9.015574      9.036131     0.020556    Cartesian    0.23
    308 x          6.761681      6.772915     0.011234    Cartesian    0.17
    308 y        -11.269468    -11.251274     0.018194    Cartesian   -0.16
    308 z          2.253894      2.242186    -0.011707    Cartesian   -0.52
    309 x         11.269468     11.260251    -0.009217    Cartesian   -0.08
    309 y         -6.761681     -6.759352     0.002329    Cartesian   -0.03
    309 z          6.761681      6.769880     0.008199    Cartesian    0.12
    310 x          9.015574      9.027521     0.011946    Cartesian    0.13
    310 y         -9.015574     -9.024630    -0.009056    Cartesian    0.10
    310 z         -4.507787     -4.527260    -0.019473    Cartesian    0.43
    311 x          2.253894      2.253894     0.000000    Cartesian    0.00
    311 y          6.761681      6.776675     0.014994    Cartesian    0.22
    311 z        -11.269468    -11.248800     0.020668    Cartesian   -0.18
    312 x          6.761681      6.758410    -0.003271    Cartesian   -0.05
    312 y        -11.269468    -11.262336     0.007132    Cartesian   -0.06
    312 z         -2.253894     -2.245413     0.008480    Cartesian   -0.38
    313 x          6.761681      6.755478    -0.006203    Cartesian   -0.09
    313 y         11.269468     11.273992     0.004524    Cartesian    0.04
    313 z         -6.761681     -6.746552     0.015129    Cartesian   -0.22
    314 x         11.269468     11.261733    -0.007736    Cartesian   -0.07
    314 y          2.253894      2.254878     0.000984    Cartesian    0.04
    314 z         11.269468     11.276178     0.006710    Cartesian    0.06
    315 x         15.777255     15.762069    -0.015187    Cartesian   -0.10
    315 y          2.253894      2.240853    -0.013040    Cartesian   -0.58
    315 z          2.253894      2.240853    -0.013040    Cartesian   -0.58
    316 x         13.523362     13.553440     0.030078    Cartesian    0.22
    316 y         -4.507787     -4.500759     0.007028    Cartesian   -0.16
    316 z         -4.507787     -4.500759     0.007028    Cartesian   -0.16
    317 x          4.507787      4.536980     0.029193    Cartesian    0.65
    317 y         13.523362     13.526288     0.002926    Cartesian    0.02
    317 z         -4.507787     -4.540360    -0.032573    Cartesian    0.72
    318 x         13.523362     13.523125    -0.000236    Cartesian   -0.00
    318 y          0.000000     -0.002441    -0.002441    Cartesian    0.00
    318 z          9.015574      9.020022     0.004448    Cartesian    0.05
    319 x         11.269468     11.272566     0.003098    Cartesian    0.03
    319 y         11.269468     11.269358    -0.000110    Cartesian   -0.00
    319 z         -2.253894     -2.249989     0.003904    Cartesian   -0.17
    320 x         15.777255     15.763673    -0.013583    Cartesian   -0.09
    320 y          2.253894      2.261148     0.007254    Cartesian    0.32
    320 z         -2.253894     -2.231391     0.022503    Cartesian   -1.00
    321 x          9.015574      9.014628    -0.000946    Cartesian   -0.01
    321 y         13.523362     13.579050     0.055689    Cartesian    0.41
    321 z          0.000000      0.026079     0.026079    Cartesian    0.00
    322 x         13.523362     13.568413     0.045052    Cartesian    0.33
    322 y          4.507787      4.497184    -0.010603    Cartesian   -0.24
    322 z          9.015574      9.035645     0.020071    Cartesian    0.22
    323 x          6.761681      6.762153     0.000472    Cartesian    0.01
    323 y        -11.269468    -11.260855     0.008613    Cartesian   -0.08
    323 z          6.761681      6.767445     0.005764    Cartesian    0.09
    324 x          2.253894      2.253894     0.000000    Cartesian    0.00
    324 y         11.269468     11.262428    -0.007040    Cartesian   -0.06
    324 z         11.269468     11.262428    -0.007040    Cartesian   -0.06
    325 x         11.269468     11.260004    -0.009464    Cartesian   -0.08
    325 y         -6.761681     -6.765830    -0.004149    Cartesian    0.06
    325 z         -6.761681     -6.765830    -0.004149    Cartesian    0.06
    326 x         15.777255     15.776949    -0.000306    Cartesian   -0.00
    326 y         -2.253894     -2.253192     0.000702    Cartesian   -0.03
    326 z         -2.253894     -2.253192     0.000702    Cartesian   -0.03
    327 x          9.015574      9.043938     0.028363    Cartesian    0.31
    327 y         13.523362     13.516883    -0.006478    Cartesian   -0.05
    327 z          4.507787      4.500639    -0.007148    Cartesian   -0.16
    328 x          4.507787      4.512268     0.004481    Cartesian    0.10
    328 y         -9.015574     -9.029879    -0.014305    Cartesian    0.16
    328 z         -9.015574     -9.029879    -0.014305    Cartesian    0.16
    329 x          9.015574      9.041373     0.025799    Cartesian    0.29
    329 y          9.015574      9.020487     0.004913    Cartesian    0.05
    329 z         -9.015574     -9.030573    -0.014999    Cartesian    0.17
    330 x          2.253894      2.253894     0.000000    Cartesian    0.00
    330 y          2.253894      2.245472    -0.008422    Cartesian   -0.37
    330 z         15.777255     15.783793     0.006537    Cartesian    0.04
    331 x          2.253894      2.253894     0.000000    Cartesian    0.00
    331 y         -6.761681     -6.756930     0.004751    Cartesian   -0.07
    331 z        -11.269468    -11.264921     0.004547    Cartesian   -0.04
    332 x         11.269468     11.277824     0.008356    Cartesian    0.07
    332 y          6.761681      6.761315    -0.000366    Cartesian   -0.01
    332 z         11.269468     11.271573     0.002105    Cartesian    0.02
    333 x         15.777255     15.767554    -0.009701    Cartesian   -0.06
    333 y          2.253894      2.259215     0.005321    Cartesian    0.24
    333 z          6.761681      6.770089     0.008408    Cartesian    0.12
    334 x          4.507787      4.523003     0.015216    Cartesian    0.34
    334 y          0.000000     -0.019408    -0.019408    Cartesian    0.00
    334 z        -13.523362    -13.549195    -0.025833    Cartesian    0.19
    335 x         13.523362     13.532301     0.008939    Cartesian    0.07
    335 y          9.015574      9.035542     0.019968    Cartesian    0.22
    335 z         -4.507787     -4.515574    -0.007787    Cartesian    0.17
    336 x          4.507787      4.503199    -0.004588    Cartesian   -0.10
    336 y          9.015574      9.004246    -0.011329    Cartesian   -0.13
    336 z         13.523362     13.577616     0.054254    Cartesian    0.40
--------------------------------------------------------------------------------


  Time to end of optimisation  =      178.9078 seconds


  Peak dynamic memory used =     261.52 MB 


  Timing analysis for GULP :

--------------------------------------------------------------------------------
  Task / Subroutine                                          Time (Seconds)
--------------------------------------------------------------------------------
  Calculation of reciprocal space energy and derivatives          0.0006
  Calculation of reciprocal space energy using symmetry           0.0009
  Calculation of real space energy and derivatives                0.0036
  Calculation of real space energy using symmetry                 0.0087
  Calculation for region 1 energy and derivatives (2-b)          87.3412
  Calculation for region 2a energy                               67.4961
  Calculation for region 2b energy                                0.0165
  Calculation and manipulation of Hessian matrix                 21.7201
  Calculation of matrix inversion                                 1.9315
  Symmetry generation of equivalent positions                     0.0041
--------------------------------------------------------------------------------
  Total CPU time                                                178.9079
--------------------------------------------------------------------------------


  Dump file written as Na3OCl.grs


  Job Finished at 14:53.33  1st December   2020                               

