********************************************************************************
*                       GENERAL UTILITY LATTICE PROGRAM                        *
*                                 Julian Gale                                  *
*                       Curtin Institute for Computation                       *
*                    School of Molecular and Life Sciences                     *
*                    Curtin University, Western Australia                      *
********************************************************************************
* Version = 5.2.0 * Last modified =  10th September 2020                       *
********************************************************************************
*  optimise     - perform optimisation run                                     *
*  conp         - constant pressure calculation                                *
*  property     - calculate properties for final geometry                      *
*  defect       - perform defect calculation after bulk run                    *
*  compare      - compare initial and final structures                         *
********************************************************************************

  Job Started  at 22:51.43 30th November   2020                               

  Number of CPUs =     1


  Total number of configurations input =      1

********************************************************************************
*  Input for Configuration =   1                                               *
********************************************************************************

  Formula = ClONa3                                                      

  Number of irreducible atoms/shells =       5


  Total number atoms/shells =       7

  Dimensionality = 3               :  Bulk   


  Symmetry :

  Crystal family                   :  Cubic       
  Crystal class  (Groth - 1921)    :  Cubic Hexakisoctahedral              

  Space group (centrosymmetric)    :  P M 3 M         

  Patterson group                  :  P m -3 m 

  Cartesian lattice vectors (Angstroms) :

        4.504000    0.000000    0.000000
        0.000000    4.504000    0.000000
        0.000000    0.000000    4.504000

  Cell parameters (Angstroms/Degrees):

  a =       4.5040    alpha =  90.0000
  b =       4.5040    beta  =  90.0000
  c =       4.5040    gamma =  90.0000

  Initial cell volume =          91.368216 Angs**3

  Temperature of configuration =   0.00     K 

  Pressure of configuration =         0.000 GPa 

  Fractional coordinates of asymmetric unit :

--------------------------------------------------------------------------------
   No.  Atomic       x           y          z         Charge      Occupancy
        Label      (Frac)      (Frac)     (Frac)        (e)         (Frac)  
--------------------------------------------------------------------------------
      1 Cl    c    0.000000    0.000000    0.000000     1.48500    1.000000    
      2 O     c    0.500000    0.500000    0.500000     0.18300    1.000000    
      3 Na    c    0.500000    0.500000    0.000000     1.00000    1.000000    
      4 Cl    s    0.000000    0.000000    0.000000    -2.48500    1.000000    
      5 O     s    0.500000    0.500000    0.500000    -2.18300    1.000000    
--------------------------------------------------------------------------------


  Constraints : 

--------------------------------------------------------------------------------
  Constraint no.      Unconstrained     Constrained    Coefficient    Offset
                         Variable         Variable
--------------------------------------------------------------------------------
           1              Strain 1        Strain 2       1.00000      0.0000
           2              Strain 1        Strain 3       1.00000      0.0000
--------------------------------------------------------------------------------


********************************************************************************
*  General input information                                                   *
********************************************************************************

  Species output for all configurations : 

--------------------------------------------------------------------------------
  Species    Type    Atomic    Atomic    Charge       Radii (Angs)     Library
                     Number     Mass       (e)     Cova   Ionic  VDW   Symbol
--------------------------------------------------------------------------------
    Na       Core       11      22.99   1.000000   0.970  0.000  2.300          
    O        Core        8      16.00   0.183000   0.730  0.000  1.360          
    O        Shell       8       0.00  -2.183000   0.730  0.000  1.360          
    Cl       Core       17      35.45   1.485000   0.990  0.000  1.650          
    Cl       Shell      17       0.00  -2.485000   0.990  0.000  1.650          
    Mg       Core       12      24.31   0.415000   1.100  0.000  0.000          
    Mg       Shell      12       0.00   1.585000   1.100  0.000  0.000          
    Ca       Core       20      40.08  -1.135000   0.990  0.000  0.000          
    Ca       Shell      20       0.00   3.135000   0.990  0.000  0.000          
    Sr       Core       38      87.62  -1.251000   1.120  0.000  0.000          
    Sr       Shell      38       0.00   3.251000   1.120  0.000  0.000          
    Ba       Core       56     137.33  -7.203000   1.340  0.000  0.000          
    Ba       Shell      56       0.00   9.203000   1.340  0.000  0.000          
--------------------------------------------------------------------------------


  Lattice summation method               =    Ewald          (3-D)
                                         =    Parry          (2-D)
                                         =    Saunders et al (1-D)
  Accuracy factor for lattice sums       =   12.000


  Analytic derivatives to be used

  Time limit = Infinity

  Maximum range for interatomic potentials =    100000.000000 Angstroms

  General interatomic potentials :

--------------------------------------------------------------------------------
Atom  Types   Potential      Parameter       Value         Units   Cutoffs(Ang)
  1     2                                                            Min /  Max 
--------------------------------------------------------------------------------
O    c O    s Spring (c-s)  Spring k 2       593.71600    eV*Ang^-2 0.000  0.800
                            Spring k 4       0.0000000    eV*Ang^-4 
--------------------------------------------------------------------------------
Cl   c Cl   s Spring (c-s)  Spring k 2       29.380000    eV*Ang^-2 0.000  0.800
                            Spring k 4       0.0000000    eV*Ang^-4 
--------------------------------------------------------------------------------
Mg   c Mg   s Spring (c-s)  Spring k 2       361.60000    eV*Ang^-2 0.000  0.800
                            Spring k 4       0.0000000    eV*Ang^-4 
--------------------------------------------------------------------------------
Ca   c Ca   s Spring (c-s)  Spring k 2       110.20000    eV*Ang^-2 0.000  0.800
                            Spring k 4       0.0000000    eV*Ang^-4 
--------------------------------------------------------------------------------
Sr   c Sr   s Spring (c-s)  Spring k 2       71.700000    eV*Ang^-2 0.000  0.800
                            Spring k 4       0.0000000    eV*Ang^-4 
--------------------------------------------------------------------------------
Ba   c Ba   s Spring (c-s)  Spring k 2       495.20000    eV*Ang^-2 0.000  0.800
                            Spring k 4       0.0000000    eV*Ang^-4 
--------------------------------------------------------------------------------
Na   c Na   c Buckingham    Buckingham A     1788.1900    eV        0.000 12.000
                            Buckingham rho  0.15900000    Ang       
                            Buckingham C     0.0000000    eV*Ang^6  
--------------------------------------------------------------------------------
Na   c O    s Buckingham    Buckingham A     1226.8400    eV        0.000 12.000
                            Buckingham rho  0.30700000    Ang       
                            Buckingham C     0.0000000    eV*Ang^6  
--------------------------------------------------------------------------------
Na   c Cl   s Buckingham    Buckingham A     2314.7000    eV        0.000 12.000
                            Buckingham rho  0.29000000    Ang       
                            Buckingham C     0.0000000    eV*Ang^6  
--------------------------------------------------------------------------------
O    s O    s Buckingham    Buckingham A     22764.300    eV        0.000 12.000
                            Buckingham rho  0.14900000    Ang       
                            Buckingham C     13.190000    eV*Ang^6  
--------------------------------------------------------------------------------
O    s Cl   s Buckingham    Buckingham A     8286.9100    eV        0.000 12.000
                            Buckingham rho  0.25900000    Ang       
                            Buckingham C     62.200000    eV*Ang^6  
--------------------------------------------------------------------------------
Cl   s Cl   s Buckingham    Buckingham A     1227.2000    eV        0.000 12.000
                            Buckingham rho  0.32100000    Ang       
                            Buckingham C     14.530000    eV*Ang^6  
--------------------------------------------------------------------------------
O    s Mg   s Buckingham    Buckingham A     1428.5000    eV        0.000 12.000
                            Buckingham rho  0.29450000    Ang       
                            Buckingham C     0.0000000    eV*Ang^6  
--------------------------------------------------------------------------------
Mg   s Cl   s Buckingham    Buckingham A     4914.5400    eV        0.000 12.000
                            Buckingham rho  0.25700000    Ang       
                            Buckingham C     0.0000000    eV*Ang^6  
--------------------------------------------------------------------------------
O    s Ca   s Buckingham    Buckingham A     1090.4000    eV        0.000 12.000
                            Buckingham rho  0.34370000    Ang       
                            Buckingham C     0.0000000    eV*Ang^6  
--------------------------------------------------------------------------------
Cl   s Ca   s Buckingham    Buckingham A     2302.0000    eV        0.000 12.000
                            Buckingham rho  0.34020000    Ang       
                            Buckingham C     0.0000000    eV*Ang^6  
--------------------------------------------------------------------------------
O    s Sr   s Buckingham    Buckingham A     959.10000    eV        0.000 12.000
                            Buckingham rho  0.37210000    Ang       
                            Buckingham C     0.0000000    eV*Ang^6  
--------------------------------------------------------------------------------
Cl   s Sr   s Buckingham    Buckingham A     2191.0900    eV        0.000 12.000
                            Buckingham rho  0.34570000    Ang       
                            Buckingham C     0.0000000    eV*Ang^6  
--------------------------------------------------------------------------------
O    s Ba   s Buckingham    Buckingham A     905.70000    eV        0.000 12.000
                            Buckingham rho  0.39760000    Ang       
                            Buckingham C     0.0000000    eV*Ang^6  
--------------------------------------------------------------------------------
Cl   s Ba   s Buckingham    Buckingham A     2704.5500    eV        0.000 12.000
                            Buckingham rho  0.35280000    Ang       
                            Buckingham C     0.0000000    eV*Ang^6  
--------------------------------------------------------------------------------

********************************************************************************
*  Output for configuration   1                                                *
********************************************************************************


  Components of energy : 

--------------------------------------------------------------------------------
  Interatomic potentials     =           5.13022605 eV    
  Monopole - monopole (real) =         -10.03624526 eV    
  Monopole - monopole (recip)=         -29.53581274 eV    
  Monopole - monopole (total)=         -39.57205800 eV    
--------------------------------------------------------------------------------
  Total lattice energy       =         -34.44183194 eV    
--------------------------------------------------------------------------------
  Total lattice energy       =           -3323.1103 kJ/(mole unit cells)
--------------------------------------------------------------------------------


  Number of variables =        1

  Maximum number of calculations  =          1000
  Maximum Hessian update interval =            10
  Maximum step size               =   1.000000000
  Maximum parameter tolerance     =   0.000010000
  Maximum function  tolerance     =   0.000010000
  Maximum gradient  tolerance     =   0.001000000
  Maximum gradient  component     =   0.010000000

  Symmetry constrained optimisation

  Symmetry used for second derivatives

  Cell parameters to be optimised using strains

  Newton-Raphson optimiser to be used

  BFGS hessian update to be used

  Lower half triangular hessian to be used

  Start of bulk optimisation :

  Cycle:      0 Energy:       -34.441832  Gnorm:      0.196570  CPU:    0.014
  ** Hessian calculated **
  Cycle:      1 Energy:       -34.441914  Gnorm:      0.000103  CPU:    0.018


  **** Optimisation achieved ****


  Final energy =     -34.44191447 eV
  Final Gnorm  =       0.00000000

  Components of energy : 

--------------------------------------------------------------------------------
  Interatomic potentials     =           5.09689708 eV    
  Monopole - monopole (real) =         -10.02781331 eV    
  Monopole - monopole (recip)=         -29.51099824 eV    
  Monopole - monopole (total)=         -39.53881155 eV    
--------------------------------------------------------------------------------
  Total lattice energy       =         -34.44191447 eV    
--------------------------------------------------------------------------------
  Total lattice energy       =           -3323.1183 kJ/(mole unit cells)
--------------------------------------------------------------------------------

  Final asymmetric unit coordinates :

--------------------------------------------------------------------------------
   No.  Atomic        x           y           z         Radius
        Label       (Frac)      (Frac)      (Frac)       (Angs) 
--------------------------------------------------------------------------------
     1  Cl    c     0.000000    0.000000    0.000000    0.000000
     2  O     c     0.500000    0.500000    0.500000    0.000000
     3  Na    c     0.500000    0.500000    0.000000    0.000000
     4  Cl    s     0.000000    0.000000    0.000000    0.000000
     5  O     s     0.500000    0.500000    0.500000    0.000000
--------------------------------------------------------------------------------

  Final Cartesian lattice vectors (Angstroms) :

        4.507787    0.000000    0.000000
        0.000000    4.507787    0.000000
        0.000000    0.000000    4.507787


  Final cell parameters and derivatives :

--------------------------------------------------------------------------------
       a            4.507787 Angstrom     dE/de1(xx)     0.000000 eV/strain
       b            4.507787 Angstrom     dE/de2(yy)     0.000000 eV/strain
       c            4.507787 Angstrom     dE/de3(zz)     0.000000 eV/strain
       alpha       90.000000 Degrees      dE/de4(yz)     0.000000 eV/strain
       beta        90.000000 Degrees      dE/de5(xz)     0.000000 eV/strain
       gamma       90.000000 Degrees      dE/de6(xy)     0.000000 eV/strain
--------------------------------------------------------------------------------

  Primitive cell volume =            91.598892 Angs**3

  Density of cell =      2.183054 g/cm**3

  Non-primitive cell volume =            91.598892 Angs**3


  Final internal derivatives :

--------------------------------------------------------------------------------
   No.  Atomic          a             b             c           Radius
        Label          (eV)          (eV)          (eV)        (eV/Angs)
--------------------------------------------------------------------------------
      1 Cl    c       0.000000      0.000000      0.000000      0.000000
      2 O     c       0.000000      0.000000      0.000000      0.000000
      3 Na    c       0.000000      0.000000      0.000000      0.000000
      4 Cl    s       0.000000      0.000000      0.000000      0.000000
      5 O     s       0.000000      0.000000      0.000000      0.000000
--------------------------------------------------------------------------------
  Maximum abs         0.000000      0.000000      0.000000      0.000000
--------------------------------------------------------------------------------

  Comparison of initial and final structures : 

--------------------------------------------------------------------------------
  Parameter   Initial value   Final value   Difference    Units      Percent
--------------------------------------------------------------------------------
    Volume        91.368216     91.598892     0.230676    Angs**3      0.25
    a              4.504000      4.507787     0.003787    Angstroms    0.08
    b              4.504000      4.507787     0.003787    Angstroms    0.08
    c              4.504000      4.507787     0.003787    Angstroms    0.08
    alpha         90.000000     90.000000     0.000000    Degrees      0.00
    beta          90.000000     90.000000     0.000000    Degrees      0.00
    gamma         90.000000     90.000000     0.000000    Degrees      0.00
      1 x          0.000000      0.000000     0.000000    Fractional   0.00
      1 y          0.000000      0.000000     0.000000    Fractional   0.00
      1 z          0.000000      0.000000     0.000000    Fractional   0.00
      2 x          0.500000      0.500000     0.000000    Fractional   0.00
      2 y          0.500000      0.500000     0.000000    Fractional   0.00
      2 z          0.500000      0.500000     0.000000    Fractional   0.00
      3 x          0.500000      0.500000     0.000000    Fractional   0.00
      3 y          0.500000      0.500000     0.000000    Fractional   0.00
      3 z          0.000000      0.000000     0.000000    Fractional   0.00
      4 x          0.000000      0.000000     0.000000    Fractional   0.00
      4 y          0.000000      0.000000     0.000000    Fractional   0.00
      4 z          0.000000      0.000000     0.000000    Fractional   0.00
      5 x          0.500000      0.500000     0.000000    Fractional   0.00
      5 y          0.500000      0.500000     0.000000    Fractional   0.00
      5 z          0.500000      0.500000     0.000000    Fractional   0.00
--------------------------------------------------------------------------------


  Born effective charge tensors : 

-------------------------------------------------------------------------------
  Atom             x           y             z
-------------------------------------------------------------------------------
    1 Cl    x      -1.0181     -0.0000      0.0000
            y      -0.0000     -1.0181      0.0000
            z       0.0000      0.0000     -1.0181
-------------------------------------------------------------------------------
    2 O     x      -2.2647      0.0000     -0.0000
            y       0.0000     -2.2647     -0.0000
            z      -0.0000     -0.0000     -2.2647
-------------------------------------------------------------------------------
    3 Na    x       1.2258     -0.0000      0.0000
            y      -0.0000      1.2258     -0.0000
            z       0.0000     -0.0000      0.8313
-------------------------------------------------------------------------------




  Elastic Constant Matrix: (Units=GPa)

-------------------------------------------------------------------------------
  Indices      1         2         3         4         5         6    
-------------------------------------------------------------------------------
       1     95.8177   20.0737   20.0737   -0.0000   -0.0000    0.0000
       2     20.0737   95.8177   20.0737   -0.0000   -0.0000    0.0000
       3     20.0737   20.0737   95.8177   -0.0000   -0.0000    0.0000
       4     -0.0000   -0.0000   -0.0000   20.0737   -0.0000    0.0000
       5     -0.0000   -0.0000   -0.0000   -0.0000   20.0737    0.0000
       6      0.0000    0.0000    0.0000    0.0000    0.0000   20.0737
-------------------------------------------------------------------------------


  Elastic Compliance Matrix: (Units=1/GPa)

-------------------------------------------------------------------------------
  Indices      1         2         3         4         5         6    
-------------------------------------------------------------------------------
       1    0.011253 -0.001949 -0.001949  0.000000  0.000000 -0.000000
       2   -0.001949  0.011253 -0.001949  0.000000  0.000000  0.000000
       3   -0.001949 -0.001949  0.011253  0.000000  0.000000 -0.000000
       4    0.000000  0.000000  0.000000  0.049816  0.000000 -0.000000
       5    0.000000  0.000000  0.000000  0.000000  0.049816 -0.000000
       6   -0.000000  0.000000 -0.000000 -0.000000 -0.000000  0.049816
-------------------------------------------------------------------------------

  Mechanical properties :

-------------------------------------------------------------------------------
  Convention :                    Reuss         Voigt         Hill
-------------------------------------------------------------------------------
  Bulk  Modulus (GPa)     =      45.32174      45.32174      45.32174
  Shear Modulus (GPa)     =      24.72085      27.19304      25.95695
-------------------------------------------------------------------------------
  Velocity S-wave (km/s)  =       3.36511       3.52937       3.44822
  Velocity P-wave (km/s)  =       5.98827       6.11304       6.05098
-------------------------------------------------------------------------------
  Compressibility (1/GPa) =    0.02206447
-------------------------------------------------------------------------------
  Stress axis :                     x             y             z
-------------------------------------------------------------------------------
  Youngs Moduli (GPa)     =      88.86373      88.86373      88.86373
-------------------------------------------------------------------------------
  Poissons Ratio (x)      =                     0.17321       0.17321
  Poissons Ratio (y)      =       0.17321                     0.17321
  Poissons Ratio (z)      =       0.17321       0.17321
-------------------------------------------------------------------------------


  Piezoelectric Strain Matrix: (Units=C/m**2)

-------------------------------------------------------------------------------
  Indices      1         2         3         4         5         6    
-------------------------------------------------------------------------------
       x    -0.00000  -0.00000  -0.00000   0.00000  -0.00000  -0.00000
       y    -0.00000  -0.00000   0.00000  -0.00000   0.00000   0.00000
       z    -0.00000  -0.00000  -0.00000  -0.00000   0.00000   0.00000
-------------------------------------------------------------------------------


  Piezoelectric Stress Matrix: (Units=10**-11 C/N)

-------------------------------------------------------------------------------
  Indices      1         2         3         4         5         6    
-------------------------------------------------------------------------------
       x    -0.00000   0.00000   0.00000   0.00000  -0.00000  -0.00000
       y    -0.00000  -0.00000   0.00000  -0.00000   0.00000   0.00000
       z     0.00000   0.00000  -0.00000  -0.00000   0.00000   0.00000
-------------------------------------------------------------------------------


  Static dielectric constant tensor : 

-------------------------------------------------------------------------------
              x         y         z
-------------------------------------------------------------------------------
       x    22.84729   0.00000   0.00000
       y     0.00000  22.84729  -0.00000
       z     0.00000  -0.00000  22.84729
--------------------------------------------------------------------------------

  High frequency dielectric constant tensor : 

-------------------------------------------------------------------------------
              x         y         z
-------------------------------------------------------------------------------
       x     1.47557   0.00000  -0.00000
       y     0.00000   1.47557  -0.00000
       z    -0.00000  -0.00000   1.47557
-------------------------------------------------------------------------------

  Static refractive indices : 

-------------------------------------------------------------------------------
    1 =    4.77988      2 =    4.77988      3 =    4.77988
-------------------------------------------------------------------------------

  High frequency refractive indices : 

-------------------------------------------------------------------------------
    1 =    1.21473      2 =    1.21473      3 =    1.21473
-------------------------------------------------------------------------------


  Time to end of optimisation =       0.0267 seconds

********************************************************************************
*  Defect calculation for configuration   1 :                                  *
********************************************************************************

  Total number of defects =      3

  Total charge on defect  =  -1.00

  Defect centre is at   0.5000   0.2700   0.2300  Frac

  Region 1 radius =  12.0000      Number of ions =    555

  Number of symmetry inequivalent region 1 ions  =    321

  Region 2 radius =  16.0000      Number of ions =    764

  Number of symmetry inequivalent region 2a ions =    417

  Region 2a mode = 4 : screened electrostatics due to region 1 
                       neglect correction to region 1 forces from 2a
                       region 2a displacements based on defects only

  Region 2a ions will only interact with defects in region 1

  Vacancies:

--------------------------------------------------------------------------------
    Specification type     Symbol/Number         x          y          z
--------------------------------------------------------------------------------
    Fractional                               0.500000   0.500000   0.000000
    Fractional                               0.500000   0.000000   0.500000
--------------------------------------------------------------------------------

  Interstitials:

--------------------------------------------------------------------------------
    Specification type     Symbol/Number         x          y          z
--------------------------------------------------------------------------------
    Atom/Fractional         Na               0.500000   0.270000   0.230000
--------------------------------------------------------------------------------


  Symmetry reduced region 1 (Relative to defect centre) :

--------------------------------------------------------------------------------
   No.   Atomic       x            y             z       Radius  Multiplicity   
         Label      (Angs)       (Angs)        (Angs)    (Angs)     
--------------------------------------------------------------------------------
     1  Na    c      0.0000       0.0000 *     0.0000 *  0.0000     1    Defect
     2  O     c      0.0000       1.0368 *     1.2171 *  0.0000     1          
     3  Cl    c      2.2539 *    -1.2171 *    -1.0368 *  0.0000     2          
     4  Na    c      2.2539 *     1.0368 *     1.2171 *  0.0000     2          
     5  O     c      0.0000       1.0368 *    -3.2907 *  0.0000     1          
     6  Na    c      0.0000      -1.2171 *    -3.2907 *  0.0000     1          
     7  Na    c      0.0000       3.2907 *     1.2171 *  0.0000     1          
     8  Na    c      0.0000       1.0368 *     3.4710 *  0.0000     1          
     9  Na    c      0.0000      -3.4710 *    -1.0368 *  0.0000     1          
    10  O     c      0.0000      -3.4710 *     1.2171 *  0.0000     1          
    11  Cl    c      2.2539 *     3.2907 *    -1.0368 *  0.0000     2          
    12  Na    c      2.2539 *     1.0368 *    -3.2907 *  0.0000     2          
    13  Cl    c      2.2539 *    -1.2171 *     3.4710 *  0.0000     2          
    14  Na    c      2.2539 *    -3.4710 *     1.2171 *  0.0000     2          
    15  Na    c      0.0000       3.2907 *    -3.2907 *  0.0000     1          
    16  Na    c     -4.5078 *     1.0368 *    -1.0368 *  0.0000     2          
    17  O     c     -4.5078 *     1.0368 *     1.2171 *  0.0000     2          
    18  O     c      0.0000      -3.4710 *    -3.2907 *  0.0000     1          
    19  Na    c     -4.5078 *    -1.2171 *     1.2171 *  0.0000     2          
    20  Na    c      0.0000      -3.4710 *     3.4710 *  0.0000     1          
    21  Cl    c      2.2539 *     3.2907 *     3.4710 *  0.0000     2          
    22  Na    c      2.2539 *    -3.4710 *    -3.2907 *  0.0000     2          
    23  Na    c      0.0000       1.0368 *    -5.5446 *  0.0000     1          
    24  Na    c      0.0000       5.5446 *    -1.0368 *  0.0000     1          
    25  O     c      0.0000       5.5446 *     1.2171 *  0.0000     1          
    26  O     c     -4.5078 *     1.0368 *    -3.2907 *  0.0000     2          
    27  Na    c     -4.5078 *    -1.2171 *    -3.2907 *  0.0000     2          
    28  Na    c     -4.5078 *     3.2907 *     1.2171 *  0.0000     2          
    29  Na    c     -4.5078 *     1.0368 *     3.4710 *  0.0000     2          
    30  Na    c     -4.5078 *    -3.4710 *    -1.0368 *  0.0000     2          
    31  O     c      0.0000       1.0368 *     5.7249 *  0.0000     1          
    32  O     c     -4.5078 *    -3.4710 *     1.2171 *  0.0000     2          
    33  Na    c      0.0000      -1.2171 *     5.7249 *  0.0000     1          
    34  Na    c      0.0000      -5.7249 *     1.2171 *  0.0000     1          
    35  Cl    c      2.2539 *    -1.2171 *    -5.5446 *  0.0000     2          
    36  Na    c      2.2539 *     5.5446 *     1.2171 *  0.0000     2          
    37  Cl    c      2.2539 *    -5.7249 *    -1.0368 *  0.0000     2          
    38  Na    c      2.2539 *     1.0368 *     5.7249 *  0.0000     2          
    39  O     c      0.0000       5.5446 *    -3.2907 *  0.0000     1          
    40  Na    c     -4.5078 *     3.2907 *    -3.2907 *  0.0000     2          
    41  Na    c      0.0000       5.5446 *     3.4710 *  0.0000     1          
    42  Na    c      0.0000      -3.4710 *    -5.5446 *  0.0000     1          
    43  O     c     -4.5078 *    -3.4710 *    -3.2907 *  0.0000     2          
    44  Na    c      0.0000       3.2907 *     5.7249 *  0.0000     1          
    45  Na    c      0.0000      -5.7249 *    -3.2907 *  0.0000     1          
    46  Na    c     -4.5078 *    -3.4710 *     3.4710 *  0.0000     2          
    47  O     c      0.0000      -3.4710 *     5.7249 *  0.0000     1          
    48  Cl    c      2.2539 *     3.2907 *    -5.5446 *  0.0000     2          
    49  Na    c      2.2539 *     5.5446 *    -3.2907 *  0.0000     2          
    50  Cl    c      6.7617 *    -1.2171 *    -1.0368 *  0.0000     2          
    51  Na    c      6.7617 *     1.0368 *     1.2171 *  0.0000     2          
    52  Cl    c      2.2539 *    -5.7249 *     3.4710 *  0.0000     2          
    53  Na    c      2.2539 *    -3.4710 *     5.7249 *  0.0000     2          
    54  Na    c     -4.5078 *     1.0368 *    -5.5446 *  0.0000     2          
    55  Na    c     -4.5078 *     5.5446 *    -1.0368 *  0.0000     2          
    56  O     c     -4.5078 *     5.5446 *     1.2171 *  0.0000     2          
    57  O     c     -4.5078 *     1.0368 *     5.7249 *  0.0000     2          
    58  Na    c     -4.5078 *    -1.2171 *     5.7249 *  0.0000     2          
    59  Na    c      4.5078 *    -5.7249 *     1.2171 *  0.0000     2          
    60  Cl    c      6.7617 *     3.2907 *    -1.0368 *  0.0000     2          
    61  Na    c      6.7617 *     1.0368 *    -3.2907 *  0.0000     2          
    62  Cl    c      6.7617 *    -1.2171 *     3.4710 *  0.0000     2          
    63  Na    c      6.7617 *    -3.4710 *     1.2171 *  0.0000     2          
    64  Na    c      0.0000       5.5446 *    -5.5446 *  0.0000     1          
    65  O     c     -4.5078 *     5.5446 *    -3.2907 *  0.0000     2          
    66  O     c      0.0000       1.0368 *    -7.7985 *  0.0000     1          
    67  Na    c      0.0000       7.7985 *     1.2171 *  0.0000     1          
    68  Na    c      0.0000      -1.2171 *    -7.7985 *  0.0000     1          
    69  Na    c     -4.5078 *     5.5446 *     3.4710 *  0.0000     2          
    70  Na    c     -4.5078 *    -3.4710 *    -5.5446 *  0.0000     2          
    71  O     c      0.0000       5.5446 *     5.7249 *  0.0000     1          
    72  Na    c     -4.5078 *     3.2907 *     5.7249 *  0.0000     2          
    73  Na    c      4.5078 *    -5.7249 *    -3.2907 *  0.0000     2          
    74  Na    c      0.0000       1.0368 *     7.9788 *  0.0000     1          
    75  Na    c      0.0000      -7.9788 *    -1.0368 *  0.0000     1          
    76  O     c      0.0000      -7.9788 *     1.2171 *  0.0000     1          
    77  O     c      4.5078 *    -3.4710 *     5.7249 *  0.0000     2          
    78  Na    c      0.0000      -5.7249 *     5.7249 *  0.0000     1          
    79  Cl    c      2.2539 *     7.7985 *    -1.0368 *  0.0000     2          
    80  Na    c      2.2539 *     1.0368 *    -7.7985 *  0.0000     2          
    81  Cl    c      2.2539 *    -5.7249 *    -5.5446 *  0.0000     2          
    82  Cl    c      6.7617 *     3.2907 *     3.4710 *  0.0000     2          
    83  Na    c      2.2539 *     5.5446 *     5.7249 *  0.0000     2          
    84  Na    c      6.7617 *    -3.4710 *    -3.2907 *  0.0000     2          
    85  Cl    c      2.2539 *    -1.2171 *     7.9788 *  0.0000     2          
    86  Na    c      2.2539 *    -7.9788 *     1.2171 *  0.0000     2          
    87  Na    c      0.0000       7.7985 *    -3.2907 *  0.0000     1          
    88  Na    c      0.0000       3.2907 *    -7.7985 *  0.0000     1          
    89  O     c      0.0000      -3.4710 *    -7.7985 *  0.0000     1          
    90  O     c      0.0000      -7.9788 *    -3.2907 *  0.0000     1          
    91  Na    c      0.0000      -3.4710 *     7.9788 *  0.0000     1          
    92  Na    c      0.0000      -7.9788 *     3.4710 *  0.0000     1          
    93  Cl    c      2.2539 *     7.7985 *     3.4710 *  0.0000     2          
    94  Na    c      6.7617 *     5.5446 *     1.2171 *  0.0000     2          
    95  Cl    c      6.7617 *    -1.2171 *    -5.5446 *  0.0000     2          
    96  Na    c      2.2539 *    -3.4710 *    -7.7985 *  0.0000     2          
    97  Cl    c      2.2539 *     3.2907 *     7.9788 *  0.0000     2          
    98  Na    c      2.2539 *    -7.9788 *    -3.2907 *  0.0000     2          
    99  Cl    c      6.7617 *    -5.7249 *    -1.0368 *  0.0000     2          
   100  Na    c      6.7617 *     1.0368 *     5.7249 *  0.0000     2          
   101  Na    c     -4.5078 *     5.5446 *    -5.5446 *  0.0000     2          
   102  O     c     -4.5078 *     1.0368 *    -7.7985 *  0.0000     2          
   103  Na    c     -4.5078 *     7.7985 *     1.2171 *  0.0000     2          
   104  Na    c     -4.5078 *    -1.2171 *    -7.7985 *  0.0000     2          
   105  Na    c      9.0156 *     1.0368 *    -1.0368 *  0.0000     2          
   106  O     c      4.5078 *     5.5446 *     5.7249 *  0.0000     2          
   107  O     c      9.0156 *     1.0368 *     1.2171 *  0.0000     2          
   108  Na    c      9.0156 *    -1.2171 *     1.2171 *  0.0000     2          
   109  Na    c      4.5078 *     1.0368 *     7.9788 *  0.0000     2          
   110  Na    c      4.5078 *    -7.9788 *    -1.0368 *  0.0000     2          
   111  O     c      4.5078 *    -7.9788 *     1.2171 *  0.0000     2          
   112  Na    c      4.5078 *    -5.7249 *     5.7249 *  0.0000     2          
   113  Cl    c      6.7617 *     3.2907 *    -5.5446 *  0.0000     2          
   114  Na    c      6.7617 *     5.5446 *    -3.2907 *  0.0000     2          
   115  Cl    c      6.7617 *    -5.7249 *     3.4710 *  0.0000     2          
   116  Na    c      6.7617 *    -3.4710 *     5.7249 *  0.0000     2          
   117  O     c      0.0000       5.5446 *    -7.7985 *  0.0000     1          
   118  Na    c     -4.5078 *     7.7985 *    -3.2907 *  0.0000     2          
   119  Na    c      4.5078 *     3.2907 *    -7.7985 *  0.0000     2          
   120  O     c      4.5078 *    -3.4710 *    -7.7985 *  0.0000     2          
   121  O     c      9.0156 *     1.0368 *    -3.2907 *  0.0000     2          
   122  Na    c      0.0000       7.7985 *     5.7249 *  0.0000     1          
   123  Na    c      9.0156 *    -1.2171 *    -3.2907 *  0.0000     2          
   124  Na    c      9.0156 *     3.2907 *     1.2171 *  0.0000     2          
   125  Na    c      0.0000      -5.7249 *    -7.7985 *  0.0000     1          
   126  Na    c      0.0000       5.5446 *     7.9788 *  0.0000     1          
   127  Na    c      0.0000      -7.9788 *    -5.5446 *  0.0000     1          
   128  Na    c      9.0156 *     1.0368 *     3.4710 *  0.0000     2          
   129  Na    c      9.0156 *    -3.4710 *    -1.0368 *  0.0000     2          
   130  O     c      4.5078 *    -7.9788 *    -3.2907 *  0.0000     2          
   131  O     c      9.0156 *    -3.4710 *     1.2171 *  0.0000     2          
   132  Na    c     -4.5078 *    -3.4710 *     7.9788 *  0.0000     2          
   133  Na    c      4.5078 *    -7.9788 *     3.4710 *  0.0000     2          
   134  O     c      0.0000      -7.9788 *     5.7249 *  0.0000     1          
   135  Cl    c      2.2539 *     7.7985 *    -5.5446 *  0.0000     2          
   136  Na    c      2.2539 *     5.5446 *    -7.7985 *  0.0000     2          
   137  Cl    c      2.2539 *    -5.7249 *     7.9788 *  0.0000     2          
   138  Na    c      2.2539 *    -7.9788 *     5.7249 *  0.0000     2          
   139  Na    c      0.0000       1.0368 *   -10.0524 *  0.0000     1          
   140  Na    c      0.0000      10.0524 *    -1.0368 *  0.0000     1          
   141  O     c      0.0000      10.0524 *     1.2171 *  0.0000     1          
   142  Na    c      9.0156 *     3.2907 *    -3.2907 *  0.0000     2          
   143  O     c      9.0156 *    -3.4710 *    -3.2907 *  0.0000     2          
   144  Na    c      9.0156 *    -3.4710 *     3.4710 *  0.0000     2          
   145  O     c      0.0000       1.0368 *    10.2327 *  0.0000     1          
   146  Na    c      0.0000      -1.2171 *    10.2327 *  0.0000     1          
   147  Na    c      0.0000     -10.2327 *     1.2171 *  0.0000     1          
   148  Cl    c      2.2539 *    -1.2171 *   -10.0524 *  0.0000     2          
   149  Cl    c      6.7617 *     7.7985 *    -1.0368 *  0.0000     2          
   150  Na    c      2.2539 *    10.0524 *     1.2171 *  0.0000     2          
   151  Na    c      6.7617 *     1.0368 *    -7.7985 *  0.0000     2          
   152  Cl    c      6.7617 *    -5.7249 *    -5.5446 *  0.0000     2          
   153  Na    c      6.7617 *     5.5446 *     5.7249 *  0.0000     2          
   154  Cl    c      6.7617 *    -1.2171 *     7.9788 *  0.0000     2          
   155  Na    c      6.7617 *    -7.9788 *     1.2171 *  0.0000     2          
   156  Cl    c      2.2539 *   -10.2327 *    -1.0368 *  0.0000     2          
   157  Na    c      2.2539 *     1.0368 *    10.2327 *  0.0000     2          
   158  O     c      0.0000      10.0524 *    -3.2907 *  0.0000     1          
   159  O     c     -4.5078 *     5.5446 *    -7.7985 *  0.0000     2          
   160  Na    c      9.0156 *     1.0368 *    -5.5446 *  0.0000     2          
   161  Na    c      9.0156 *     5.5446 *    -1.0368 *  0.0000     2          
   162  Na    c      0.0000      10.0524 *     3.4710 *  0.0000     1          
   163  Na    c      0.0000      -3.4710 *   -10.0524 *  0.0000     1          
   164  O     c      9.0156 *     5.5446 *     1.2171 *  0.0000     2          
   165  Na    c     -4.5078 *     7.7985 *     5.7249 *  0.0000     2          
   166  Na    c      4.5078 *    -5.7249 *    -7.7985 *  0.0000     2          
   167  Na    c     -4.5078 *     5.5446 *     7.9788 *  0.0000     2          
   168  Na    c      4.5078 *    -7.9788 *    -5.5446 *  0.0000     2          
   169  O     c      9.0156 *     1.0368 *     5.7249 *  0.0000     2          
   170  Na    c      9.0156 *    -1.2171 *     5.7249 *  0.0000     2          
   171  Na    c      9.0156 *    -5.7249 *     1.2171 *  0.0000     2          
   172  Na    c      0.0000       3.2907 *    10.2327 *  0.0000     1          
   173  Na    c      0.0000     -10.2327 *    -3.2907 *  0.0000     1          
   174  O     c      4.5078 *    -7.9788 *     5.7249 *  0.0000     2          
   175  O     c      0.0000      -3.4710 *    10.2327 *  0.0000     1          
   176  Cl    c      2.2539 *     3.2907 *   -10.0524 *  0.0000     2          
   177  Na    c      2.2539 *    10.0524 *    -3.2907 *  0.0000     2          
   178  Cl    c      6.7617 *     7.7985 *     3.4710 *  0.0000     2          
   179  Na    c      6.7617 *    -3.4710 *    -7.7985 *  0.0000     2          
   180  Cl    c      6.7617 *     3.2907 *     7.9788 *  0.0000     2          
   181  Na    c      6.7617 *    -7.9788 *    -3.2907 *  0.0000     2          
   182  Na    c      0.0000       7.7985 *    -7.7985 *  0.0000     1          
   183  Cl    c      2.2539 *   -10.2327 *     3.4710 *  0.0000     2          
   184  Na    c      2.2539 *    -3.4710 *    10.2327 *  0.0000     2          
   185  Na    c      4.5078 *     1.0368 *   -10.0524 *  0.0000     2          
   186  Na    c     -4.5078 *    10.0524 *    -1.0368 *  0.0000     2          
   187  O     c      9.0156 *     5.5446 *    -3.2907 *  0.0000     2          
   188  O     c     -4.5078 *    10.0524 *     1.2171 *  0.0000     2          
   189  Na    c      9.0156 *     5.5446 *     3.4710 *  0.0000     2          
   190  Na    c      9.0156 *    -3.4710 *    -5.5446 *  0.0000     2          
   191  O     c      0.0000      -7.9788 *    -7.7985 *  0.0000     1          
   192  Na    c      9.0156 *     3.2907 *     5.7249 *  0.0000     2          
   193  Na    c      9.0156 *    -5.7249 *    -3.2907 *  0.0000     2          
   194  O     c      9.0156 *    -3.4710 *     5.7249 *  0.0000     2          
   195  O     c     -4.5078 *     1.0368 *    10.2327 *  0.0000     2          
   196  Na    c     -4.5078 *    -1.2171 *    10.2327 *  0.0000     2          
   197  Na    c     -4.5078 *   -10.2327 *     1.2171 *  0.0000     2          
   198  Na    c      0.0000      -7.9788 *     7.9788 *  0.0000     1          
   199  Cl    c     11.2695 *    -1.2171 *    -1.0368 *  0.0000     2          
   200  Na    c     11.2695 *     1.0368 *     1.2171 *  0.0000     2          
   201  Cl    c      2.2539 *     7.7985 *     7.9788 *  0.0000     2          
   202  Na    c      2.2539 *    -7.9788 *    -7.7985 *  0.0000     2          
   203  Na    c      0.0000       5.5446 *   -10.0524 *  0.0000     1          
   204  Na    c      0.0000      10.0524 *    -5.5446 *  0.0000     1          
   205  O     c     -4.5078 *    10.0524 *    -3.2907 *  0.0000     2          
   206  Na    c     -4.5078 *    10.0524 *     3.4710 *  0.0000     2          
   207  Na    c     -4.5078 *    -3.4710 *   -10.0524 *  0.0000     2          
   208  O     c      0.0000      10.0524 *     5.7249 *  0.0000     1          
   209  O     c      0.0000       5.5446 *    10.2327 *  0.0000     1          
   210  Na    c      4.5078 *     3.2907 *    10.2327 *  0.0000     2          
   211  Na    c      4.5078 *   -10.2327 *    -3.2907 *  0.0000     2          
   212  O     c      4.5078 *    -3.4710 *    10.2327 *  0.0000     2          
   213  Cl    c      6.7617 *     7.7985 *    -5.5446 *  0.0000     2          
   214  Na    c      6.7617 *     5.5446 *    -7.7985 *  0.0000     2          
   215  Na    c      0.0000      -5.7249 *    10.2327 *  0.0000     1          
   216  Na    c      0.0000     -10.2327 *     5.7249 *  0.0000     1          
   217  Cl    c     11.2695 *     3.2907 *    -1.0368 *  0.0000     2          
   218  Na    c     11.2695 *     1.0368 *    -3.2907 *  0.0000     2          
   219  Cl    c      2.2539 *    -5.7249 *   -10.0524 *  0.0000     2          
   220  Na    c      2.2539 *    10.0524 *     5.7249 *  0.0000     2          
   221  Cl    c     11.2695 *    -1.2171 *     3.4710 *  0.0000     2          
   222  Na    c     11.2695 *    -3.4710 *     1.2171 *  0.0000     2          
   223  Cl    c      2.2539 *   -10.2327 *    -5.5446 *  0.0000     2          
   224  Na    c      2.2539 *     5.5446 *    10.2327 *  0.0000     2          
   225  Na    c      4.5078 *     7.7985 *    -7.7985 *  0.0000     2          
   226  Cl    c      6.7617 *    -5.7249 *     7.9788 *  0.0000     2          
   227  Na    c      6.7617 *    -7.9788 *     5.7249 *  0.0000     2          
   228  Na    c      9.0156 *     5.5446 *    -5.5446 *  0.0000     2          
   229  O     c      9.0156 *     1.0368 *    -7.7985 *  0.0000     2          
   230  Na    c      9.0156 *    -1.2171 *    -7.7985 *  0.0000     2          
   231  Na    c      9.0156 *     7.7985 *     1.2171 *  0.0000     2          
   232  O     s      0.0000       1.0368 *     1.2171 *  0.0000     1          
   233  Cl    s      2.2539 *    -1.2171 *    -1.0368 *  0.0000     2          
   234  O     s      0.0000       1.0368 *    -3.2907 *  0.0000     1          
   235  O     s      0.0000      -3.4710 *     1.2171 *  0.0000     1          
   236  Cl    s      2.2539 *     3.2907 *    -1.0368 *  0.0000     2          
   237  Cl    s      2.2539 *    -1.2171 *     3.4710 *  0.0000     2          
   238  O     s     -4.5078 *     1.0368 *     1.2171 *  0.0000     2          
   239  O     s      0.0000      -3.4710 *    -3.2907 *  0.0000     1          
   240  Cl    s      2.2539 *     3.2907 *     3.4710 *  0.0000     2          
   241  O     s      0.0000       5.5446 *     1.2171 *  0.0000     1          
   242  O     s     -4.5078 *     1.0368 *    -3.2907 *  0.0000     2          
   243  O     s      0.0000       1.0368 *     5.7249 *  0.0000     1          
   244  O     s     -4.5078 *    -3.4710 *     1.2171 *  0.0000     2          
   245  Cl    s      2.2539 *    -1.2171 *    -5.5446 *  0.0000     2          
   246  Cl    s      2.2539 *    -5.7249 *    -1.0368 *  0.0000     2          
   247  O     s      0.0000       5.5446 *    -3.2907 *  0.0000     1          
   248  O     s     -4.5078 *    -3.4710 *    -3.2907 *  0.0000     2          
   249  O     s      0.0000      -3.4710 *     5.7249 *  0.0000     1          
   250  Cl    s      2.2539 *     3.2907 *    -5.5446 *  0.0000     2          
   251  Cl    s      6.7617 *    -1.2171 *    -1.0368 *  0.0000     2          
   252  Cl    s      2.2539 *    -5.7249 *     3.4710 *  0.0000     2          
   253  O     s     -4.5078 *     5.5446 *     1.2171 *  0.0000     2          
   254  O     s     -4.5078 *     1.0368 *     5.7249 *  0.0000     2          
   255  Cl    s      6.7617 *     3.2907 *    -1.0368 *  0.0000     2          
   256  Cl    s      6.7617 *    -1.2171 *     3.4710 *  0.0000     2          
   257  O     s     -4.5078 *     5.5446 *    -3.2907 *  0.0000     2          
   258  O     s      0.0000       1.0368 *    -7.7985 *  0.0000     1          
   259  O     s      0.0000       5.5446 *     5.7249 *  0.0000     1          
   260  O     s      0.0000      -7.9788 *     1.2171 *  0.0000     1          
   261  O     s      4.5078 *    -3.4710 *     5.7249 *  0.0000     2          
   262  Cl    s      2.2539 *     7.7985 *    -1.0368 *  0.0000     2          
   263  Cl    s      2.2539 *    -5.7249 *    -5.5446 *  0.0000     2          
   264  Cl    s      6.7617 *     3.2907 *     3.4710 *  0.0000     2          
   265  Cl    s      2.2539 *    -1.2171 *     7.9788 *  0.0000     2          
   266  O     s      0.0000      -3.4710 *    -7.7985 *  0.0000     1          
   267  O     s      0.0000      -7.9788 *    -3.2907 *  0.0000     1          
   268  Cl    s      2.2539 *     7.7985 *     3.4710 *  0.0000     2          
   269  Cl    s      6.7617 *    -1.2171 *    -5.5446 *  0.0000     2          
   270  Cl    s      2.2539 *     3.2907 *     7.9788 *  0.0000     2          
   271  Cl    s      6.7617 *    -5.7249 *    -1.0368 *  0.0000     2          
   272  O     s     -4.5078 *     1.0368 *    -7.7985 *  0.0000     2          
   273  O     s      4.5078 *     5.5446 *     5.7249 *  0.0000     2          
   274  O     s      9.0156 *     1.0368 *     1.2171 *  0.0000     2          
   275  O     s      4.5078 *    -7.9788 *     1.2171 *  0.0000     2          
   276  Cl    s      6.7617 *     3.2907 *    -5.5446 *  0.0000     2          
   277  Cl    s      6.7617 *    -5.7249 *     3.4710 *  0.0000     2          
   278  O     s      0.0000       5.5446 *    -7.7985 *  0.0000     1          
   279  O     s      4.5078 *    -3.4710 *    -7.7985 *  0.0000     2          
   280  O     s      9.0156 *     1.0368 *    -3.2907 *  0.0000     2          
   281  O     s      4.5078 *    -7.9788 *    -3.2907 *  0.0000     2          
   282  O     s      9.0156 *    -3.4710 *     1.2171 *  0.0000     2          
   283  O     s      0.0000      -7.9788 *     5.7249 *  0.0000     1          
   284  Cl    s      2.2539 *     7.7985 *    -5.5446 *  0.0000     2          
   285  Cl    s      2.2539 *    -5.7249 *     7.9788 *  0.0000     2          
   286  O     s      0.0000      10.0524 *     1.2171 *  0.0000     1          
   287  O     s      9.0156 *    -3.4710 *    -3.2907 *  0.0000     2          
   288  O     s      0.0000       1.0368 *    10.2327 *  0.0000     1          
   289  Cl    s      2.2539 *    -1.2171 *   -10.0524 *  0.0000     2          
   290  Cl    s      6.7617 *     7.7985 *    -1.0368 *  0.0000     2          
   291  Cl    s      6.7617 *    -5.7249 *    -5.5446 *  0.0000     2          
   292  Cl    s      6.7617 *    -1.2171 *     7.9788 *  0.0000     2          
   293  Cl    s      2.2539 *   -10.2327 *    -1.0368 *  0.0000     2          
   294  O     s      0.0000      10.0524 *    -3.2907 *  0.0000     1          
   295  O     s     -4.5078 *     5.5446 *    -7.7985 *  0.0000     2          
   296  O     s      9.0156 *     5.5446 *     1.2171 *  0.0000     2          
   297  O     s      9.0156 *     1.0368 *     5.7249 *  0.0000     2          
   298  O     s      4.5078 *    -7.9788 *     5.7249 *  0.0000     2          
   299  O     s      0.0000      -3.4710 *    10.2327 *  0.0000     1          
   300  Cl    s      2.2539 *     3.2907 *   -10.0524 *  0.0000     2          
   301  Cl    s      6.7617 *     7.7985 *     3.4710 *  0.0000     2          
   302  Cl    s      6.7617 *     3.2907 *     7.9788 *  0.0000     2          
   303  Cl    s      2.2539 *   -10.2327 *     3.4710 *  0.0000     2          
   304  O     s      9.0156 *     5.5446 *    -3.2907 *  0.0000     2          
   305  O     s     -4.5078 *    10.0524 *     1.2171 *  0.0000     2          
   306  O     s      0.0000      -7.9788 *    -7.7985 *  0.0000     1          
   307  O     s      9.0156 *    -3.4710 *     5.7249 *  0.0000     2          
   308  O     s     -4.5078 *     1.0368 *    10.2327 *  0.0000     2          
   309  Cl    s     11.2695 *    -1.2171 *    -1.0368 *  0.0000     2          
   310  Cl    s      2.2539 *     7.7985 *     7.9788 *  0.0000     2          
   311  O     s     -4.5078 *    10.0524 *    -3.2907 *  0.0000     2          
   312  O     s      0.0000      10.0524 *     5.7249 *  0.0000     1          
   313  O     s      0.0000       5.5446 *    10.2327 *  0.0000     1          
   314  O     s      4.5078 *    -3.4710 *    10.2327 *  0.0000     2          
   315  Cl    s      6.7617 *     7.7985 *    -5.5446 *  0.0000     2          
   316  Cl    s     11.2695 *     3.2907 *    -1.0368 *  0.0000     2          
   317  Cl    s      2.2539 *    -5.7249 *   -10.0524 *  0.0000     2          
   318  Cl    s     11.2695 *    -1.2171 *     3.4710 *  0.0000     2          
   319  Cl    s      2.2539 *   -10.2327 *    -5.5446 *  0.0000     2          
   320  Cl    s      6.7617 *    -5.7249 *     7.9788 *  0.0000     2          
   321  O     s      9.0156 *     1.0368 *    -7.7985 *  0.0000     2          
--------------------------------------------------------------------------------

  Components of defect energy : 

--------------------------------------------------------------------------------
  Region 1 - region 1                   =      6.18784168 eV
  Region 1 - region 2a (unrelaxed)      =      4.51445765 eV
  Region 1 - 2a (relaxed - correction)  =     -0.28231892 eV
  Region 1 (Total)                      =     10.41998042 eV
  Region 2a                             =      0.14108835 eV
  Region 2b                             =     -0.43103944 eV
--------------------------------------------------------------------------------
  Total defect energy                   =     10.13002933 eV
--------------------------------------------------------------------------------

  Largest displacement in region 2 =   0.0203 Angstroms


  Number of variables =      876

  Maximum number of calculations  =        1000
  Maximum Hessian update interval =          10
  Maximum step size               =   1.0000000
  Maximum parameter tolerance     =   0.0000100
  Maximum function  tolerance     =   0.0000100
  Maximum gradient  tolerance     =   0.0010000

  Symmetry adapted optimisation

  Symmetry to be used for second derivatives

  Newton-Raphson optimiser to be used

  BFGS hessian update to be used

  Lower half triangular hessian to be used

  Start of defect optimisation :

  Cycle:      0 Defect Energy:  10.130029  Gnorm:     0.028483  CPU:    2.685
  ** Hessian calculated **
  Cycle:      1 Defect Energy:   8.833310  Gnorm:     0.023410  CPU:   12.776
  Cycle:      2 Defect Energy:   8.262915  Gnorm:     0.020653  CPU:   18.588
  ** Hessian calculated **
  Cycle:      3 Defect Energy:   6.209687  Gnorm:     0.008531  CPU:   24.006
  Cycle:      4 Defect Energy:   5.748679  Gnorm:     0.004447  CPU:   27.497
  Cycle:      5 Defect Energy:   5.682501  Gnorm:     0.003254  CPU:   28.560
  Cycle:      6 Defect Energy:   5.607401  Gnorm:     0.002382  CPU:   29.497
  Cycle:      7 Defect Energy:   5.521637  Gnorm:     0.001876  CPU:   30.438
  Cycle:      8 Defect Energy:   5.431634  Gnorm:     0.001838  CPU:   31.393
  Cycle:      9 Defect Energy:   5.359042  Gnorm:     0.001765  CPU:   32.353
  Cycle:     10 Defect Energy:   5.299889  Gnorm:     0.001960  CPU:   33.374
  Cycle:     11 Defect Energy:   5.239565  Gnorm:     0.002281  CPU:   34.277
  Cycle:     12 Defect Energy:   5.176391  Gnorm:     0.002355  CPU:   35.168
  ** Hessian calculated **
  Cycle:     13 Defect Energy:   5.141887  Gnorm:     0.001479  CPU:   37.563
  Cycle:     14 Defect Energy:   5.113165  Gnorm:     0.001354  CPU:   39.703
  Cycle:     15 Defect Energy:   5.078079  Gnorm:     0.001294  CPU:   43.236
  Cycle:     16 Defect Energy:   5.035373  Gnorm:     0.001272  CPU:   44.380
  Cycle:     17 Defect Energy:   4.982545  Gnorm:     0.001399  CPU:   45.503
  Cycle:     18 Defect Energy:   4.921077  Gnorm:     0.001480  CPU:   46.625
  Cycle:     19 Defect Energy:   4.862619  Gnorm:     0.001652  CPU:   47.691
  Cycle:     20 Defect Energy:   4.826091  Gnorm:     0.001647  CPU:   48.980
  Cycle:     21 Defect Energy:   4.790315  Gnorm:     0.001607  CPU:   50.086
  Cycle:     22 Defect Energy:   4.746796  Gnorm:     0.001537  CPU:   51.168
  ** Hessian calculated **
  Cycle:     23 Defect Energy:   4.715392  Gnorm:     0.001505  CPU:   53.944
  Cycle:     24 Defect Energy:   4.638796  Gnorm:     0.001379  CPU:   54.985
  Cycle:     25 Defect Energy:   4.537329  Gnorm:     0.001108  CPU:   56.006
  Cycle:     26 Defect Energy:   4.513416  Gnorm:     0.001089  CPU:   57.057
  ** Hessian calculated **
  Cycle:     27 Defect Energy:   4.483809  Gnorm:     0.000949  CPU:   59.693
  ** Hessian calculated **
  Cycle:     28 Defect Energy:   4.440741  Gnorm:     0.000668  CPU:   62.310
  Cycle:     29 Defect Energy:   4.419408  Gnorm:     0.000470  CPU:   63.227
  Cycle:     30 Defect Energy:   4.408199  Gnorm:     0.000326  CPU:   64.160
  Cycle:     31 Defect Energy:   4.402119  Gnorm:     0.000231  CPU:   65.082
  Cycle:     32 Defect Energy:   4.398596  Gnorm:     0.000156  CPU:   66.067
  Cycle:     33 Defect Energy:   4.396357  Gnorm:     0.000107  CPU:   66.976
  Cycle:     34 Defect Energy:   4.395110  Gnorm:     0.000063  CPU:   67.868
  Cycle:     35 Defect Energy:   4.394309  Gnorm:     0.000045  CPU:   68.724
  Cycle:     36 Defect Energy:   4.393333  Gnorm:     0.000047  CPU:   69.711
  Cycle:     37 Defect Energy:   4.392004  Gnorm:     0.000087  CPU:   71.652
  ** Hessian calculated **
  Cycle:     38 Defect Energy:   4.391931  Gnorm:     0.000049  CPU:   77.077
  Cycle:     39 Defect Energy:   4.391864  Gnorm:     0.000039  CPU:   78.234
  Cycle:     40 Defect Energy:   4.391787  Gnorm:     0.000036  CPU:   79.368
  Cycle:     41 Defect Energy:   4.391683  Gnorm:     0.000040  CPU:   80.569
  Cycle:     42 Defect Energy:   4.391561  Gnorm:     0.000048  CPU:   81.627
  Cycle:     43 Defect Energy:   4.391394  Gnorm:     0.000064  CPU:   82.713
  Cycle:     44 Defect Energy:   4.391235  Gnorm:     0.000074  CPU:   83.773
  Cycle:     45 Defect Energy:   4.391075  Gnorm:     0.000083  CPU:   84.832
  Cycle:     46 Defect Energy:   4.390905  Gnorm:     0.000093  CPU:   86.118
  Cycle:     47 Defect Energy:   4.390751  Gnorm:     0.000097  CPU:   87.093
  ** Hessian calculated **
  Cycle:     48 Defect Energy:   4.390704  Gnorm:     0.000087  CPU:   89.831
  Cycle:     49 Defect Energy:   4.390652  Gnorm:     0.000083  CPU:   90.842
  Cycle:     50 Defect Energy:   4.390578  Gnorm:     0.000079  CPU:   91.795
  Cycle:     51 Defect Energy:   4.390521  Gnorm:     0.000078  CPU:   92.762
  Cycle:     52 Defect Energy:   4.390448  Gnorm:     0.000076  CPU:   93.738
  Cycle:     53 Defect Energy:   4.390400  Gnorm:     0.000075  CPU:   94.718
  Cycle:     54 Defect Energy:   4.390328  Gnorm:     0.000076  CPU:   95.753
  Cycle:     55 Defect Energy:   4.390259  Gnorm:     0.000074  CPU:   96.682
  Cycle:     56 Defect Energy:   4.390162  Gnorm:     0.000075  CPU:   97.615
  Cycle:     57 Defect Energy:   4.390056  Gnorm:     0.000075  CPU:   98.556
  ** Hessian calculated **
  Cycle:     58 Defect Energy:   4.389791  Gnorm:     0.000074  CPU:  101.001
  Cycle:     59 Defect Energy:   4.389394  Gnorm:     0.000074  CPU:  101.913
  Cycle:     60 Defect Energy:   4.388796  Gnorm:     0.000074  CPU:  102.830
  Cycle:     61 Defect Energy:   4.387900  Gnorm:     0.000073  CPU:  103.808
  Cycle:     62 Defect Energy:   4.386589  Gnorm:     0.000073  CPU:  107.013
  Cycle:     63 Defect Energy:   4.384802  Gnorm:     0.000079  CPU:  109.551
  Cycle:     64 Defect Energy:   4.383424  Gnorm:     0.000081  CPU:  110.667
  Cycle:     65 Defect Energy:   4.382910  Gnorm:     0.000068  CPU:  111.760
  Cycle:     66 Defect Energy:   4.382576  Gnorm:     0.000060  CPU:  112.850
  Cycle:     67 Defect Energy:   4.382286  Gnorm:     0.000044  CPU:  113.979
  ** Hessian calculated **
  Cycle:     68 Defect Energy:   4.382002  Gnorm:     0.000038  CPU:  116.794
  Cycle:     69 Defect Energy:   4.381634  Gnorm:     0.000042  CPU:  117.857
  Cycle:     70 Defect Energy:   4.381289  Gnorm:     0.000110  CPU:  118.982
  ** Hessian calculated **
  Cycle:     71 Defect Energy:   4.381192  Gnorm:     0.000055  CPU:  121.659
  Cycle:     72 Defect Energy:   4.381096  Gnorm:     0.000041  CPU:  122.744
  Cycle:     73 Defect Energy:   4.380999  Gnorm:     0.000038  CPU:  123.741
  Cycle:     74 Defect Energy:   4.380865  Gnorm:     0.000045  CPU:  124.718
  Cycle:     75 Defect Energy:   4.380790  Gnorm:     0.000047  CPU:  125.689
  Cycle:     76 Defect Energy:   4.380709  Gnorm:     0.000053  CPU:  126.666
  Cycle:     77 Defect Energy:   4.380650  Gnorm:     0.000058  CPU:  127.808
  Cycle:     78 Defect Energy:   4.380586  Gnorm:     0.000062  CPU:  128.766
  Cycle:     79 Defect Energy:   4.380507  Gnorm:     0.000068  CPU:  129.700
  Cycle:     80 Defect Energy:   4.380432  Gnorm:     0.000077  CPU:  130.648
  ** Hessian calculated **
  Cycle:     81 Defect Energy:   4.380390  Gnorm:     0.000072  CPU:  133.178
  Cycle:     82 Defect Energy:   4.380351  Gnorm:     0.000071  CPU:  134.063
  Cycle:     83 Defect Energy:   4.380287  Gnorm:     0.000069  CPU:  134.954
  Cycle:     84 Defect Energy:   4.380224  Gnorm:     0.000067  CPU:  135.865
  Cycle:     85 Defect Energy:   4.380119  Gnorm:     0.000067  CPU:  136.761
  Cycle:     86 Defect Energy:   4.380039  Gnorm:     0.000069  CPU:  137.673
  Cycle:     87 Defect Energy:   4.379954  Gnorm:     0.000071  CPU:  139.057
  Cycle:     88 Defect Energy:   4.379895  Gnorm:     0.000073  CPU:  142.817
  Cycle:     89 Defect Energy:   4.379823  Gnorm:     0.000079  CPU:  143.919
  Cycle:     90 Defect Energy:   4.379721  Gnorm:     0.000090  CPU:  145.047
  ** Hessian calculated **
  Cycle:     91 Defect Energy:   4.379674  Gnorm:     0.000086  CPU:  148.026
  Cycle:     92 Defect Energy:   4.379599  Gnorm:     0.000086  CPU:  149.079
  Cycle:     93 Defect Energy:   4.379506  Gnorm:     0.000086  CPU:  150.128
  Cycle:     94 Defect Energy:   4.379379  Gnorm:     0.000088  CPU:  151.192
  Cycle:     95 Defect Energy:   4.379230  Gnorm:     0.000092  CPU:  152.320
  Cycle:     96 Defect Energy:   4.379077  Gnorm:     0.000101  CPU:  153.336
  Cycle:     97 Defect Energy:   4.378923  Gnorm:     0.000110  CPU:  154.330
  Cycle:     98 Defect Energy:   4.378792  Gnorm:     0.000123  CPU:  155.353
  Cycle:     99 Defect Energy:   4.378553  Gnorm:     0.000142  CPU:  156.517
  Cycle:    100 Defect Energy:   4.378210  Gnorm:     0.000169  CPU:  157.493
  ** Hessian calculated **
  Cycle:    101 Defect Energy:   4.378018  Gnorm:     0.000164  CPU:  159.964
  Cycle:    102 Defect Energy:   4.377783  Gnorm:     0.000163  CPU:  160.932
  Cycle:    103 Defect Energy:   4.377435  Gnorm:     0.000159  CPU:  161.871
  Cycle:    104 Defect Energy:   4.377002  Gnorm:     0.000158  CPU:  162.807
  Cycle:    105 Defect Energy:   4.376441  Gnorm:     0.000158  CPU:  163.745
  Cycle:    106 Defect Energy:   4.375810  Gnorm:     0.000165  CPU:  164.782
  Cycle:    107 Defect Energy:   4.375310  Gnorm:     0.000175  CPU:  165.689
  Cycle:    108 Defect Energy:   4.374792  Gnorm:     0.000189  CPU:  166.590
  Cycle:    109 Defect Energy:   4.374188  Gnorm:     0.000211  CPU:  167.486
  Cycle:    110 Defect Energy:   4.373334  Gnorm:     0.000240  CPU:  168.401
  ** Hessian calculated **
  Cycle:    111 Defect Energy:   4.372863  Gnorm:     0.000234  CPU:  171.896
  Cycle:    112 Defect Energy:   4.372192  Gnorm:     0.000234  CPU:  175.082
  Cycle:    113 Defect Energy:   4.371300  Gnorm:     0.000232  CPU:  176.197
  Cycle:    114 Defect Energy:   4.370124  Gnorm:     0.000235  CPU:  177.364
  Cycle:    115 Defect Energy:   4.368612  Gnorm:     0.000246  CPU:  178.541
  Cycle:    116 Defect Energy:   4.366889  Gnorm:     0.000274  CPU:  179.746
  Cycle:    117 Defect Energy:   4.365050  Gnorm:     0.000309  CPU:  180.851
  Cycle:    118 Defect Energy:   4.363702  Gnorm:     0.000339  CPU:  181.926
  Cycle:    119 Defect Energy:   4.362299  Gnorm:     0.000373  CPU:  182.985
  Cycle:    120 Defect Energy:   4.360875  Gnorm:     0.000412  CPU:  184.041
  ** Hessian calculated **
  Cycle:    121 Defect Energy:   4.359938  Gnorm:     0.000401  CPU:  186.822
  Cycle:    122 Defect Energy:   4.358746  Gnorm:     0.000398  CPU:  187.848
  Cycle:    123 Defect Energy:   4.357022  Gnorm:     0.000387  CPU:  188.847
  Cycle:    124 Defect Energy:   4.354878  Gnorm:     0.000380  CPU:  189.900
  Cycle:    125 Defect Energy:   4.352532  Gnorm:     0.000381  CPU:  190.863
  Cycle:    126 Defect Energy:   4.350959  Gnorm:     0.000379  CPU:  191.822
  Cycle:    127 Defect Energy:   4.349686  Gnorm:     0.000383  CPU:  192.778
  Cycle:    128 Defect Energy:   4.348494  Gnorm:     0.000389  CPU:  193.818
  Cycle:    129 Defect Energy:   4.346857  Gnorm:     0.000406  CPU:  194.746
  Cycle:    130 Defect Energy:   4.344688  Gnorm:     0.000426  CPU:  195.675
  ** Hessian calculated **
  Cycle:    131 Defect Energy:   4.335983  Gnorm:     0.000388  CPU:  198.109
  Cycle:    132 Defect Energy:   4.324716  Gnorm:     0.000313  CPU:  199.124
  Cycle:    133 Defect Energy:   4.317772  Gnorm:     0.000209  CPU:  200.029
  Cycle:    134 Defect Energy:   4.315392  Gnorm:     0.000144  CPU:  200.946
  Cycle:    135 Defect Energy:   4.314279  Gnorm:     0.000100  CPU:  201.847
  Cycle:    136 Defect Energy:   4.313684  Gnorm:     0.000068  CPU:  202.745
  Cycle:    137 Defect Energy:   4.313319  Gnorm:     0.000047  CPU:  203.760
  Cycle:    138 Defect Energy:   4.313004  Gnorm:     0.000035  CPU:  204.482
  Cycle:    139 Defect Energy:   4.312614  Gnorm:     0.000048  CPU:  206.319
  Cycle:    140 Defect Energy:   4.312136  Gnorm:     0.000093  CPU:  209.438
  ** Hessian calculated **
  Cycle:    141 Defect Energy:   4.311206  Gnorm:     0.000119  CPU:  212.320
  Cycle:    142 Defect Energy:   4.310813  Gnorm:     0.000103  CPU:  213.438
  Cycle:    143 Defect Energy:   4.310433  Gnorm:     0.000053  CPU:  214.642
  Cycle:    144 Defect Energy:   4.310253  Gnorm:     0.000047  CPU:  215.704
  Cycle:    145 Defect Energy:   4.310179  Gnorm:     0.000033  CPU:  216.795
  Cycle:    146 Defect Energy:   4.310153  Gnorm:     0.000025  CPU:  217.872


  **** Optimisation achieved ****


  Final defect energy  =        4.31014772
  Final defect Gnorm   =        0.00001736

  Components of defect energy : 

--------------------------------------------------------------------------------
  Region 1 - region 1                   =      1.10522358 eV
  Region 1 - region 2a (unrelaxed)      =      3.74035746 eV
  Region 1 - 2a (relaxed - correction)  =     -0.20851564 eV
  Region 1 (Total)                      =      4.63706539 eV
  Region 2a                             =      0.10421113 eV
  Region 2b                             =     -0.43112880 eV
--------------------------------------------------------------------------------
  Total defect energy                   =      4.31014772 eV
--------------------------------------------------------------------------------

  Largest displacement in region 2 =   0.0227 Angstroms

  Final coordinates of region 1 :

--------------------------------------------------------------------------------
   No.  Atomic        x           y           z          Radius      Charge
        Label       (Angs)      (Angs)      (Angs)       (Angs)       (e) 
--------------------------------------------------------------------------------
     1  Na    c     2.253894    1.823052    0.045878    0.000000    1.000000
     2  O     c     2.253894    2.442278    2.205305    0.000000    0.183000
     3  Cl    c     4.593595    0.002905   -0.107225    0.000000    1.485000
     4  Cl    c    -0.085807    0.002905   -0.107225    0.000000    1.485000
     5  Na    c     4.381238    1.787885    2.354460    0.000000    1.000000
     6  Na    c     0.126549    1.787885    2.354460    0.000000    1.000000
     7  O     c     2.253894    2.256329   -2.249750    0.000000    0.183000
     8  Na    c     2.253894    0.008451   -2.626533    0.000000    1.000000
     9  Na    c     2.253894    4.592004    1.771797    0.000000    1.000000
    10  Na    c     2.253894    2.679178    4.422849    0.000000    1.000000
    11  Na    c     2.253894   -1.811662    0.048686    0.000000    1.000000
    12  O     c     2.253894   -2.420698    2.205531    0.000000    0.183000
    13  Cl    c     4.594461    4.617559   -0.114978    0.000000    1.485000
    14  Cl    c    -0.086674    4.617559   -0.114978    0.000000    1.485000
    15  Na    c     4.507024    2.238696   -2.356693    0.000000    1.000000
    16  Na    c     0.000763    2.238696   -2.356693    0.000000    1.000000
    17  Cl    c     4.727315    0.002979    4.632522    0.000000    1.485000
    18  Cl    c    -0.219528    0.002979    4.632522    0.000000    1.485000
    19  Na    c     4.387319   -1.794265    2.332022    0.000000    1.000000
    20  Na    c     0.120468   -1.794265    2.332022    0.000000    1.000000
    21  Na    c     2.253894    4.500704   -1.818325    0.000000    1.000000
    22  Na    c    -1.987738    2.284850    0.010200    0.000000    1.000000
    23  Na    c     6.495525    2.284850    0.010200    0.000000    1.000000
    24  O     c    -2.183646    2.245847    2.249243    0.000000    0.183000
    25  O     c     6.691434    2.245847    2.249243    0.000000    0.183000
    26  O     c     2.253894   -2.240510   -2.241543    0.000000    0.183000
    27  Na    c    -2.565295    0.002594    2.248144    0.000000    1.000000
    28  Na    c     7.073082    0.002594    2.248144    0.000000    1.000000
    29  Na    c     2.253894   -2.650873    4.422055    0.000000    1.000000
    30  Cl    c     4.570154    4.583905    4.626803    0.000000    1.485000
    31  Cl    c    -0.062367    4.583905    4.626803    0.000000    1.485000
    32  Na    c     4.503797   -2.217481   -2.315160    0.000000    1.000000
    33  Na    c     0.003990   -2.217481   -2.315160    0.000000    1.000000
    34  Na    c     2.253894    2.683366   -4.484701    0.000000    1.000000
    35  Na    c     2.253894    7.213917   -0.008401    0.000000    1.000000
    36  O     c     2.253894    6.829117    2.245755    0.000000    0.183000
    37  O     c    -2.262514    2.256778   -2.240846    0.000000    0.183000
    38  O     c     6.770302    2.256778   -2.240846    0.000000    0.183000
    39  Na    c    -2.282106    0.002667   -2.148489    0.000000    1.000000
    40  Na    c     6.789893    0.002667   -2.148489    0.000000    1.000000
    41  Na    c    -1.764327    4.472403    2.262897    0.000000    1.000000
    42  Na    c     6.272115    4.472403    2.262897    0.000000    1.000000
    43  Na    c    -2.280226    2.286615    4.506522    0.000000    1.000000
    44  Na    c     6.788013    2.286615    4.506522    0.000000    1.000000
    45  Na    c    -2.039624   -2.296223    0.012575    0.000000    1.000000
    46  Na    c     6.547411   -2.296223    0.012575    0.000000    1.000000
    47  O     c     2.253894    2.226693    6.689413    0.000000    0.183000
    48  O     c    -2.184238   -2.241579    2.254035    0.000000    0.183000
    49  O     c     6.692025   -2.241579    2.254035    0.000000    0.183000
    50  Na    c     2.253894    0.004503    6.136503    0.000000    1.000000
    51  Na    c     2.253894   -4.571447    1.795492    0.000000    1.000000
    52  Cl    c     4.535974    0.001877   -4.523435    0.000000    1.485000
    53  Cl    c    -0.028187    0.001877   -4.523435    0.000000    1.485000
    54  Na    c     4.502104    6.987378    2.313502    0.000000    1.000000
    55  Na    c     0.005683    6.987378    2.313502    0.000000    1.000000
    56  Cl    c     4.596944   -4.610853   -0.110289    0.000000    1.485000
    57  Cl    c    -0.089157   -4.610853   -0.110289    0.000000    1.485000
    58  Na    c     4.511125    2.112059    6.699078    0.000000    1.000000
    59  Na    c    -0.003338    2.112059    6.699078    0.000000    1.000000
    60  O     c     2.253894    6.757575   -2.246848    0.000000    0.183000
    61  Na    c    -2.252989    4.510747   -2.294190    0.000000    1.000000
    62  Na    c     6.760776    4.510747   -2.294190    0.000000    1.000000
    63  Na    c     2.253894    6.355216    4.482911    0.000000    1.000000
    64  Na    c     2.253894   -2.651038   -4.474934    0.000000    1.000000
    65  O     c    -2.257817   -2.251874   -2.244837    0.000000    0.183000
    66  O     c     6.765604   -2.251874   -2.244837    0.000000    0.183000
    67  Na    c     2.253894    4.480389    7.068782    0.000000    1.000000
    68  Na    c     2.253894   -4.494079   -1.848673    0.000000    1.000000
    69  Na    c    -2.230582   -2.257950    4.506676    0.000000    1.000000
    70  Na    c     6.738369   -2.257950    4.506676    0.000000    1.000000
    71  O     c     2.253894   -2.211649    6.691089    0.000000    0.183000
    72  Cl    c     4.529916    4.516882   -4.525289    0.000000    1.485000
    73  Cl    c    -0.022129    4.516882   -4.525289    0.000000    1.485000
    74  Na    c     4.507178    6.699143   -2.263815    0.000000    1.000000
    75  Na    c     0.000610    6.699143   -2.263815    0.000000    1.000000
    76  Cl    c     9.035216   -0.001393   -0.028700    0.000000    1.485000
    77  Cl    c    -4.527429   -0.001393   -0.028700    0.000000    1.485000
    78  Na    c     8.956258    2.589008    2.115102    0.000000    1.000000
    79  Na    c    -4.448471    2.589008    2.115102    0.000000    1.000000
    80  Cl    c     4.570039   -4.580169    4.627916    0.000000    1.485000
    81  Cl    c    -0.062251   -4.580169    4.627916    0.000000    1.485000
    82  Na    c     4.512157   -2.113668    6.731413    0.000000    1.000000
    83  Na    c    -0.004370   -2.113668    6.731413    0.000000    1.000000
    84  Na    c    -2.443832    2.179054   -4.492092    0.000000    1.000000
    85  Na    c     6.951619    2.179054   -4.492092    0.000000    1.000000
    86  Na    c    -2.171132    6.703936    0.003362    0.000000    1.000000
    87  Na    c     6.678920    6.703936    0.003362    0.000000    1.000000
    88  O     c    -2.235734    6.714206    2.265061    0.000000    0.183000
    89  O     c     6.743521    6.714206    2.265061    0.000000    0.183000
    90  O     c    -2.264650    2.263935    6.778614    0.000000    0.183000
    91  O     c     6.772437    2.263935    6.778614    0.000000    0.183000
    92  Na    c    -2.429332    0.006064    6.645485    0.000000    1.000000
    93  Na    c     6.937119    0.006064    6.645485    0.000000    1.000000
    94  Na    c     6.311196   -4.477346    2.287281    0.000000    1.000000
    95  Na    c    -1.803408   -4.477346    2.287281    0.000000    1.000000
    96  Cl    c     9.056394    4.540712   -0.062607    0.000000    1.485000
    97  Cl    c    -4.548607    4.540712   -0.062607    0.000000    1.485000
    98  Na    c     9.013319    2.278139   -1.993039    0.000000    1.000000
    99  Na    c    -4.505532    2.278139   -1.993039    0.000000    1.000000
   100  Cl    c     9.038393   -0.009760    4.523270    0.000000    1.485000
   101  Cl    c    -4.530606   -0.009760    4.523270    0.000000    1.485000
   102  Na    c     8.952330   -2.591111    2.179356    0.000000    1.000000
   103  Na    c    -4.444543   -2.591111    2.179356    0.000000    1.000000
   104  Na    c     2.253894    6.417816   -4.500927    0.000000    1.000000
   105  O     c    -2.262383    6.773877   -2.260009    0.000000    0.183000
   106  O     c     6.770171    6.773877   -2.260009    0.000000    0.183000
   107  O     c     2.253894    2.266805   -6.722619    0.000000    0.183000
   108  Na    c     2.253894    9.049700    2.633657    0.000000    1.000000
   109  Na    c     2.253894    0.004537   -6.429007    0.000000    1.000000
   110  Na    c    -2.386971    6.601430    4.516599    0.000000    1.000000
   111  Na    c     6.894758    6.601430    4.516599    0.000000    1.000000
   112  Na    c    -2.399474   -2.161188   -4.495247    0.000000    1.000000
   113  Na    c     6.907261   -2.161188   -4.495247    0.000000    1.000000
   114  O     c     2.253894    6.747322    6.733607    0.000000    0.183000
   115  Na    c    -2.034564    4.504095    6.885127    0.000000    1.000000
   116  Na    c     6.542351    4.504095    6.885127    0.000000    1.000000
   117  Na    c     6.733966   -4.503046   -2.324711    0.000000    1.000000
   118  Na    c    -2.226179   -4.503046   -2.324711    0.000000    1.000000
   119  Na    c     2.253894    1.923242    8.960368    0.000000    1.000000
   120  Na    c     2.253894   -7.165379   -0.010546    0.000000    1.000000
   121  O     c     2.253894   -6.810199    2.231619    0.000000    0.183000
   122  O     c     6.773661   -2.252893    6.773390    0.000000    0.183000
   123  O     c    -2.265874   -2.252893    6.773390    0.000000    0.183000
   124  Na    c     2.253894   -4.463050    7.026530    0.000000    1.000000
   125  Cl    c     4.549061    9.053956    0.008475    0.000000    1.485000
   126  Cl    c    -0.041274    9.053956    0.008475    0.000000    1.485000
   127  Na    c     4.510825    2.237011   -6.621046    0.000000    1.000000
   128  Na    c    -0.003038    2.237011   -6.621046    0.000000    1.000000
   129  Cl    c     4.519884   -4.515536   -4.542709    0.000000    1.485000
   130  Cl    c    -0.012097   -4.515536   -4.542709    0.000000    1.485000
   131  Cl    c     9.079235    4.504636    4.516804    0.000000    1.485000
   132  Cl    c    -4.571447    4.504636    4.516804    0.000000    1.485000
   133  Na    c     4.505677    6.821845    6.624019    0.000000    1.000000
   134  Na    c     0.002110    6.821845    6.624019    0.000000    1.000000
   135  Na    c     9.010706   -2.290734   -2.056418    0.000000    1.000000
   136  Na    c    -4.502919   -2.290734   -2.056418    0.000000    1.000000
   137  Cl    c     4.540501   -0.003457    9.081188    0.000000    1.485000
   138  Cl    c    -0.032714   -0.003457    9.081188    0.000000    1.485000
   139  Na    c     4.497126   -6.950000    2.266672    0.000000    1.000000
   140  Na    c     0.010661   -6.950000    2.266672    0.000000    1.000000
   141  Na    c     2.253894    8.998651   -2.578444    0.000000    1.000000
   142  Na    c     2.253894    4.496353   -7.102946    0.000000    1.000000
   143  O     c     2.253894   -2.255612   -6.716943    0.000000    0.183000
   144  O     c     2.253894   -6.758524   -2.238977    0.000000    0.183000
   145  Na    c     2.253894   -1.938331    8.962762    0.000000    1.000000
   146  Na    c     2.253894   -6.427241    4.487125    0.000000    1.000000
   147  Cl    c     4.496031    9.062575    4.521066    0.000000    1.485000
   148  Cl    c     0.011757    9.062575    4.521066    0.000000    1.485000
   149  Na    c     8.997967    6.474369    2.158161    0.000000    1.000000
   150  Na    c    -4.490179    6.474369    2.158161    0.000000    1.000000
   151  Cl    c     9.033231    0.002185   -4.554200    0.000000    1.485000
   152  Cl    c    -4.525443    0.002185   -4.554200    0.000000    1.485000
[...]
    241 y          6.761681      6.829201     0.067520    Cartesian    1.00
    241 z          2.253894      2.245770    -0.008123    Cartesian   -0.36
    242 x         -2.253894     -2.262512    -0.008619    Cartesian    0.38
    242 y          2.253894      2.256772     0.002878    Cartesian    0.13
    242 z         -2.253894     -2.240827     0.013067    Cartesian   -0.58
    243 x          2.253894      2.253894     0.000000    Cartesian    0.00
    243 y          2.253894      2.226681    -0.027212    Cartesian   -1.21
    243 z          6.761681      6.689416    -0.072265    Cartesian   -1.07
    244 x         -2.253894     -2.184282     0.069611    Cartesian   -3.09
    244 y         -2.253894     -2.241600     0.012293    Cartesian   -0.55
    244 z          2.253894      2.254030     0.000136    Cartesian    0.01
    245 x          4.507787      4.526391     0.018604    Cartesian    0.41
    245 y          0.000000      0.001977     0.001977    Cartesian    0.00
    245 z         -4.507787     -4.526254    -0.018467    Cartesian    0.41
    246 x          4.507787      4.604921     0.097134    Cartesian    2.15
    246 y         -4.507787     -4.619946    -0.112159    Cartesian    2.49
    246 z          0.000000     -0.117387    -0.117387    Cartesian    0.00
    247 x          2.253894      2.253894     0.000000    Cartesian    0.00
    247 y          6.761681      6.757612    -0.004069    Cartesian   -0.06
    247 z         -2.253894     -2.246855     0.007039    Cartesian   -0.31
    248 x         -2.253894     -2.257815    -0.003922    Cartesian    0.17
    248 y         -2.253894     -2.251872     0.002022    Cartesian   -0.09
    248 z         -2.253894     -2.244829     0.009065    Cartesian   -0.40
    249 x          2.253894      2.253894     0.000000    Cartesian    0.00
    249 y         -2.253894     -2.211652     0.042242    Cartesian   -1.87
    249 z          6.761681      6.691100    -0.070581    Cartesian   -1.04
    250 x          4.507787      4.519708     0.011921    Cartesian    0.26
    250 y          4.507787      4.515595     0.007808    Cartesian    0.17
    250 z         -4.507787     -4.527589    -0.019802    Cartesian    0.44
    251 x          9.015574      9.038793     0.023218    Cartesian    0.26
    251 y          0.000000     -0.000688    -0.000688    Cartesian    0.00
    251 z          0.000000     -0.029099    -0.029099    Cartesian    0.00
    252 x          4.507787      4.577261     0.069473    Cartesian    1.54
    252 y         -4.507787     -4.589190    -0.081402    Cartesian    1.81
    252 z          4.507787      4.633291     0.125504    Cartesian    2.78
    253 x         -2.253894     -2.235695     0.018199    Cartesian   -0.81
    253 y          6.761681      6.714217    -0.047464    Cartesian   -0.70
    253 z          2.253894      2.265059     0.011165    Cartesian    0.50
    254 x         -2.253894     -2.264659    -0.010766    Cartesian    0.48
    254 y          2.253894      2.263939     0.010045    Cartesian    0.45
    254 z          6.761681      6.778638     0.016957    Cartesian    0.25
    255 x          9.015574      9.060787     0.045213    Cartesian    0.50
    255 y          4.507787      4.540996     0.033209    Cartesian    0.74
    255 z          0.000000     -0.061774    -0.061774    Cartesian    0.00
    256 x          9.015574      9.042641     0.027067    Cartesian    0.30
    256 y          0.000000     -0.008522    -0.008522    Cartesian    0.00
    256 z          4.507787      4.520799     0.013012    Cartesian    0.29
    257 x         -2.253894     -2.262391    -0.008498    Cartesian    0.38
    257 y          6.761681      6.773880     0.012200    Cartesian    0.18
    257 z         -2.253894     -2.260021    -0.006128    Cartesian    0.27
    258 x          2.253894      2.253894     0.000000    Cartesian    0.00
    258 y          2.253894      2.266850     0.012956    Cartesian    0.57
    258 z         -6.761681     -6.722608     0.039073    Cartesian   -0.58
    259 x          2.253894      2.253894     0.000000    Cartesian    0.00
    259 y          6.761681      6.747351    -0.014330    Cartesian   -0.21
    259 z          6.761681      6.733616    -0.028065    Cartesian   -0.42
    260 x          2.253894      2.253894     0.000000    Cartesian    0.00
    260 y         -6.761681     -6.810294    -0.048614    Cartesian    0.72
    260 z          2.253894      2.231589    -0.022305    Cartesian   -0.99
    261 x          6.761681      6.773684     0.012003    Cartesian    0.18
    261 y         -2.253894     -2.252900     0.000993    Cartesian   -0.04
    261 z          6.761681      6.773393     0.011712    Cartesian    0.17
    262 x          4.507787      4.545607     0.037820    Cartesian    0.84
    262 y          9.015574      9.053784     0.038210    Cartesian    0.42
    262 z          0.000000      0.010378     0.010378    Cartesian    0.00
    263 x          4.507787      4.512811     0.005024    Cartesian    0.11
    263 y         -4.507787     -4.513532    -0.005745    Cartesian    0.13
    263 z         -4.507787     -4.546714    -0.038927    Cartesian    0.86
    264 x          9.015574      9.084092     0.068518    Cartesian    0.76
    264 y          4.507787      4.506052    -0.001735    Cartesian   -0.04
    264 z          4.507787      4.515753     0.007966    Cartesian    0.18
    265 x          4.507787      4.538078     0.030290    Cartesian    0.67
    265 y          0.000000     -0.003258    -0.003258    Cartesian    0.00
    265 z          9.015574      9.086866     0.071292    Cartesian    0.79
    266 x          2.253894      2.253894     0.000000    Cartesian    0.00
    266 y         -2.253894     -2.255670    -0.001776    Cartesian    0.08
    266 z         -6.761681     -6.716925     0.044756    Cartesian   -0.66
    267 x          2.253894      2.253894     0.000000    Cartesian    0.00
    267 y         -6.761681     -6.758579     0.003102    Cartesian   -0.05
    267 z         -2.253894     -2.238949     0.014945    Cartesian   -0.66
    268 x          4.507787      4.484289    -0.023498    Cartesian   -0.52
    268 y          9.015574      9.063086     0.047511    Cartesian    0.53
    268 z          4.507787      4.519026     0.011239    Cartesian    0.25
    269 x          9.015574      9.032591     0.017016    Cartesian    0.19
    269 y          0.000000      0.003256     0.003256    Cartesian    0.00
    269 z         -4.507787     -4.558994    -0.051207    Cartesian    1.14
    270 x          4.507787      4.523433     0.015646    Cartesian    0.35
    270 y          4.507787      4.522975     0.015187    Cartesian    0.34
    270 z          9.015574      9.061067     0.045493    Cartesian    0.50
    271 x          9.015574      9.083721     0.068147    Cartesian    0.76
    271 y         -4.507787     -4.529129    -0.021342    Cartesian    0.47
    271 z          0.000000     -0.035830    -0.035830    Cartesian    0.00
    272 x         -2.253894     -2.256351    -0.002457    Cartesian    0.11
    272 y          2.253894      2.251118    -0.002775    Cartesian   -0.12
    272 z         -6.761681     -6.756161     0.005519    Cartesian   -0.08
    273 x          6.761681      6.765748     0.004067    Cartesian    0.06
    273 y          6.761681      6.756589    -0.005092    Cartesian   -0.08
    273 z          6.761681      6.770033     0.008352    Cartesian    0.12
    274 x         11.269468     11.227817    -0.041651    Cartesian   -0.37
    274 y          2.253894      2.244518    -0.009376    Cartesian   -0.42
    274 z          2.253894      2.252714    -0.001180    Cartesian   -0.05
    275 x          6.761681      6.737436    -0.024245    Cartesian   -0.36
    275 y         -6.761681     -6.724955     0.036726    Cartesian   -0.54
    275 z          2.253894      2.262029     0.008135    Cartesian    0.36
    276 x          9.015574      9.032954     0.017379    Cartesian    0.19
    276 y          4.507787      4.531239     0.023452    Cartesian    0.52
    276 z         -4.507787     -4.553533    -0.045746    Cartesian    1.01
    277 x          9.015574      9.072307     0.056732    Cartesian    0.63
    277 y         -4.507787     -4.506221     0.001566    Cartesian   -0.03
    277 z          4.507787      4.533254     0.025467    Cartesian    0.56
    278 x          2.253894      2.253894     0.000000    Cartesian    0.00
    278 y          6.761681      6.731946    -0.029735    Cartesian   -0.44
    278 z         -6.761681     -6.759761     0.001920    Cartesian   -0.03
    279 x          6.761681      6.764369     0.002688    Cartesian    0.04
    279 y         -2.253894     -2.244104     0.009790    Cartesian   -0.43
    279 z         -6.761681     -6.757528     0.004153    Cartesian   -0.06
    280 x         11.269468     11.264571    -0.004897    Cartesian   -0.04
    280 y          2.253894      2.253607    -0.000287    Cartesian   -0.01
    280 z         -2.253894     -2.246385     0.007509    Cartesian   -0.33
    281 x          6.761681      6.767411     0.005730    Cartesian    0.08
    281 y         -6.761681     -6.760412     0.001269    Cartesian   -0.02
    281 z         -2.253894     -2.266073    -0.012180    Cartesian    0.54
    282 x         11.269468     11.223403    -0.046065    Cartesian   -0.41
    282 y         -2.253894     -2.255262    -0.001369    Cartesian    0.06
    282 z          2.253894      2.253631    -0.000263    Cartesian   -0.01
    283 x          2.253894      2.253894     0.000000    Cartesian    0.00
    283 y         -6.761681     -6.730685     0.030996    Cartesian   -0.46
    283 z          6.761681      6.752240    -0.009441    Cartesian   -0.14
    284 x          4.507787      4.502174    -0.005613    Cartesian   -0.12
    284 y          9.015574      9.057833     0.042259    Cartesian    0.47
    284 z         -4.507787     -4.535804    -0.028017    Cartesian    0.62
    285 x          4.507787      4.520206     0.012419    Cartesian    0.28
    285 y         -4.507787     -4.517391    -0.009604    Cartesian    0.21
    285 z          9.015574      9.045233     0.029658    Cartesian    0.33
    286 x          2.253894      2.253894     0.000000    Cartesian    0.00
    286 y         11.269468     11.267758    -0.001710    Cartesian   -0.02
    286 z          2.253894      2.271625     0.017731    Cartesian    0.79
    287 x         11.269468     11.265632    -0.003836    Cartesian   -0.03
    287 y         -2.253894     -2.252388     0.001506    Cartesian   -0.07
    287 z         -2.253894     -2.241850     0.012044    Cartesian   -0.53
    288 x          2.253894      2.253894     0.000000    Cartesian    0.00
    288 y          2.253894      2.236856    -0.017037    Cartesian   -0.76
    288 z         11.269468     11.241538    -0.027930    Cartesian   -0.25
    289 x          4.507787      4.497142    -0.010645    Cartesian   -0.24
    289 y          0.000000      0.002745     0.002745    Cartesian    0.00
    289 z         -9.015574     -9.086019    -0.070445    Cartesian    0.78
    290 x          9.015574      9.017996     0.002421    Cartesian    0.03
    290 y          9.015574      9.064824     0.049250    Cartesian    0.55
    290 z          0.000000      0.002499     0.002499    Cartesian    0.00
    291 x          9.015574      9.026295     0.010721    Cartesian    0.12
    291 y         -4.507787     -4.515271    -0.007484    Cartesian    0.17
    291 z         -4.507787     -4.543881    -0.036094    Cartesian    0.80
    292 x          9.015574      9.037458     0.021883    Cartesian    0.24
    292 y          0.000000      0.002289     0.002289    Cartesian    0.00
    292 z          9.015574      9.036598     0.021024    Cartesian    0.23
    293 x          4.507787      4.542253     0.034466    Cartesian    0.76
    293 y         -9.015574     -9.025009    -0.009434    Cartesian    0.10
    293 z          0.000000      0.005927     0.005927    Cartesian    0.00
    294 x          2.253894      2.253894     0.000000    Cartesian    0.00
    294 y         11.269468     11.254533    -0.014935    Cartesian   -0.13
    294 z         -2.253894     -2.273094    -0.019200    Cartesian    0.85
    295 x         -2.253894     -2.255688    -0.001794    Cartesian    0.08
    295 y          6.761681      6.767453     0.005772    Cartesian    0.09
    295 z         -6.761681     -6.756544     0.005137    Cartesian   -0.08
    296 x         11.269468     11.259203    -0.010265    Cartesian   -0.09
    296 y          6.761681      6.731624    -0.030057    Cartesian   -0.44
    296 z          2.253894      2.253600    -0.000294    Cartesian   -0.01
    297 x         11.269468     11.262233    -0.007235    Cartesian   -0.06
    297 y          2.253894      2.260860     0.006967    Cartesian    0.31
    297 z          6.761681      6.760195    -0.001486    Cartesian   -0.02
    298 x          6.761681      6.761521    -0.000160    Cartesian   -0.00
    298 y         -6.761681     -6.762075    -0.000394    Cartesian    0.01
    298 z          6.761681      6.767828     0.006148    Cartesian    0.09
    299 x          2.253894      2.253894     0.000000    Cartesian    0.00
    299 y         -2.253894     -2.232180     0.021714    Cartesian   -0.96
    299 z         11.269468     11.243781    -0.025687    Cartesian   -0.23
    300 x          4.507787      4.529967     0.022179    Cartesian    0.49
    300 y          4.507787      4.513450     0.005663    Cartesian    0.13
    300 z         -9.015574     -9.038782    -0.023207    Cartesian    0.26
    301 x          9.015574      9.022080     0.006505    Cartesian    0.07
    301 y          9.015574      9.057438     0.041864    Cartesian    0.46
    301 z          4.507787      4.511115     0.003328    Cartesian    0.07
    302 x          9.015574      9.055055     0.039481    Cartesian    0.44
    302 y          4.507787      4.514935     0.007148    Cartesian    0.16
    302 z          9.015574      9.039042     0.023467    Cartesian    0.26
    303 x          4.507787      4.464353    -0.043434    Cartesian   -0.96
    303 y         -9.015574     -9.090279    -0.074705    Cartesian    0.83
    303 z          4.507787      4.499571    -0.008217    Cartesian   -0.18
    304 x         11.269468     11.271428     0.001960    Cartesian    0.02
    304 y          6.761681      6.765394     0.003713    Cartesian    0.05
    304 z         -2.253894     -2.249256     0.004637    Cartesian   -0.21
    305 x         -2.253894     -2.264804    -0.010910    Cartesian    0.48
    305 y         11.269468     11.256791    -0.012677    Cartesian   -0.11
    305 z          2.253894      2.255073     0.001179    Cartesian    0.05
    306 x          2.253894      2.253894     0.000000    Cartesian    0.00
    306 y         -6.761681     -6.739577     0.022104    Cartesian   -0.33
    306 z         -6.761681     -6.765491    -0.003810    Cartesian    0.06
    307 x         11.269468     11.261797    -0.007671    Cartesian   -0.07
    307 y         -2.253894     -2.254696    -0.000802    Cartesian    0.04
    307 z          6.761681      6.766674     0.004993    Cartesian    0.07
    308 x         -2.253894     -2.255064    -0.001170    Cartesian    0.05
    308 y          2.253894      2.247872    -0.006022    Cartesian   -0.27
    308 z         11.269468     11.272350     0.002882    Cartesian    0.03
    309 x         13.523362     13.565804     0.042442    Cartesian    0.31
    309 y          0.000000     -0.004859    -0.004859    Cartesian    0.00
    309 z          0.000000      0.019082     0.019082    Cartesian    0.00
    310 x          4.507787      4.514845     0.007058    Cartesian    0.16
    310 y          9.015574      9.038309     0.022734    Cartesian    0.25
    310 z          9.015574      9.044286     0.028712    Cartesian    0.32
    311 x         -2.253894     -2.255594    -0.001701    Cartesian    0.08
    311 y         11.269468     11.274832     0.005364    Cartesian    0.05
    311 z         -2.253894     -2.252499     0.001395    Cartesian   -0.06
    312 x          2.253894      2.253894     0.000000    Cartesian    0.00
    312 y         11.269468     11.270677     0.001209    Cartesian    0.01
    312 z          6.761681      6.755023    -0.006658    Cartesian   -0.10
    313 x          2.253894      2.253894     0.000000    Cartesian    0.00
    313 y          6.761681      6.765648     0.003967    Cartesian    0.06
    313 z         11.269468     11.254270    -0.015198    Cartesian   -0.13
    314 x          6.761681      6.762761     0.001080    Cartesian    0.02
    314 y         -2.253894     -2.255905    -0.002012    Cartesian    0.09
    314 z         11.269468     11.276969     0.007501    Cartesian    0.07
    315 x          9.015574      9.023796     0.008222    Cartesian    0.09
    315 y          9.015574      9.037921     0.022346    Cartesian    0.25
    315 z         -4.507787     -4.529958    -0.022171    Cartesian    0.49
    316 x         13.523362     13.521014    -0.002347    Cartesian   -0.02
    316 y          4.507787      4.557978     0.050191    Cartesian    1.11
    316 z          0.000000      0.001453     0.001453    Cartesian    0.00
    317 x          4.507787      4.494596    -0.013192    Cartesian   -0.29
    317 y         -4.507787     -4.527294    -0.019507    Cartesian    0.43
    317 z         -9.015574     -9.042318    -0.026744    Cartesian    0.30
    318 x         13.523362     13.627109     0.103747    Cartesian    0.77
    318 y          0.000000      0.000730     0.000730    Cartesian    0.00
    318 z          4.507787      4.465357    -0.042431    Cartesian   -0.94
    319 x          4.507787      4.509915     0.002128    Cartesian    0.05
    319 y         -9.015574     -9.077137    -0.061563    Cartesian    0.68
    319 z         -4.507787     -4.522080    -0.014292    Cartesian    0.32
    320 x          9.015574      9.068461     0.052886    Cartesian    0.59
    320 y         -4.507787     -4.522307    -0.014520    Cartesian    0.32
    320 z          9.015574      9.029872     0.014298    Cartesian    0.16
    321 x         11.269468     11.263484    -0.005984    Cartesian   -0.05
    321 y          2.253894      2.261177     0.007283    Cartesian    0.32
    321 z         -6.761681     -6.768172    -0.006491    Cartesian    0.10
--------------------------------------------------------------------------------


  Time to end of optimisation  =      219.0727 seconds


  Peak dynamic memory used =      95.03 MB 


  Timing analysis for GULP :

--------------------------------------------------------------------------------
  Task / Subroutine                                          Time (Seconds)
--------------------------------------------------------------------------------
  Calculation of reciprocal space energy and derivatives          0.0006
  Calculation of reciprocal space energy using symmetry           0.0009
  Calculation of real space energy and derivatives                0.0034
  Calculation of real space energy using symmetry                 0.0085
  Calculation for region 1 energy and derivatives (2-b)         121.6372
  Calculation for region 2a energy                               89.0094
  Calculation for region 2b energy                                0.0378
  Calculation and manipulation of Hessian matrix                  0.2607
  Calculation of matrix inversion                                 7.3867
  Symmetry generation of equivalent positions                     0.0043
--------------------------------------------------------------------------------
  Total CPU time                                                219.0728
--------------------------------------------------------------------------------


  Dump file written as Na3OCl.grs


  Job Finished at 22:55.44 30th November   2020                               

