********************************************************************************
*                       GENERAL UTILITY LATTICE PROGRAM                        *
*                                 Julian Gale                                  *
*                       Curtin Institute for Computation                       *
*                    School of Molecular and Life Sciences                     *
*                    Curtin University, Western Australia                      *
********************************************************************************
* Version = 5.2.0 * Last modified =  10th September 2020                       *
********************************************************************************
*  optimise     - perform optimisation run                                     *
*  conp         - constant pressure calculation                                *
*  property     - calculate properties for final geometry                      *
*  defect       - perform defect calculation after bulk run                    *
*  compare      - compare initial and final structures                         *
********************************************************************************

  Job Started  at 22:56.30 30th November   2020                               

  Number of CPUs =     1


  Total number of configurations input =      1

********************************************************************************
*  Input for Configuration =   1                                               *
********************************************************************************

  Formula = ClONa3                                                      

  Number of irreducible atoms/shells =       5


  Total number atoms/shells =       7

  Dimensionality = 3               :  Bulk   


  Symmetry :

  Crystal family                   :  Cubic       
  Crystal class  (Groth - 1921)    :  Cubic Hexakisoctahedral              

  Space group (centrosymmetric)    :  P M 3 M         

  Patterson group                  :  P m -3 m 

  Cartesian lattice vectors (Angstroms) :

        4.504000    0.000000    0.000000
        0.000000    4.504000    0.000000
        0.000000    0.000000    4.504000

  Cell parameters (Angstroms/Degrees):

  a =       4.5040    alpha =  90.0000
  b =       4.5040    beta  =  90.0000
  c =       4.5040    gamma =  90.0000

  Initial cell volume =          91.368216 Angs**3

  Temperature of configuration =   0.00     K 

  Pressure of configuration =         0.000 GPa 

  Fractional coordinates of asymmetric unit :

--------------------------------------------------------------------------------
   No.  Atomic       x           y          z         Charge      Occupancy
        Label      (Frac)      (Frac)     (Frac)        (e)         (Frac)  
--------------------------------------------------------------------------------
      1 Cl    c    0.000000    0.000000    0.000000     1.48500    1.000000    
      2 O     c    0.500000    0.500000    0.500000     0.18300    1.000000    
      3 Na    c    0.500000    0.500000    0.000000     1.00000    1.000000    
      4 Cl    s    0.000000    0.000000    0.000000    -2.48500    1.000000    
      5 O     s    0.500000    0.500000    0.500000    -2.18300    1.000000    
--------------------------------------------------------------------------------


  Constraints : 

--------------------------------------------------------------------------------
  Constraint no.      Unconstrained     Constrained    Coefficient    Offset
                         Variable         Variable
--------------------------------------------------------------------------------
           1              Strain 1        Strain 2       1.00000      0.0000
           2              Strain 1        Strain 3       1.00000      0.0000
--------------------------------------------------------------------------------


********************************************************************************
*  General input information                                                   *
********************************************************************************

  Species output for all configurations : 

--------------------------------------------------------------------------------
  Species    Type    Atomic    Atomic    Charge       Radii (Angs)     Library
                     Number     Mass       (e)     Cova   Ionic  VDW   Symbol
--------------------------------------------------------------------------------
    Na       Core       11      22.99   1.000000   0.970  0.000  2.300          
    O        Core        8      16.00   0.183000   0.730  0.000  1.360          
    O        Shell       8       0.00  -2.183000   0.730  0.000  1.360          
    Cl       Core       17      35.45   1.485000   0.990  0.000  1.650          
    Cl       Shell      17       0.00  -2.485000   0.990  0.000  1.650          
    Mg       Core       12      24.31   0.415000   1.100  0.000  0.000          
    Mg       Shell      12       0.00   1.585000   1.100  0.000  0.000          
    Ca       Core       20      40.08  -1.135000   0.990  0.000  0.000          
    Ca       Shell      20       0.00   3.135000   0.990  0.000  0.000          
    Sr       Core       38      87.62  -1.251000   1.120  0.000  0.000          
    Sr       Shell      38       0.00   3.251000   1.120  0.000  0.000          
    Ba       Core       56     137.33  -7.203000   1.340  0.000  0.000          
    Ba       Shell      56       0.00   9.203000   1.340  0.000  0.000          
--------------------------------------------------------------------------------


  Lattice summation method               =    Ewald          (3-D)
                                         =    Parry          (2-D)
                                         =    Saunders et al (1-D)
  Accuracy factor for lattice sums       =   12.000


  Analytic derivatives to be used

  Time limit = Infinity

  Maximum range for interatomic potentials =    100000.000000 Angstroms

  General interatomic potentials :

--------------------------------------------------------------------------------
Atom  Types   Potential      Parameter       Value         Units   Cutoffs(Ang)
  1     2                                                            Min /  Max 
--------------------------------------------------------------------------------
O    c O    s Spring (c-s)  Spring k 2       593.71600    eV*Ang^-2 0.000  0.800
                            Spring k 4       0.0000000    eV*Ang^-4 
--------------------------------------------------------------------------------
Cl   c Cl   s Spring (c-s)  Spring k 2       29.380000    eV*Ang^-2 0.000  0.800
                            Spring k 4       0.0000000    eV*Ang^-4 
--------------------------------------------------------------------------------
Mg   c Mg   s Spring (c-s)  Spring k 2       361.60000    eV*Ang^-2 0.000  0.800
                            Spring k 4       0.0000000    eV*Ang^-4 
--------------------------------------------------------------------------------
Ca   c Ca   s Spring (c-s)  Spring k 2       110.20000    eV*Ang^-2 0.000  0.800
                            Spring k 4       0.0000000    eV*Ang^-4 
--------------------------------------------------------------------------------
Sr   c Sr   s Spring (c-s)  Spring k 2       71.700000    eV*Ang^-2 0.000  0.800
                            Spring k 4       0.0000000    eV*Ang^-4 
--------------------------------------------------------------------------------
Ba   c Ba   s Spring (c-s)  Spring k 2       495.20000    eV*Ang^-2 0.000  0.800
                            Spring k 4       0.0000000    eV*Ang^-4 
--------------------------------------------------------------------------------
Na   c Na   c Buckingham    Buckingham A     1788.1900    eV        0.000 12.000
                            Buckingham rho  0.15900000    Ang       
                            Buckingham C     0.0000000    eV*Ang^6  
--------------------------------------------------------------------------------
Na   c O    s Buckingham    Buckingham A     1226.8400    eV        0.000 12.000
                            Buckingham rho  0.30700000    Ang       
                            Buckingham C     0.0000000    eV*Ang^6  
--------------------------------------------------------------------------------
Na   c Cl   s Buckingham    Buckingham A     2314.7000    eV        0.000 12.000
                            Buckingham rho  0.29000000    Ang       
                            Buckingham C     0.0000000    eV*Ang^6  
--------------------------------------------------------------------------------
O    s O    s Buckingham    Buckingham A     22764.300    eV        0.000 12.000
                            Buckingham rho  0.14900000    Ang       
                            Buckingham C     13.190000    eV*Ang^6  
--------------------------------------------------------------------------------
O    s Cl   s Buckingham    Buckingham A     8286.9100    eV        0.000 12.000
                            Buckingham rho  0.25900000    Ang       
                            Buckingham C     62.200000    eV*Ang^6  
--------------------------------------------------------------------------------
Cl   s Cl   s Buckingham    Buckingham A     1227.2000    eV        0.000 12.000
                            Buckingham rho  0.32100000    Ang       
                            Buckingham C     14.530000    eV*Ang^6  
--------------------------------------------------------------------------------
O    s Mg   s Buckingham    Buckingham A     1428.5000    eV        0.000 12.000
                            Buckingham rho  0.29450000    Ang       
                            Buckingham C     0.0000000    eV*Ang^6  
--------------------------------------------------------------------------------
Mg   s Cl   s Buckingham    Buckingham A     4914.5400    eV        0.000 12.000
                            Buckingham rho  0.25700000    Ang       
                            Buckingham C     0.0000000    eV*Ang^6  
--------------------------------------------------------------------------------
O    s Ca   s Buckingham    Buckingham A     1090.4000    eV        0.000 12.000
                            Buckingham rho  0.34370000    Ang       
                            Buckingham C     0.0000000    eV*Ang^6  
--------------------------------------------------------------------------------
Cl   s Ca   s Buckingham    Buckingham A     2302.0000    eV        0.000 12.000
                            Buckingham rho  0.34020000    Ang       
                            Buckingham C     0.0000000    eV*Ang^6  
--------------------------------------------------------------------------------
O    s Sr   s Buckingham    Buckingham A     959.10000    eV        0.000 12.000
                            Buckingham rho  0.37210000    Ang       
                            Buckingham C     0.0000000    eV*Ang^6  
--------------------------------------------------------------------------------
Cl   s Sr   s Buckingham    Buckingham A     2191.0900    eV        0.000 12.000
                            Buckingham rho  0.34570000    Ang       
                            Buckingham C     0.0000000    eV*Ang^6  
--------------------------------------------------------------------------------
O    s Ba   s Buckingham    Buckingham A     905.70000    eV        0.000 12.000
                            Buckingham rho  0.39760000    Ang       
                            Buckingham C     0.0000000    eV*Ang^6  
--------------------------------------------------------------------------------
Cl   s Ba   s Buckingham    Buckingham A     2704.5500    eV        0.000 12.000
                            Buckingham rho  0.35280000    Ang       
                            Buckingham C     0.0000000    eV*Ang^6  
--------------------------------------------------------------------------------

********************************************************************************
*  Output for configuration   1                                                *
********************************************************************************


  Components of energy : 

--------------------------------------------------------------------------------
  Interatomic potentials     =           5.13022605 eV    
  Monopole - monopole (real) =         -10.03624526 eV    
  Monopole - monopole (recip)=         -29.53581274 eV    
  Monopole - monopole (total)=         -39.57205800 eV    
--------------------------------------------------------------------------------
  Total lattice energy       =         -34.44183194 eV    
--------------------------------------------------------------------------------
  Total lattice energy       =           -3323.1103 kJ/(mole unit cells)
--------------------------------------------------------------------------------


  Number of variables =        1

  Maximum number of calculations  =          1000
  Maximum Hessian update interval =            10
  Maximum step size               =   1.000000000
  Maximum parameter tolerance     =   0.000010000
  Maximum function  tolerance     =   0.000010000
  Maximum gradient  tolerance     =   0.001000000
  Maximum gradient  component     =   0.010000000

  Symmetry constrained optimisation

  Symmetry used for second derivatives

  Cell parameters to be optimised using strains

  Newton-Raphson optimiser to be used

  BFGS hessian update to be used

  Lower half triangular hessian to be used

  Start of bulk optimisation :

  Cycle:      0 Energy:       -34.441832  Gnorm:      0.196570  CPU:    0.016
  ** Hessian calculated **
  Cycle:      1 Energy:       -34.441914  Gnorm:      0.000103  CPU:    0.020


  **** Optimisation achieved ****


  Final energy =     -34.44191447 eV
  Final Gnorm  =       0.00000000

  Components of energy : 

--------------------------------------------------------------------------------
  Interatomic potentials     =           5.09689708 eV    
  Monopole - monopole (real) =         -10.02781331 eV    
  Monopole - monopole (recip)=         -29.51099824 eV    
  Monopole - monopole (total)=         -39.53881155 eV    
--------------------------------------------------------------------------------
  Total lattice energy       =         -34.44191447 eV    
--------------------------------------------------------------------------------
  Total lattice energy       =           -3323.1183 kJ/(mole unit cells)
--------------------------------------------------------------------------------

  Final asymmetric unit coordinates :

--------------------------------------------------------------------------------
   No.  Atomic        x           y           z         Radius
        Label       (Frac)      (Frac)      (Frac)       (Angs) 
--------------------------------------------------------------------------------
     1  Cl    c     0.000000    0.000000    0.000000    0.000000
     2  O     c     0.500000    0.500000    0.500000    0.000000
     3  Na    c     0.500000    0.500000    0.000000    0.000000
     4  Cl    s     0.000000    0.000000    0.000000    0.000000
     5  O     s     0.500000    0.500000    0.500000    0.000000
--------------------------------------------------------------------------------

  Final Cartesian lattice vectors (Angstroms) :

        4.507787    0.000000    0.000000
        0.000000    4.507787    0.000000
        0.000000    0.000000    4.507787


  Final cell parameters and derivatives :

--------------------------------------------------------------------------------
       a            4.507787 Angstrom     dE/de1(xx)     0.000000 eV/strain
       b            4.507787 Angstrom     dE/de2(yy)     0.000000 eV/strain
       c            4.507787 Angstrom     dE/de3(zz)     0.000000 eV/strain
       alpha       90.000000 Degrees      dE/de4(yz)     0.000000 eV/strain
       beta        90.000000 Degrees      dE/de5(xz)     0.000000 eV/strain
       gamma       90.000000 Degrees      dE/de6(xy)     0.000000 eV/strain
--------------------------------------------------------------------------------

  Primitive cell volume =            91.598892 Angs**3

  Density of cell =      2.183054 g/cm**3

  Non-primitive cell volume =            91.598892 Angs**3


  Final internal derivatives :

--------------------------------------------------------------------------------
   No.  Atomic          a             b             c           Radius
        Label          (eV)          (eV)          (eV)        (eV/Angs)
--------------------------------------------------------------------------------
      1 Cl    c       0.000000      0.000000      0.000000      0.000000
      2 O     c       0.000000      0.000000      0.000000      0.000000
      3 Na    c       0.000000      0.000000      0.000000      0.000000
      4 Cl    s       0.000000      0.000000      0.000000      0.000000
      5 O     s       0.000000      0.000000      0.000000      0.000000
--------------------------------------------------------------------------------
  Maximum abs         0.000000      0.000000      0.000000      0.000000
--------------------------------------------------------------------------------

  Comparison of initial and final structures : 

--------------------------------------------------------------------------------
  Parameter   Initial value   Final value   Difference    Units      Percent
--------------------------------------------------------------------------------
    Volume        91.368216     91.598892     0.230676    Angs**3      0.25
    a              4.504000      4.507787     0.003787    Angstroms    0.08
    b              4.504000      4.507787     0.003787    Angstroms    0.08
    c              4.504000      4.507787     0.003787    Angstroms    0.08
    alpha         90.000000     90.000000     0.000000    Degrees      0.00
    beta          90.000000     90.000000     0.000000    Degrees      0.00
    gamma         90.000000     90.000000     0.000000    Degrees      0.00
      1 x          0.000000      0.000000     0.000000    Fractional   0.00
      1 y          0.000000      0.000000     0.000000    Fractional   0.00
      1 z          0.000000      0.000000     0.000000    Fractional   0.00
      2 x          0.500000      0.500000     0.000000    Fractional   0.00
      2 y          0.500000      0.500000     0.000000    Fractional   0.00
      2 z          0.500000      0.500000     0.000000    Fractional   0.00
      3 x          0.500000      0.500000     0.000000    Fractional   0.00
      3 y          0.500000      0.500000     0.000000    Fractional   0.00
      3 z          0.000000      0.000000     0.000000    Fractional   0.00
      4 x          0.000000      0.000000     0.000000    Fractional   0.00
      4 y          0.000000      0.000000     0.000000    Fractional   0.00
      4 z          0.000000      0.000000     0.000000    Fractional   0.00
      5 x          0.500000      0.500000     0.000000    Fractional   0.00
      5 y          0.500000      0.500000     0.000000    Fractional   0.00
      5 z          0.500000      0.500000     0.000000    Fractional   0.00
--------------------------------------------------------------------------------


  Born effective charge tensors : 

-------------------------------------------------------------------------------
  Atom             x           y             z
-------------------------------------------------------------------------------
    1 Cl    x      -1.0181     -0.0000      0.0000
            y      -0.0000     -1.0181      0.0000
            z       0.0000      0.0000     -1.0181
-------------------------------------------------------------------------------
    2 O     x      -2.2647      0.0000     -0.0000
            y       0.0000     -2.2647     -0.0000
            z      -0.0000     -0.0000     -2.2647
-------------------------------------------------------------------------------
    3 Na    x       1.2258     -0.0000      0.0000
            y      -0.0000      1.2258     -0.0000
            z       0.0000     -0.0000      0.8313
-------------------------------------------------------------------------------




  Elastic Constant Matrix: (Units=GPa)

-------------------------------------------------------------------------------
  Indices      1         2         3         4         5         6    
-------------------------------------------------------------------------------
       1     95.8177   20.0737   20.0737   -0.0000   -0.0000    0.0000
       2     20.0737   95.8177   20.0737   -0.0000   -0.0000    0.0000
       3     20.0737   20.0737   95.8177   -0.0000   -0.0000    0.0000
       4     -0.0000   -0.0000   -0.0000   20.0737   -0.0000    0.0000
       5     -0.0000   -0.0000   -0.0000   -0.0000   20.0737    0.0000
       6      0.0000    0.0000    0.0000    0.0000    0.0000   20.0737
-------------------------------------------------------------------------------


  Elastic Compliance Matrix: (Units=1/GPa)

-------------------------------------------------------------------------------
  Indices      1         2         3         4         5         6    
-------------------------------------------------------------------------------
       1    0.011253 -0.001949 -0.001949  0.000000  0.000000 -0.000000
       2   -0.001949  0.011253 -0.001949  0.000000  0.000000  0.000000
       3   -0.001949 -0.001949  0.011253  0.000000  0.000000 -0.000000
       4    0.000000  0.000000  0.000000  0.049816  0.000000 -0.000000
       5    0.000000  0.000000  0.000000  0.000000  0.049816 -0.000000
       6   -0.000000  0.000000 -0.000000 -0.000000 -0.000000  0.049816
-------------------------------------------------------------------------------

  Mechanical properties :

-------------------------------------------------------------------------------
  Convention :                    Reuss         Voigt         Hill
-------------------------------------------------------------------------------
  Bulk  Modulus (GPa)     =      45.32174      45.32174      45.32174
  Shear Modulus (GPa)     =      24.72085      27.19304      25.95695
-------------------------------------------------------------------------------
  Velocity S-wave (km/s)  =       3.36511       3.52937       3.44822
  Velocity P-wave (km/s)  =       5.98827       6.11304       6.05098
-------------------------------------------------------------------------------
  Compressibility (1/GPa) =    0.02206447
-------------------------------------------------------------------------------
  Stress axis :                     x             y             z
-------------------------------------------------------------------------------
  Youngs Moduli (GPa)     =      88.86373      88.86373      88.86373
-------------------------------------------------------------------------------
  Poissons Ratio (x)      =                     0.17321       0.17321
  Poissons Ratio (y)      =       0.17321                     0.17321
  Poissons Ratio (z)      =       0.17321       0.17321
-------------------------------------------------------------------------------


  Piezoelectric Strain Matrix: (Units=C/m**2)

-------------------------------------------------------------------------------
  Indices      1         2         3         4         5         6    
-------------------------------------------------------------------------------
       x    -0.00000  -0.00000  -0.00000   0.00000  -0.00000  -0.00000
       y    -0.00000  -0.00000   0.00000  -0.00000   0.00000   0.00000
       z    -0.00000  -0.00000  -0.00000  -0.00000   0.00000   0.00000
-------------------------------------------------------------------------------


  Piezoelectric Stress Matrix: (Units=10**-11 C/N)

-------------------------------------------------------------------------------
  Indices      1         2         3         4         5         6    
-------------------------------------------------------------------------------
       x    -0.00000   0.00000   0.00000   0.00000  -0.00000  -0.00000
       y    -0.00000  -0.00000   0.00000  -0.00000   0.00000   0.00000
       z     0.00000   0.00000  -0.00000  -0.00000   0.00000   0.00000
-------------------------------------------------------------------------------


  Static dielectric constant tensor : 

-------------------------------------------------------------------------------
              x         y         z
-------------------------------------------------------------------------------
       x    22.84729   0.00000   0.00000
       y     0.00000  22.84729  -0.00000
       z     0.00000  -0.00000  22.84729
--------------------------------------------------------------------------------

  High frequency dielectric constant tensor : 

-------------------------------------------------------------------------------
              x         y         z
-------------------------------------------------------------------------------
       x     1.47557   0.00000  -0.00000
       y     0.00000   1.47557  -0.00000
       z    -0.00000  -0.00000   1.47557
-------------------------------------------------------------------------------

  Static refractive indices : 

-------------------------------------------------------------------------------
    1 =    4.77988      2 =    4.77988      3 =    4.77988
-------------------------------------------------------------------------------

  High frequency refractive indices : 

-------------------------------------------------------------------------------
    1 =    1.21473      2 =    1.21473      3 =    1.21473
-------------------------------------------------------------------------------


  Time to end of optimisation =       0.0295 seconds

********************************************************************************
*  Defect calculation for configuration   1 :                                  *
********************************************************************************

  Total number of defects =      3

  Total charge on defect  =  -1.00

  Defect centre is at   0.5000   0.3900   0.1100  Frac

  Region 1 radius =  12.0000      Number of ions =    562

  Number of symmetry inequivalent region 1 ions  =    326

  Region 2 radius =  16.0000      Number of ions =    747

  Number of symmetry inequivalent region 2a ions =    407

  Region 2a mode = 4 : screened electrostatics due to region 1 
                       neglect correction to region 1 forces from 2a
                       region 2a displacements based on defects only

  Region 2a ions will only interact with defects in region 1

  Vacancies:

--------------------------------------------------------------------------------
    Specification type     Symbol/Number         x          y          z
--------------------------------------------------------------------------------
    Fractional                               0.500000   0.500000   0.000000
    Fractional                               0.500000   0.000000   0.500000
--------------------------------------------------------------------------------

  Interstitials:

--------------------------------------------------------------------------------
    Specification type     Symbol/Number         x          y          z
--------------------------------------------------------------------------------
    Atom/Fractional         Na               0.500000   0.390000   0.110000
--------------------------------------------------------------------------------


  Symmetry reduced region 1 (Relative to defect centre) :

--------------------------------------------------------------------------------
   No.   Atomic       x            y             z       Radius  Multiplicity   
         Label      (Angs)       (Angs)        (Angs)    (Angs)     
--------------------------------------------------------------------------------
     1  Na    c      0.0000       0.0000 *     0.0000 *  0.0000     1    Defect
     2  O     c      0.0000       0.4959 *     1.7580 *  0.0000     1          
     3  O     c      0.0000       0.4959 *    -2.7498 *  0.0000     1          
     4  Na    c      2.2539 *     0.4959 *     1.7580 *  0.0000     2          
     5  Cl    c      2.2539 *    -1.7580 *    -0.4959 *  0.0000     2          
     6  Na    c      0.0000       2.7498 *     1.7580 *  0.0000     1          
     7  Na    c      0.0000      -1.7580 *    -2.7498 *  0.0000     1          
     8  Cl    c      2.2539 *     2.7498 *    -0.4959 *  0.0000     2          
     9  Na    c      2.2539 *     0.4959 *    -2.7498 *  0.0000     2          
    10  Na    c      0.0000       2.7498 *    -2.7498 *  0.0000     1          
    11  Na    c      0.0000       0.4959 *     4.0119 *  0.0000     1          
    12  Na    c      0.0000      -4.0119 *    -0.4959 *  0.0000     1          
    13  O     c      0.0000      -4.0119 *     1.7580 *  0.0000     1          
    14  Na    c     -4.5078 *     0.4959 *    -0.4959 *  0.0000     2          
    15  O     c      0.0000      -4.0119 *    -2.7498 *  0.0000     1          
    16  O     c     -4.5078 *     0.4959 *     1.7580 *  0.0000     2          
    17  Cl    c      2.2539 *    -1.7580 *     4.0119 *  0.0000     2          
    18  Na    c      2.2539 *    -4.0119 *     1.7580 *  0.0000     2          
    19  Na    c      0.0000       0.4959 *    -5.0036 *  0.0000     1          
    20  Na    c      0.0000       5.0036 *    -0.4959 *  0.0000     1          
    21  Na    c     -4.5078 *    -1.7580 *     1.7580 *  0.0000     2          
    22  O     c      0.0000       5.0036 *     1.7580 *  0.0000     1          
    23  O     c     -4.5078 *     0.4959 *    -2.7498 *  0.0000     2          
    24  Cl    c      2.2539 *     2.7498 *     4.0119 *  0.0000     2          
    25  Na    c      2.2539 *    -4.0119 *    -2.7498 *  0.0000     2          
    26  Na    c     -4.5078 *     2.7498 *     1.7580 *  0.0000     2          
    27  Na    c     -4.5078 *    -1.7580 *    -2.7498 *  0.0000     2          
    28  Na    c      0.0000      -4.0119 *     4.0119 *  0.0000     1          
    29  O     c      0.0000       5.0036 *    -2.7498 *  0.0000     1          
    30  Cl    c      2.2539 *    -1.7580 *    -5.0036 *  0.0000     2          
    31  Na    c      2.2539 *     5.0036 *     1.7580 *  0.0000     2          
    32  Na    c     -4.5078 *     2.7498 *    -2.7498 *  0.0000     2          
    33  Na    c     -4.5078 *     0.4959 *     4.0119 *  0.0000     2          
    34  Na    c     -4.5078 *    -4.0119 *    -0.4959 *  0.0000     2          
    35  Cl    c      2.2539 *     2.7498 *    -5.0036 *  0.0000     2          
    36  Na    c      2.2539 *     5.0036 *    -2.7498 *  0.0000     2          
    37  O     c      0.0000       0.4959 *     6.2658 *  0.0000     1          
    38  O     c     -4.5078 *    -4.0119 *     1.7580 *  0.0000     2          
    39  Na    c      0.0000       5.0036 *     4.0119 *  0.0000     1          
    40  Na    c      0.0000      -4.0119 *    -5.0036 *  0.0000     1          
    41  Na    c      0.0000      -1.7580 *     6.2658 *  0.0000     1          
    42  Na    c      0.0000      -6.2658 *     1.7580 *  0.0000     1          
    43  O     c     -4.5078 *    -4.0119 *    -2.7498 *  0.0000     2          
    44  Na    c      2.2539 *     0.4959 *     6.2658 *  0.0000     2          
    45  Cl    c      2.2539 *    -6.2658 *    -0.4959 *  0.0000     2          
    46  Na    c     -4.5078 *     0.4959 *    -5.0036 *  0.0000     2          
    47  Na    c     -4.5078 *     5.0036 *    -0.4959 *  0.0000     2          
    48  Na    c      0.0000       2.7498 *     6.2658 *  0.0000     1          
    49  Na    c      0.0000      -6.2658 *    -2.7498 *  0.0000     1          
    50  O     c     -4.5078 *     5.0036 *     1.7580 *  0.0000     2          
    51  Cl    c      6.7617 *    -1.7580 *    -0.4959 *  0.0000     2          
    52  Na    c      6.7617 *     0.4959 *     1.7580 *  0.0000     2          
    53  Na    c      0.0000       5.0036 *    -5.0036 *  0.0000     1          
    54  Na    c     -4.5078 *    -4.0119 *     4.0119 *  0.0000     2          
    55  O     c      0.0000       0.4959 *    -7.2575 *  0.0000     1          
    56  O     c     -4.5078 *     5.0036 *    -2.7498 *  0.0000     2          
    57  Cl    c      6.7617 *     2.7498 *    -0.4959 *  0.0000     2          
    58  Na    c      6.7617 *     0.4959 *    -2.7498 *  0.0000     2          
    59  O     c      0.0000      -4.0119 *     6.2658 *  0.0000     1          
    60  Na    c      0.0000       7.2575 *     1.7580 *  0.0000     1          
    61  Na    c      0.0000      -1.7580 *    -7.2575 *  0.0000     1          
    62  Cl    c      2.2539 *     7.2575 *    -0.4959 *  0.0000     2          
    63  Na    c      2.2539 *     0.4959 *    -7.2575 *  0.0000     2          
    64  O     c     -4.5078 *     0.4959 *     6.2658 *  0.0000     2          
    65  Na    c      0.0000       2.7498 *    -7.2575 *  0.0000     1          
    66  Na    c      0.0000       7.2575 *    -2.7498 *  0.0000     1          
    67  Na    c      2.2539 *    -4.0119 *     6.2658 *  0.0000     2          
    68  Cl    c      2.2539 *    -6.2658 *     4.0119 *  0.0000     2          
    69  Na    c     -4.5078 *     5.0036 *     4.0119 *  0.0000     2          
    70  Na    c     -4.5078 *    -4.0119 *    -5.0036 *  0.0000     2          
    71  Na    c     -4.5078 *    -1.7580 *     6.2658 *  0.0000     2          
    72  Na    c      4.5078 *    -6.2658 *     1.7580 *  0.0000     2          
    73  O     c      0.0000       5.0036 *     6.2658 *  0.0000     1          
    74  Cl    c      6.7617 *    -1.7580 *     4.0119 *  0.0000     2          
    75  Na    c      6.7617 *    -4.0119 *     1.7580 *  0.0000     2          
    76  Na    c      4.5078 *     2.7498 *     6.2658 *  0.0000     2          
    77  Na    c      4.5078 *    -6.2658 *    -2.7498 *  0.0000     2          
    78  O     c      0.0000      -4.0119 *    -7.2575 *  0.0000     1          
    79  Cl    c      2.2539 *    -6.2658 *    -5.0036 *  0.0000     2          
    80  Na    c      2.2539 *     5.0036 *     6.2658 *  0.0000     2          
    81  Cl    c      6.7617 *     2.7498 *     4.0119 *  0.0000     2          
    82  Na    c      6.7617 *    -4.0119 *    -2.7498 *  0.0000     2          
    83  Na    c     -4.5078 *     5.0036 *    -5.0036 *  0.0000     2          
    84  Na    c      0.0000       0.4959 *     8.5197 *  0.0000     1          
    85  Na    c      0.0000      -8.5197 *    -0.4959 *  0.0000     1          
    86  O     c      4.5078 *     0.4959 *    -7.2575 *  0.0000     2          
    87  Cl    c      2.2539 *     7.2575 *     4.0119 *  0.0000     2          
    88  Na    c      2.2539 *    -4.0119 *    -7.2575 *  0.0000     2          
    89  Cl    c      6.7617 *    -1.7580 *    -5.0036 *  0.0000     2          
    90  Na    c      6.7617 *     5.0036 *     1.7580 *  0.0000     2          
    91  O     c     -4.5078 *    -4.0119 *     6.2658 *  0.0000     2          
    92  O     c      0.0000      -8.5197 *     1.7580 *  0.0000     1          
    93  Na    c     -4.5078 *     7.2575 *     1.7580 *  0.0000     2          
    94  Na    c     -4.5078 *    -1.7580 *    -7.2575 *  0.0000     2          
    95  O     c      0.0000       5.0036 *    -7.2575 *  0.0000     1          
    96  Cl    c      6.7617 *     2.7498 *    -5.0036 *  0.0000     2          
    97  Na    c      6.7617 *     5.0036 *    -2.7498 *  0.0000     2          
    98  Na    c      0.0000      -6.2658 *     6.2658 *  0.0000     1          
    99  O     c      0.0000      -8.5197 *    -2.7498 *  0.0000     1          
   100  Na    c      4.5078 *     2.7498 *    -7.2575 *  0.0000     2          
   101  Na    c     -4.5078 *     7.2575 *    -2.7498 *  0.0000     2          
   102  Cl    c      2.2539 *    -1.7580 *     8.5197 *  0.0000     2          
   103  Na    c      2.2539 *    -8.5197 *     1.7580 *  0.0000     2          
   104  Na    c      9.0156 *     0.4959 *    -0.4959 *  0.0000     2          
   105  Cl    c      2.2539 *     7.2575 *    -5.0036 *  0.0000     2          
   106  Na    c      2.2539 *     5.0036 *    -7.2575 *  0.0000     2          
   107  O     c     -4.5078 *     5.0036 *     6.2658 *  0.0000     2          
   108  O     c      9.0156 *     0.4959 *     1.7580 *  0.0000     2          
   109  Na    c      6.7617 *     0.4959 *     6.2658 *  0.0000     2          
   110  Cl    c      2.2539 *     2.7498 *     8.5197 *  0.0000     2          
   111  Cl    c      6.7617 *    -6.2658 *    -0.4959 *  0.0000     2          
   112  Na    c      2.2539 *    -8.5197 *    -2.7498 *  0.0000     2          
   113  Na    c      9.0156 *    -1.7580 *     1.7580 *  0.0000     2          
   114  Na    c      0.0000      -4.0119 *     8.5197 *  0.0000     1          
   115  Na    c      0.0000      -8.5197 *     4.0119 *  0.0000     1          
   116  O     c     -4.5078 *    -4.0119 *    -7.2575 *  0.0000     2          
   117  O     c      9.0156 *     0.4959 *    -2.7498 *  0.0000     2          
   118  Na    c      0.0000       0.4959 *    -9.5114 *  0.0000     1          
   119  Na    c      0.0000       9.5114 *    -0.4959 *  0.0000     1          
   120  Na    c      0.0000       7.2575 *     6.2658 *  0.0000     1          
   121  Na    c      0.0000      -6.2658 *    -7.2575 *  0.0000     1          
   122  Na    c      9.0156 *     2.7498 *     1.7580 *  0.0000     2          
   123  Na    c      9.0156 *    -1.7580 *    -2.7498 *  0.0000     2          
   124  Na    c      4.5078 *     0.4959 *     8.5197 *  0.0000     2          
   125  Na    c     -4.5078 *    -8.5197 *    -0.4959 *  0.0000     2          
   126  O     c      0.0000       9.5114 *     1.7580 *  0.0000     1          
   127  O     c     -4.5078 *    -8.5197 *     1.7580 *  0.0000     2          
   128  Na    c      9.0156 *     2.7498 *    -2.7498 *  0.0000     2          
   129  Na    c      9.0156 *     0.4959 *     4.0119 *  0.0000     2          
   130  Na    c      9.0156 *    -4.0119 *    -0.4959 *  0.0000     2          
   131  Na    c      0.0000       5.0036 *     8.5197 *  0.0000     1          
   132  Na    c      0.0000      -8.5197 *    -5.0036 *  0.0000     1          
   133  O     c      0.0000       9.5114 *    -2.7498 *  0.0000     1          
   134  O     c     -4.5078 *     5.0036 *    -7.2575 *  0.0000     2          
   135  Cl    c      2.2539 *    -1.7580 *    -9.5114 *  0.0000     2          
   136  Na    c      2.2539 *     9.5114 *     1.7580 *  0.0000     2          
   137  Cl    c      6.7617 *     7.2575 *    -0.4959 *  0.0000     2          
   138  Na    c      6.7617 *     0.4959 *    -7.2575 *  0.0000     2          
   139  Na    c      4.5078 *    -6.2658 *     6.2658 *  0.0000     2          
   140  O     c      9.0156 *    -4.0119 *     1.7580 *  0.0000     2          
   141  O     c     -4.5078 *    -8.5197 *    -2.7498 *  0.0000     2          
   142  Na    c      6.7617 *    -4.0119 *     6.2658 *  0.0000     2          
   143  Cl    c      6.7617 *    -6.2658 *     4.0119 *  0.0000     2          
   144  Cl    c      2.2539 *     2.7498 *    -9.5114 *  0.0000     2          
   145  Na    c      2.2539 *     9.5114 *    -2.7498 *  0.0000     2          
   146  O     c      9.0156 *    -4.0119 *    -2.7498 *  0.0000     2          
   147  Na    c      0.0000       7.2575 *    -7.2575 *  0.0000     1          
   148  Na    c      0.0000       9.5114 *     4.0119 *  0.0000     1          
   149  Na    c      0.0000      -4.0119 *    -9.5114 *  0.0000     1          
   150  Na    c      9.0156 *     0.4959 *    -5.0036 *  0.0000     2          
   151  Na    c      9.0156 *     5.0036 *    -0.4959 *  0.0000     2          
   152  Na    c     -4.5078 *    -4.0119 *     8.5197 *  0.0000     2          
   153  Na    c     -4.5078 *    -8.5197 *     4.0119 *  0.0000     2          
   154  O     c      9.0156 *     5.0036 *     1.7580 *  0.0000     2          
   155  Na    c      6.7617 *     5.0036 *     6.2658 *  0.0000     2          
   156  Cl    c      6.7617 *    -6.2658 *    -5.0036 *  0.0000     2          
   157  Na    c     -4.5078 *     0.4959 *    -9.5114 *  0.0000     2          
   158  Na    c     -4.5078 *     9.5114 *    -0.4959 *  0.0000     2          
   159  O     c      0.0000      -8.5197 *     6.2658 *  0.0000     1          
   160  Na    c     -4.5078 *     7.2575 *     6.2658 *  0.0000     2          
   161  Na    c      4.5078 *    -6.2658 *    -7.2575 *  0.0000     2          
   162  Na    c      9.0156 *    -4.0119 *     4.0119 *  0.0000     2          
   163  O     c     -4.5078 *     9.5114 *     1.7580 *  0.0000     2          
   164  O     c      9.0156 *     5.0036 *    -2.7498 *  0.0000     2          
   165  Cl    c      6.7617 *     7.2575 *     4.0119 *  0.0000     2          
   166  Na    c      6.7617 *    -4.0119 *    -7.2575 *  0.0000     2          
   167  Na    c      0.0000       5.0036 *    -9.5114 *  0.0000     1          
   168  Na    c      0.0000       9.5114 *    -5.0036 *  0.0000     1          
   169  O     c      0.0000       0.4959 *    10.7736 *  0.0000     1          
   170  Cl    c      2.2539 *    -6.2658 *     8.5197 *  0.0000     2          
   171  Na    c      2.2539 *    -8.5197 *     6.2658 *  0.0000     2          
   172  Na    c     -4.5078 *     5.0036 *     8.5197 *  0.0000     2          
   173  Na    c     -4.5078 *    -8.5197 *    -5.0036 *  0.0000     2          
   174  O     c     -4.5078 *     9.5114 *    -2.7498 *  0.0000     2          
   175  Na    c      0.0000      -1.7580 *    10.7736 *  0.0000     1          
   176  Na    c      0.0000     -10.7736 *     1.7580 *  0.0000     1          
   177  O     c      9.0156 *     0.4959 *     6.2658 *  0.0000     2          
   178  Na    c      2.2539 *     0.4959 *    10.7736 *  0.0000     2          
   179  Cl    c      2.2539 *   -10.7736 *    -0.4959 *  0.0000     2          
   180  Cl    c      6.7617 *    -1.7580 *     8.5197 *  0.0000     2          
   181  Na    c      6.7617 *    -8.5197 *     1.7580 *  0.0000     2          
   182  Na    c      9.0156 *     5.0036 *     4.0119 *  0.0000     2          
   183  Na    c      9.0156 *    -4.0119 *    -5.0036 *  0.0000     2          
   184  Cl    c      6.7617 *     7.2575 *    -5.0036 *  0.0000     2          
   185  Na    c      6.7617 *     5.0036 *    -7.2575 *  0.0000     2          
   186  Na    c      0.0000       2.7498 *    10.7736 *  0.0000     1          
   187  Na    c      9.0156 *    -1.7580 *     6.2658 *  0.0000     2          
   188  Na    c      0.0000     -10.7736 *    -2.7498 *  0.0000     1          
   189  Na    c      9.0156 *    -6.2658 *     1.7580 *  0.0000     2          
   190  O     c      0.0000      -8.5197 *    -7.2575 *  0.0000     1          
   191  Na    c     -4.5078 *     7.2575 *    -7.2575 *  0.0000     2          
   192  Cl    c      6.7617 *     2.7498 *     8.5197 *  0.0000     2          
   193  Na    c      6.7617 *    -8.5197 *    -2.7498 *  0.0000     2          
   194  Na    c     -4.5078 *     9.5114 *     4.0119 *  0.0000     2          
   195  Na    c     -4.5078 *    -4.0119 *    -9.5114 *  0.0000     2          
   196  Na    c      9.0156 *     2.7498 *     6.2658 *  0.0000     2          
   197  Na    c      9.0156 *    -6.2658 *    -2.7498 *  0.0000     2          
   198  O     c      0.0000       9.5114 *     6.2658 *  0.0000     1          
   199  Cl    c     11.2695 *    -1.7580 *    -0.4959 *  0.0000     2          
   200  Na    c     11.2695 *     0.4959 *     1.7580 *  0.0000     2          
   201  Cl    c      2.2539 *     7.2575 *     8.5197 *  0.0000     2          
   202  Na    c      2.2539 *    -8.5197 *    -7.2575 *  0.0000     2          
   203  Na    c      9.0156 *     5.0036 *    -5.0036 *  0.0000     2          
   204  O     c      0.0000      -4.0119 *    10.7736 *  0.0000     1          
   205  O     c      4.5078 *    -8.5197 *     6.2658 *  0.0000     2          
   206  O     c      9.0156 *     0.4959 *    -7.2575 *  0.0000     2          
   207  Cl    c      2.2539 *    -6.2658 *    -9.5114 *  0.0000     2          
   208  Cl    c     11.2695 *     2.7498 *    -0.4959 *  0.0000     2          
   209  Na    c      2.2539 *     9.5114 *     6.2658 *  0.0000     2          
   210  Na    c     11.2695 *     0.4959 *    -2.7498 *  0.0000     2          
   211  Na    c      4.5078 *     5.0036 *    -9.5114 *  0.0000     2          
   212  Na    c      4.5078 *     9.5114 *    -5.0036 *  0.0000     2          
   213  O     c     -4.5078 *     0.4959 *    10.7736 *  0.0000     2          
   214  O     c      9.0156 *    -4.0119 *     6.2658 *  0.0000     2          
   215  Na    c      9.0156 *     7.2575 *     1.7580 *  0.0000     2          
   216  Na    c      9.0156 *    -1.7580 *    -7.2575 *  0.0000     2          
   217  Na    c      2.2539 *    -4.0119 *    10.7736 *  0.0000     2          
   218  Cl    c      2.2539 *   -10.7736 *     4.0119 *  0.0000     2          
   219  O     c      0.0000       0.4959 *   -11.7653 *  0.0000     1          
   220  Cl    c      6.7617 *    -1.7580 *    -9.5114 *  0.0000     2          
   221  Na    c      6.7617 *     9.5114 *     1.7580 *  0.0000     2          
   222  Na    c      4.5078 *    -1.7580 *    10.7736 *  0.0000     2          
   223  Na    c      4.5078 *   -10.7736 *     1.7580 *  0.0000     2          
   224  O     c      0.0000       5.0036 *    10.7736 *  0.0000     1          
   225  Na    c      9.0156 *     2.7498 *    -7.2575 *  0.0000     2          
   226  Na    c      9.0156 *     7.2575 *    -2.7498 *  0.0000     2          
   227  Na    c      0.0000      11.7653 *     1.7580 *  0.0000     1          
   228  Na    c      0.0000      -1.7580 *   -11.7653 *  0.0000     1          
   229  O     c      0.0000       9.5114 *    -7.2575 *  0.0000     1          
   230  Cl    c      6.7617 *     2.7498 *    -9.5114 *  0.0000     2          
   231  Na    c      6.7617 *     9.5114 *    -2.7498 *  0.0000     2          
   232  Cl    c      2.2539 *    11.7653 *    -0.4959 *  0.0000     2          
   233  Na    c      2.2539 *     0.4959 *   -11.7653 *  0.0000     2          
   234  Na    c      4.5078 *     2.7498 *    10.7736 *  0.0000     2          
   235  Na    c      4.5078 *   -10.7736 *    -2.7498 *  0.0000     2          
   236  O     s      0.0000       0.4959 *     1.7580 *  0.0000     1          
   237  O     s      0.0000       0.4959 *    -2.7498 *  0.0000     1          
   238  Cl    s      2.2539 *    -1.7580 *    -0.4959 *  0.0000     2          
   239  Cl    s      2.2539 *     2.7498 *    -0.4959 *  0.0000     2          
   240  O     s      0.0000      -4.0119 *     1.7580 *  0.0000     1          
   241  O     s      0.0000      -4.0119 *    -2.7498 *  0.0000     1          
   242  O     s     -4.5078 *     0.4959 *     1.7580 *  0.0000     2          
   243  Cl    s      2.2539 *    -1.7580 *     4.0119 *  0.0000     2          
   244  O     s      0.0000       5.0036 *     1.7580 *  0.0000     1          
   245  O     s     -4.5078 *     0.4959 *    -2.7498 *  0.0000     2          
   246  Cl    s      2.2539 *     2.7498 *     4.0119 *  0.0000     2          
   247  O     s      0.0000       5.0036 *    -2.7498 *  0.0000     1          
   248  Cl    s      2.2539 *    -1.7580 *    -5.0036 *  0.0000     2          
   249  Cl    s      2.2539 *     2.7498 *    -5.0036 *  0.0000     2          
   250  O     s      0.0000       0.4959 *     6.2658 *  0.0000     1          
   251  O     s     -4.5078 *    -4.0119 *     1.7580 *  0.0000     2          
   252  O     s     -4.5078 *    -4.0119 *    -2.7498 *  0.0000     2          
   253  Cl    s      2.2539 *    -6.2658 *    -0.4959 *  0.0000     2          
   254  O     s     -4.5078 *     5.0036 *     1.7580 *  0.0000     2          
   255  Cl    s      6.7617 *    -1.7580 *    -0.4959 *  0.0000     2          
   256  O     s      0.0000       0.4959 *    -7.2575 *  0.0000     1          
   257  O     s     -4.5078 *     5.0036 *    -2.7498 *  0.0000     2          
   258  Cl    s      6.7617 *     2.7498 *    -0.4959 *  0.0000     2          
   259  O     s      0.0000      -4.0119 *     6.2658 *  0.0000     1          
   260  Cl    s      2.2539 *     7.2575 *    -0.4959 *  0.0000     2          
   261  O     s     -4.5078 *     0.4959 *     6.2658 *  0.0000     2          
   262  Cl    s      2.2539 *    -6.2658 *     4.0119 *  0.0000     2          
   263  O     s      0.0000       5.0036 *     6.2658 *  0.0000     1          
   264  Cl    s      6.7617 *    -1.7580 *     4.0119 *  0.0000     2          
   265  O     s      0.0000      -4.0119 *    -7.2575 *  0.0000     1          
   266  Cl    s      2.2539 *    -6.2658 *    -5.0036 *  0.0000     2          
   267  Cl    s      6.7617 *     2.7498 *     4.0119 *  0.0000     2          
   268  O     s      4.5078 *     0.4959 *    -7.2575 *  0.0000     2          
   269  Cl    s      2.2539 *     7.2575 *     4.0119 *  0.0000     2          
   270  Cl    s      6.7617 *    -1.7580 *    -5.0036 *  0.0000     2          
   271  O     s     -4.5078 *    -4.0119 *     6.2658 *  0.0000     2          
   272  O     s      0.0000      -8.5197 *     1.7580 *  0.0000     1          
   273  O     s      0.0000       5.0036 *    -7.2575 *  0.0000     1          
   274  Cl    s      6.7617 *     2.7498 *    -5.0036 *  0.0000     2          
   275  O     s      0.0000      -8.5197 *    -2.7498 *  0.0000     1          
   276  Cl    s      2.2539 *    -1.7580 *     8.5197 *  0.0000     2          
   277  Cl    s      2.2539 *     7.2575 *    -5.0036 *  0.0000     2          
   278  O     s     -4.5078 *     5.0036 *     6.2658 *  0.0000     2          
   279  O     s      9.0156 *     0.4959 *     1.7580 *  0.0000     2          
   280  Cl    s      2.2539 *     2.7498 *     8.5197 *  0.0000     2          
   281  Cl    s      6.7617 *    -6.2658 *    -0.4959 *  0.0000     2          
   282  O     s     -4.5078 *    -4.0119 *    -7.2575 *  0.0000     2          
   283  O     s      9.0156 *     0.4959 *    -2.7498 *  0.0000     2          
   284  O     s      0.0000       9.5114 *     1.7580 *  0.0000     1          
   285  O     s     -4.5078 *    -8.5197 *     1.7580 *  0.0000     2          
   286  O     s      0.0000       9.5114 *    -2.7498 *  0.0000     1          
   287  O     s     -4.5078 *     5.0036 *    -7.2575 *  0.0000     2          
   288  Cl    s      2.2539 *    -1.7580 *    -9.5114 *  0.0000     2          
   289  Cl    s      6.7617 *     7.2575 *    -0.4959 *  0.0000     2          
   290  O     s      9.0156 *    -4.0119 *     1.7580 *  0.0000     2          
   291  O     s     -4.5078 *    -8.5197 *    -2.7498 *  0.0000     2          
   292  Cl    s      6.7617 *    -6.2658 *     4.0119 *  0.0000     2          
   293  Cl    s      2.2539 *     2.7498 *    -9.5114 *  0.0000     2          
   294  O     s      9.0156 *    -4.0119 *    -2.7498 *  0.0000     2          
   295  O     s      9.0156 *     5.0036 *     1.7580 *  0.0000     2          
   296  Cl    s      6.7617 *    -6.2658 *    -5.0036 *  0.0000     2          
   297  O     s      0.0000      -8.5197 *     6.2658 *  0.0000     1          
   298  O     s     -4.5078 *     9.5114 *     1.7580 *  0.0000     2          
   299  O     s      9.0156 *     5.0036 *    -2.7498 *  0.0000     2          
   300  Cl    s      6.7617 *     7.2575 *     4.0119 *  0.0000     2          
   301  O     s      0.0000       0.4959 *    10.7736 *  0.0000     1          
   302  Cl    s      2.2539 *    -6.2658 *     8.5197 *  0.0000     2          
   303  O     s     -4.5078 *     9.5114 *    -2.7498 *  0.0000     2          
   304  O     s      9.0156 *     0.4959 *     6.2658 *  0.0000     2          
   305  Cl    s      2.2539 *   -10.7736 *    -0.4959 *  0.0000     2          
   306  Cl    s      6.7617 *    -1.7580 *     8.5197 *  0.0000     2          
   307  Cl    s      6.7617 *     7.2575 *    -5.0036 *  0.0000     2          
   308  O     s      0.0000      -8.5197 *    -7.2575 *  0.0000     1          
   309  Cl    s      6.7617 *     2.7498 *     8.5197 *  0.0000     2          
   310  O     s      0.0000       9.5114 *     6.2658 *  0.0000     1          
   311  Cl    s     11.2695 *    -1.7580 *    -0.4959 *  0.0000     2          
   312  Cl    s      2.2539 *     7.2575 *     8.5197 *  0.0000     2          
   313  O     s      0.0000      -4.0119 *    10.7736 *  0.0000     1          
   314  O     s      4.5078 *    -8.5197 *     6.2658 *  0.0000     2          
   315  O     s      9.0156 *     0.4959 *    -7.2575 *  0.0000     2          
   316  Cl    s      2.2539 *    -6.2658 *    -9.5114 *  0.0000     2          
   317  Cl    s     11.2695 *     2.7498 *    -0.4959 *  0.0000     2          
   318  O     s     -4.5078 *     0.4959 *    10.7736 *  0.0000     2          
   319  O     s      9.0156 *    -4.0119 *     6.2658 *  0.0000     2          
   320  Cl    s      2.2539 *   -10.7736 *     4.0119 *  0.0000     2          
   321  O     s      0.0000       0.4959 *   -11.7653 *  0.0000     1          
   322  Cl    s      6.7617 *    -1.7580 *    -9.5114 *  0.0000     2          
   323  O     s      0.0000       5.0036 *    10.7736 *  0.0000     1          
   324  O     s      0.0000       9.5114 *    -7.2575 *  0.0000     1          
   325  Cl    s      6.7617 *     2.7498 *    -9.5114 *  0.0000     2          
   326  Cl    s      2.2539 *    11.7653 *    -0.4959 *  0.0000     2          
--------------------------------------------------------------------------------

  Components of defect energy : 

--------------------------------------------------------------------------------
  Region 1 - region 1                   =     -3.42138814 eV
  Region 1 - region 2a (unrelaxed)      =     12.24181030 eV
  Region 1 - 2a (relaxed - correction)  =     -0.28880746 eV
  Region 1 (Total)                      =      8.53161470 eV
  Region 2a                             =      0.14431842 eV
  Region 2b                             =     -0.43372545 eV
--------------------------------------------------------------------------------
  Total defect energy                   =      8.24220766 eV
--------------------------------------------------------------------------------

  Largest displacement in region 2 =   0.0254 Angstroms


  Number of variables =      888

  Maximum number of calculations  =        1000
  Maximum Hessian update interval =          10
  Maximum step size               =   1.0000000
  Maximum parameter tolerance     =   0.0000100
  Maximum function  tolerance     =   0.0000100
  Maximum gradient  tolerance     =   0.0010000

  Symmetry adapted optimisation

  Symmetry to be used for second derivatives

  Newton-Raphson optimiser to be used

  BFGS hessian update to be used

  Lower half triangular hessian to be used

  Start of defect optimisation :

  Cycle:      0 Defect Energy:   8.242208  Gnorm:     0.019465  CPU:    2.782
  ** Hessian calculated **
  Cycle:      1 Defect Energy:   7.396351  Gnorm:     0.016518  CPU:    9.044
  Cycle:      2 Defect Energy:   6.915114  Gnorm:     0.014390  CPU:   17.633
  Cycle:      3 Defect Energy:   6.582396  Gnorm:     0.012244  CPU:   23.580
  ** Hessian calculated **
  Cycle:      4 Defect Energy:   5.653550  Gnorm:     0.004518  CPU:   29.138
  Cycle:      5 Defect Energy:   5.421332  Gnorm:     0.003181  CPU:   32.830
  Cycle:      6 Defect Energy:   5.354471  Gnorm:     0.002280  CPU:   33.820
  Cycle:      7 Defect Energy:   5.272428  Gnorm:     0.001781  CPU:   34.813
  Cycle:      8 Defect Energy:   5.170863  Gnorm:     0.001753  CPU:   35.880
  Cycle:      9 Defect Energy:   5.087986  Gnorm:     0.001384  CPU:   36.834
  Cycle:     10 Defect Energy:   5.032060  Gnorm:     0.001299  CPU:   37.787
  Cycle:     11 Defect Energy:   4.985260  Gnorm:     0.001385  CPU:   38.743
  Cycle:     12 Defect Energy:   4.933927  Gnorm:     0.001641  CPU:   39.798
  Cycle:     13 Defect Energy:   4.877408  Gnorm:     0.001697  CPU:   40.695
  ** Hessian calculated **
  Cycle:     14 Defect Energy:   4.815928  Gnorm:     0.001638  CPU:   43.128
  ** Hessian calculated **
  Cycle:     15 Defect Energy:   4.800239  Gnorm:     0.001389  CPU:   46.322
  Cycle:     16 Defect Energy:   4.780715  Gnorm:     0.001333  CPU:   49.900
  Cycle:     17 Defect Energy:   4.756176  Gnorm:     0.001238  CPU:   50.992
  Cycle:     18 Defect Energy:   4.726575  Gnorm:     0.001206  CPU:   52.100
  Cycle:     19 Defect Energy:   4.691971  Gnorm:     0.001253  CPU:   53.268
  Cycle:     20 Defect Energy:   4.661891  Gnorm:     0.001270  CPU:   54.354
  Cycle:     21 Defect Energy:   4.638734  Gnorm:     0.001389  CPU:   55.428
  Cycle:     22 Defect Energy:   4.620244  Gnorm:     0.001348  CPU:   56.490
  Cycle:     23 Defect Energy:   4.601296  Gnorm:     0.001397  CPU:   57.563
  Cycle:     24 Defect Energy:   4.581783  Gnorm:     0.001392  CPU:   58.730
  ** Hessian calculated **
  Cycle:     25 Defect Energy:   4.564739  Gnorm:     0.001293  CPU:   61.401
  Cycle:     26 Defect Energy:   4.538299  Gnorm:     0.001130  CPU:   62.425
  Cycle:     27 Defect Energy:   4.516514  Gnorm:     0.000962  CPU:   63.544
  Cycle:     28 Defect Energy:   4.478438  Gnorm:     0.000755  CPU:   64.517
  Cycle:     29 Defect Energy:   4.535871  Gnorm:     0.001446  CPU:   65.495
  Cycle:     30 Defect Energy:   4.514361  Gnorm:     0.001176  CPU:   66.516
  ** Hessian calculated **
  Cycle:     31 Defect Energy:   4.470662  Gnorm:     0.000830  CPU:   69.143
  Cycle:     32 Defect Energy:   4.448714  Gnorm:     0.000586  CPU:   70.109
  Cycle:     33 Defect Energy:   4.446354  Gnorm:     0.000542  CPU:   71.057
  ** Hessian calculated **
  Cycle:     34 Defect Energy:   4.434670  Gnorm:     0.000386  CPU:   73.594
  Cycle:     35 Defect Energy:   4.428103  Gnorm:     0.000287  CPU:   74.517
  Cycle:     36 Defect Energy:   4.424118  Gnorm:     0.000138  CPU:   75.429
  Cycle:     37 Defect Energy:   4.422135  Gnorm:     0.000095  CPU:   76.328
  Cycle:     38 Defect Energy:   4.420372  Gnorm:     0.000160  CPU:   77.247
  Cycle:     39 Defect Energy:   4.419904  Gnorm:     0.000141  CPU:   78.233
  Cycle:     40 Defect Energy:   4.419507  Gnorm:     0.000127  CPU:   81.206
  Cycle:     41 Defect Energy:   4.419301  Gnorm:     0.000130  CPU:   83.553
  Cycle:     42 Defect Energy:   4.419284  Gnorm:     0.000131  CPU:   84.725
  ** Hessian calculated **
  Cycle:     43 Defect Energy:   4.419124  Gnorm:     0.000079  CPU:   87.790
  Cycle:     44 Defect Energy:   4.419036  Gnorm:     0.000053  CPU:   88.917
  Cycle:     45 Defect Energy:   4.418954  Gnorm:     0.000051  CPU:   90.006
  Cycle:     46 Defect Energy:   4.418845  Gnorm:     0.000050  CPU:   91.077
  Cycle:     47 Defect Energy:   4.418749  Gnorm:     0.000055  CPU:   92.149
  Cycle:     48 Defect Energy:   4.418645  Gnorm:     0.000063  CPU:   93.280
  Cycle:     49 Defect Energy:   4.418565  Gnorm:     0.000069  CPU:   94.303
  Cycle:     50 Defect Energy:   4.418457  Gnorm:     0.000074  CPU:   95.327
  Cycle:     51 Defect Energy:   4.418375  Gnorm:     0.000079  CPU:   96.348
  Cycle:     52 Defect Energy:   4.418248  Gnorm:     0.000083  CPU:   97.402
  ** Hessian calculated **
  Cycle:     53 Defect Energy:   4.418212  Gnorm:     0.000075  CPU:  100.150
  Cycle:     54 Defect Energy:   4.418160  Gnorm:     0.000071  CPU:  101.162
  Cycle:     55 Defect Energy:   4.418107  Gnorm:     0.000068  CPU:  102.233
  Cycle:     56 Defect Energy:   4.418019  Gnorm:     0.000066  CPU:  103.201
  Cycle:     57 Defect Energy:   4.417949  Gnorm:     0.000065  CPU:  104.159
  Cycle:     58 Defect Energy:   4.417854  Gnorm:     0.000063  CPU:  104.825
  Cycle:     59 Defect Energy:   4.417807  Gnorm:     0.000074  CPU:  105.609
  Cycle:     60 Defect Energy:   4.417698  Gnorm:     0.000072  CPU:  106.626
  Cycle:     61 Defect Energy:   4.417590  Gnorm:     0.000084  CPU:  107.559
  Cycle:     62 Defect Energy:   4.417396  Gnorm:     0.000101  CPU:  108.489
  ** Hessian calculated **
  Cycle:     63 Defect Energy:   4.417284  Gnorm:     0.000095  CPU:  110.878
  Cycle:     64 Defect Energy:   4.417132  Gnorm:     0.000092  CPU:  111.865
  Cycle:     65 Defect Energy:   4.416926  Gnorm:     0.000092  CPU:  114.262
  Cycle:     66 Defect Energy:   4.416655  Gnorm:     0.000091  CPU:  117.245
  Cycle:     67 Defect Energy:   4.416295  Gnorm:     0.000094  CPU:  118.388
  Cycle:     68 Defect Energy:   4.415875  Gnorm:     0.000105  CPU:  119.526
  Cycle:     69 Defect Energy:   4.415397  Gnorm:     0.000123  CPU:  120.723
  Cycle:     70 Defect Energy:   4.414825  Gnorm:     0.000153  CPU:  121.928
  Cycle:     71 Defect Energy:   4.413844  Gnorm:     0.000198  CPU:  123.019
  Cycle:     72 Defect Energy:   4.412431  Gnorm:     0.000262  CPU:  124.094
  ** Hessian calculated **
  Cycle:     73 Defect Energy:   4.411508  Gnorm:     0.000245  CPU:  127.035
  Cycle:     74 Defect Energy:   4.410280  Gnorm:     0.000236  CPU:  128.073
  Cycle:     75 Defect Energy:   4.408600  Gnorm:     0.000229  CPU:  129.114
  Cycle:     76 Defect Energy:   4.406416  Gnorm:     0.000225  CPU:  130.143
  Cycle:     77 Defect Energy:   4.403657  Gnorm:     0.000228  CPU:  131.258
  Cycle:     78 Defect Energy:   4.400414  Gnorm:     0.000258  CPU:  132.306
  Cycle:     79 Defect Energy:   4.397061  Gnorm:     0.000310  CPU:  133.320
  Cycle:     80 Defect Energy:   4.392535  Gnorm:     0.000390  CPU:  134.314
  Cycle:     81 Defect Energy:   4.386544  Gnorm:     0.000538  CPU:  135.343
  Cycle:     82 Defect Energy:   4.380681  Gnorm:     0.000635  CPU:  136.368
  ** Hessian calculated **
  Cycle:     83 Defect Energy:   4.376426  Gnorm:     0.000607  CPU:  138.871
  Cycle:     84 Defect Energy:   4.370596  Gnorm:     0.000588  CPU:  139.836
  Cycle:     85 Defect Energy:   4.362700  Gnorm:     0.000570  CPU:  140.877
  Cycle:     86 Defect Energy:   4.352225  Gnorm:     0.000548  CPU:  141.812
  Cycle:     87 Defect Energy:   4.339358  Gnorm:     0.000552  CPU:  142.725
  Cycle:     88 Defect Energy:   4.327432  Gnorm:     0.000578  CPU:  143.647
  Cycle:     89 Defect Energy:   4.317945  Gnorm:     0.000644  CPU:  144.578
  Cycle:     90 Defect Energy:   4.308020  Gnorm:     0.000689  CPU:  145.519
  Cycle:     91 Defect Energy:   4.297554  Gnorm:     0.000763  CPU:  146.445
  Cycle:     92 Defect Energy:   4.284257  Gnorm:     0.000852  CPU:  148.386
  ** Hessian calculated **
  Cycle:     93 Defect Energy:   4.245544  Gnorm:     0.000854  CPU:  153.509
  Cycle:     94 Defect Energy:   4.189595  Gnorm:     0.000820  CPU:  154.664
  Cycle:     95 Defect Energy:   4.135430  Gnorm:     0.000577  CPU:  155.745
  Cycle:     96 Defect Energy:   4.118234  Gnorm:     0.000357  CPU:  156.984
  Cycle:     97 Defect Energy:   4.111204  Gnorm:     0.000253  CPU:  158.095
  Cycle:     98 Defect Energy:   4.105296  Gnorm:     0.000208  CPU:  159.235
  Cycle:     99 Defect Energy:   4.102941  Gnorm:     0.000134  CPU:  160.340
  Cycle:    100 Defect Energy:   4.101638  Gnorm:     0.000145  CPU:  161.507
  Cycle:    101 Defect Energy:   4.099612  Gnorm:     0.000117  CPU:  162.549
  Cycle:    102 Defect Energy:   4.098240  Gnorm:     0.000174  CPU:  163.594
  ** Hessian calculated **
  Cycle:    103 Defect Energy:   4.096549  Gnorm:     0.000126  CPU:  166.359
  Cycle:    104 Defect Energy:   4.095586  Gnorm:     0.000094  CPU:  167.303
  Cycle:    105 Defect Energy:   4.094995  Gnorm:     0.000068  CPU:  168.303
  Cycle:    106 Defect Energy:   4.094648  Gnorm:     0.000049  CPU:  169.287
  Cycle:    107 Defect Energy:   4.094449  Gnorm:     0.000035  CPU:  170.274
  Cycle:    108 Defect Energy:   4.094337  Gnorm:     0.000025  CPU:  171.354
  Cycle:    109 Defect Energy:   4.094275  Gnorm:     0.000018  CPU:  172.337
  Cycle:    110 Defect Energy:   4.094241  Gnorm:     0.000013  CPU:  173.270
  Cycle:    111 Defect Energy:   4.094222  Gnorm:     0.000009  CPU:  174.226
  Cycle:    112 Defect Energy:   4.094212  Gnorm:     0.000006  CPU:  175.254
  ** Hessian calculated **


  **** Optimisation achieved ****


  Final defect energy  =        4.09420616
  Final defect Gnorm   =        0.00000438

  Components of defect energy : 

--------------------------------------------------------------------------------
  Region 1 - region 1                   =     -6.37176001 eV
  Region 1 - region 2a (unrelaxed)      =     11.00658202 eV
  Region 1 - 2a (relaxed - correction)  =     -0.21908073 eV
  Region 1 (Total)                      =      4.41574128 eV
  Region 2a                             =      0.10943561 eV
  Region 2b                             =     -0.43097073 eV
--------------------------------------------------------------------------------
  Total defect energy                   =      4.09420616 eV
--------------------------------------------------------------------------------

  Largest displacement in region 2 =   0.0263 Angstroms

  Final coordinates of region 1 :

--------------------------------------------------------------------------------
   No.  Atomic        x           y           z          Radius      Charge
        Label       (Angs)      (Angs)      (Angs)       (Angs)       (e) 
--------------------------------------------------------------------------------
     1  Na    c     2.253894    1.771657    0.075202    0.000000    1.000000
     2  O     c     2.253894    2.337598    2.228694    0.000000    0.183000
     3  O     c     2.253894    2.231002   -2.217118    0.000000    0.183000
     4  Na    c     4.433607    1.896149    2.254044    0.000000    1.000000
     5  Na    c     0.074181    1.896149    2.254044    0.000000    1.000000
     6  Cl    c     4.631143    0.002470   -0.087413    0.000000    1.485000
     7  Cl    c    -0.123356    0.002470   -0.087413    0.000000    1.485000
     8  Na    c     2.253894    4.521719    2.120216    0.000000    1.000000
     9  Na    c     2.253894    0.005358   -2.657904    0.000000    1.000000
    10  Cl    c     4.590462    4.624040   -0.064879    0.000000    1.485000
    11  Cl    c    -0.082675    4.624040   -0.064879    0.000000    1.485000
    12  Na    c     4.508056    2.175696   -2.216391    0.000000    1.000000
    13  Na    c    -0.000269    2.175696   -2.216391    0.000000    1.000000
    14  Na    c     2.253894    4.474559   -1.774402    0.000000    1.000000
    15  Na    c     2.253894    1.879035    4.409280    0.000000    1.000000
    16  Na    c     2.253894   -1.814045    0.072756    0.000000    1.000000
    17  O     c     2.253894   -2.320419    2.242692    0.000000    0.183000
    18  Na    c    -2.159698    2.639154    0.003504    0.000000    1.000000
    19  Na    c     6.667485    2.639154    0.003504    0.000000    1.000000
    20  O     c     2.253894   -2.221078   -2.226529    0.000000    0.183000
    21  O     c    -2.221666    2.237299    2.244271    0.000000    0.183000
    22  O     c     6.729453    2.237299    2.244271    0.000000    0.183000
    23  Cl    c     4.604637    0.003235    4.636617    0.000000    1.485000
    24  Cl    c    -0.096850    0.003235    4.636617    0.000000    1.485000
    25  Na    c     4.434789   -1.882888    2.280792    0.000000    1.000000
    26  Na    c     0.072998   -1.882888    2.280792    0.000000    1.000000
    27  Na    c     2.253894    2.656904   -4.467621    0.000000    1.000000
    28  Na    c     2.253894    7.109101   -0.016494    0.000000    1.000000
    29  Na    c    -2.447379    0.008827    1.856462    0.000000    1.000000
    30  Na    c     6.955167    0.008827    1.856462    0.000000    1.000000
    31  O     c     2.253894    6.810584    2.217058    0.000000    0.183000
    32  O     c    -2.261069    2.264179   -2.249935    0.000000    0.183000
    33  O     c     6.768856    2.264179   -2.249935    0.000000    0.183000
    34  Cl    c     4.545099    4.651249    4.628407    0.000000    1.485000
    35  Cl    c    -0.037312    4.651249    4.628407    0.000000    1.485000
    36  Na    c     4.511397   -2.155420   -2.265326    0.000000    1.000000
    37  Na    c    -0.003610   -2.155420   -2.265326    0.000000    1.000000
    38  Na    c    -1.987982    4.473252    2.595854    0.000000    1.000000
    39  Na    c     6.495769    4.473252    2.595854    0.000000    1.000000
    40  Na    c    -2.336213    0.008550   -1.887605    0.000000    1.000000
    41  Na    c     6.844001    0.008550   -1.887605    0.000000    1.000000
    42  Na    c     2.253894   -1.849260    4.415921    0.000000    1.000000
    43  O     c     2.253894    6.735136   -2.243346    0.000000    0.183000
    44  Cl    c     4.525537   -0.002649   -4.513676    0.000000    1.485000
    45  Cl    c    -0.017750   -0.002649   -4.513676    0.000000    1.485000
    46  Na    c     4.505104    6.814975    2.101544    0.000000    1.000000
    47  Na    c     0.002683    6.814975    2.101544    0.000000    1.000000
    48  Na    c    -2.165613    4.501614   -2.623192    0.000000    1.000000
    49  Na    c     6.673400    4.501614   -2.623192    0.000000    1.000000
    50  Na    c    -2.293778    1.884132    4.493009    0.000000    1.000000
    51  Na    c     6.801565    1.884132    4.493009    0.000000    1.000000
    52  Na    c    -2.088550   -2.615847    0.005445    0.000000    1.000000
    53  Na    c     6.596337   -2.615847    0.005445    0.000000    1.000000
    54  Cl    c     4.522537    4.505924   -4.562736    0.000000    1.485000
    55  Cl    c    -0.014750    4.505924   -4.562736    0.000000    1.485000
    56  Na    c     4.515093    6.716996   -2.153883    0.000000    1.000000
    57  Na    c    -0.007306    6.716996   -2.153883    0.000000    1.000000
    58  O     c     2.253894    2.241983    6.710339    0.000000    0.183000
    59  O     c    -2.221373   -2.219591    2.238099    0.000000    0.183000
    60  O     c     6.729160   -2.219591    2.238099    0.000000    0.183000
    61  Na    c     2.253894    6.707707    4.482766    0.000000    1.000000
    62  Na    c     2.253894   -2.664439   -4.458578    0.000000    1.000000
    63  Na    c     2.253894    0.000498    7.030340    0.000000    1.000000
    64  Na    c     2.253894   -4.503516    2.185733    0.000000    1.000000
    65  O     c    -2.262959   -2.246889   -2.240801    0.000000    0.183000
    66  O     c     6.770746   -2.246889   -2.240801    0.000000    0.183000
    67  Na    c     4.510396    2.322146    6.640592    0.000000    1.000000
    68  Na    c    -0.002608    2.322146    6.640592    0.000000    1.000000
    69  Cl    c     4.571934   -4.626034   -0.064882    0.000000    1.485000
    70  Cl    c    -0.064147   -4.626034   -0.064882    0.000000    1.485000
    71  Na    c    -2.274891    1.888133   -4.489794    0.000000    1.000000
    72  Na    c     6.782678    1.888133   -4.489794    0.000000    1.000000
    73  Na    c    -2.360127    6.409342   -0.005405    0.000000    1.000000
    74  Na    c     6.867915    6.409342   -0.005405    0.000000    1.000000
    75  Na    c     2.253894    4.479062    6.482256    0.000000    1.000000
    76  Na    c     2.253894   -4.466331   -1.814463    0.000000    1.000000
    77  O     c    -2.246098    6.725532    2.253599    0.000000    0.183000
    78  O     c     6.753886    6.725532    2.253599    0.000000    0.183000
    79  Cl    c     9.082943   -0.032937   -0.030268    0.000000    1.485000
    80  Cl    c    -4.575156   -0.032937   -0.030268    0.000000    1.485000
    81  Na    c     8.994457    2.460722    2.227062    0.000000    1.000000
    82  Na    c    -4.486670    2.460722    2.227062    0.000000    1.000000
    83  Na    c     2.253894    6.400046   -4.493593    0.000000    1.000000
    84  Na    c    -2.334229   -1.914733    4.497425    0.000000    1.000000
    85  Na    c     6.842016   -1.914733    4.497425    0.000000    1.000000
    86  O     c     2.253894    2.268069   -6.729824    0.000000    0.183000
    87  O     c    -2.268934    6.747728   -2.268228    0.000000    0.183000
    88  O     c     6.776722    6.747728   -2.268228    0.000000    0.183000
    89  Cl    c     9.062954    4.487852   -0.006706    0.000000    1.485000
    90  Cl    c    -4.555166    4.487852   -0.006706    0.000000    1.485000
    91  Na    c     9.018309    2.363273   -2.188921    0.000000    1.000000
    92  Na    c    -4.510522    2.363273   -2.188921    0.000000    1.000000
    93  O     c     2.253894   -2.241815    6.704155    0.000000    0.183000
    94  Na    c     2.253894    9.038447    2.499820    0.000000    1.000000
    95  Na    c     2.253894    0.003424   -6.430012    0.000000    1.000000
    96  Cl    c     4.516605    9.039589   -0.011520    0.000000    1.485000
    97  Cl    c    -0.008817    9.039589   -0.011520    0.000000    1.485000
    98  Na    c     4.511917    2.309810   -6.677567    0.000000    1.000000
    99  Na    c    -0.004130    2.309810   -6.677567    0.000000    1.000000
   100  O     c    -2.260766    2.252515    6.745845    0.000000    0.183000
   101  O     c     6.768554    2.252515    6.745845    0.000000    0.183000
   102  Na    c     2.253894    4.487419   -7.119660    0.000000    1.000000
   103  Na    c     2.253894    8.980148   -2.575672    0.000000    1.000000
   104  Na    c     4.506746   -2.321916    6.610449    0.000000    1.000000
   105  Na    c     0.001041   -2.321916    6.610449    0.000000    1.000000
   106  Cl    c     4.567070   -4.653279    4.624183    0.000000    1.485000
   107  Cl    c    -0.059282   -4.653279    4.624183    0.000000    1.485000
   108  Na    c    -2.088504    7.031853    4.496394    0.000000    1.000000
   109  Na    c     6.596291    7.031853    4.496394    0.000000    1.000000
   110  Na    c    -2.347624   -1.940557   -4.495239    0.000000    1.000000
   111  Na    c     6.855411   -1.940557   -4.495239    0.000000    1.000000
   112  Na    c    -2.096582    0.005527    7.066345    0.000000    1.000000
   113  Na    c     6.604369    0.005527    7.066345    0.000000    1.000000
   114  Na    c     6.556491   -4.461554    2.577053    0.000000    1.000000
   115  Na    c    -2.048704   -4.461554    2.577053    0.000000    1.000000
   116  O     c     2.253894    6.732976    6.755874    0.000000    0.183000
   117  Cl    c     9.050471    0.000761    4.545354    0.000000    1.485000
   118  Cl    c    -4.542684    0.000761    4.545354    0.000000    1.485000
   119  Na    c     8.992577   -2.405301    2.145814    0.000000    1.000000
   120  Na    c    -4.484790   -2.405301    2.145814    0.000000    1.000000
   121  Na    c     6.861559    4.510332    6.450397    0.000000    1.000000
   122  Na    c    -2.353772    4.510332    6.450397    0.000000    1.000000
   123  Na    c     6.726503   -4.487112   -2.570022    0.000000    1.000000
   124  Na    c    -2.218716   -4.487112   -2.570022    0.000000    1.000000
   125  O     c     2.253894   -2.262011   -6.707031    0.000000    0.183000
   126  Cl    c     4.530334   -4.515789   -4.564634    0.000000    1.485000
   127  Cl    c    -0.022547   -4.515789   -4.564634    0.000000    1.485000
   128  Na    c     4.510948    6.635623    6.814472    0.000000    1.000000
   129  Na    c    -0.003160    6.635623    6.814472    0.000000    1.000000
   130  Cl    c     9.060291    4.509836    4.502769    0.000000    1.485000
   131  Cl    c    -4.552504    4.509836    4.502769    0.000000    1.485000
   132  Na    c     9.016201   -2.295556   -2.087326    0.000000    1.000000
   133  Na    c    -4.508413   -2.295556   -2.087326    0.000000    1.000000
   134  Na    c    -2.191610    7.105927   -4.491061    0.000000    1.000000
   135  Na    c     6.699397    7.105927   -4.491061    0.000000    1.000000
   136  Na    c     2.253894    2.445457    8.979903    0.000000    1.000000
   137  Na    c     2.253894   -6.989314   -0.001548    0.000000    1.000000
   138  O     c     6.768653    2.237212   -6.743071    0.000000    0.183000
   139  O     c    -2.260866    2.237212   -6.743071    0.000000    0.183000
   140  Cl    c     4.475053    9.074189    4.487775    0.000000    1.485000
   141  Cl    c     0.032734    9.074189    4.487775    0.000000    1.485000
   142  Na    c     4.508332   -2.270038   -6.634340    0.000000    1.000000
   143  Na    c    -0.000545   -2.270038   -6.634340    0.000000    1.000000
   144  Cl    c     9.049057    0.002187   -4.560751    0.000000    1.485000
   145  Cl    c    -4.541270    0.002187   -4.560751    0.000000    1.485000
   146  Na    c     9.004034    6.567237    2.385939    0.000000    1.000000
   147  Na    c    -4.496247    6.567237    2.385939    0.000000    1.000000
   148  O     c    -2.253085   -2.237898    6.757552    0.000000    0.183000
   149  O     c     6.760872   -2.237898    6.757552    0.000000    0.183000
   150  O     c     2.253894   -6.792834    2.232864    0.000000    0.183000
   151  Na    c    -2.356472    8.984666    2.010763    0.000000    1.000000
   152  Na    c     6.864259    8.984666    2.010763    0.000000    1.000000
   153  Na    c    -2.171893    0.004409   -7.077834    0.000000    1.000000
   154  Na    c     6.679681    0.004409   -7.077834    0.000000    1.000000
   155  O     c     2.253894    6.716320   -6.765647    0.000000    0.183000
   156  Cl    c     9.060901    4.534029   -4.528570    0.000000    1.485000
   157  Cl    c    -4.553114    4.534029   -4.528570    0.000000    1.485000
   158  Na    c     9.023823    6.651952   -2.350653    0.000000    1.000000
   159  Na    c    -4.516036    6.651952   -2.350653    0.000000    1.000000
   160  Na    c     2.253894   -4.493428    6.503661    0.000000    1.000000
   161  O     c     2.253894   -6.730505   -2.230789    0.000000    0.183000
   162  Na    c     6.835334    4.502339   -6.475040    0.000000    1.000000
   163  Na    c    -2.327547    4.502339   -6.475040    0.000000    1.000000
   164  Na    c    -2.302389    8.993770   -1.959649    0.000000    1.000000
   165  Na    c     6.810176    8.993770   -1.959649    0.000000    1.000000
   166  Cl    c     4.497372    0.009643    9.064440    0.000000    1.485000
   167  Cl    c     0.010415    0.009643    9.064440    0.000000    1.485000
   168  Na    c     4.501534   -6.765429    2.155054    0.000000    1.000000
   169  Na    c     0.006253   -6.765429    2.155054    0.000000    1.000000
   170  Na    c    11.258307    1.872607    0.003210    0.000000    1.000000
   171  Na    c    -6.750519    1.872607    0.003210    0.000000    1.000000
   172  Cl    c     4.497112    9.064815   -4.547928    0.000000    1.485000
   173  Cl    c     0.010675    9.064815   -4.547928    0.000000    1.485000
   174  Na    c     4.508002    6.677257   -6.735689    0.000000    1.000000
   175  Na    c    -0.000215    6.677257   -6.735689    0.000000    1.000000
   176  O     c    -2.262321    6.776457    6.744960    0.000000    0.183000
   177  O     c     6.770108    6.776457    6.744960    0.000000    0.183000
   178  O     c    11.256725    2.251147    2.238680    0.000000    0.183000
   179  O     c    -6.748938    2.251147    2.238680    0.000000    0.183000
   180  Na    c     9.014621    2.094716    6.765873    0.000000    1.000000
   181  Na    c    -4.506834    2.094716    6.765873    0.000000    1.000000
   182  Cl    c     4.511577    4.535603    9.077577    0.000000    1.485000
[...]
    246 y          4.507787      4.664050     0.156263    Cartesian    3.47
    246 z          4.507787      4.642457     0.134670    Cartesian    2.99
    247 x          2.253894      2.253894     0.000000    Cartesian    0.00
    247 y          6.761681      6.735188    -0.026492    Cartesian   -0.39
    247 z         -2.253894     -2.243283     0.010610    Cartesian   -0.47
    248 x          4.507787      4.523671     0.015883    Cartesian    0.35
    248 y          0.000000     -0.002197    -0.002197    Cartesian    0.00
    248 z         -4.507787     -4.512951    -0.005164    Cartesian    0.11
    249 x          4.507787      4.522532     0.014745    Cartesian    0.33
    249 y          4.507787      4.505018    -0.002770    Cartesian   -0.06
    249 z         -4.507787     -4.566692    -0.058905    Cartesian    1.31
    250 x          2.253894      2.253894     0.000000    Cartesian    0.00
    250 y          2.253894      2.242017    -0.011876    Cartesian   -0.53
    250 z          6.761681      6.710387    -0.051294    Cartesian   -0.76
    251 x         -2.253894     -2.221432     0.032462    Cartesian   -1.44
    251 y         -2.253894     -2.219592     0.034302    Cartesian   -1.52
    251 z          2.253894      2.238072    -0.015822    Cartesian   -0.70
    252 x         -2.253894     -2.262961    -0.009068    Cartesian    0.40
    252 y         -2.253894     -2.246915     0.006979    Cartesian   -0.31
    252 z         -2.253894     -2.240788     0.013105    Cartesian   -0.58
    253 x          4.507787      4.584426     0.076639    Cartesian    1.70
    253 y         -4.507787     -4.635988    -0.128200    Cartesian    2.84
    253 z          0.000000     -0.077307    -0.077307    Cartesian    0.00
    254 x         -2.253894     -2.246063     0.007830    Cartesian   -0.35
    254 y          6.761681      6.725546    -0.036134    Cartesian   -0.53
    254 z          2.253894      2.253625    -0.000269    Cartesian   -0.01
    255 x          9.015574      9.079657     0.064082    Cartesian    0.71
    255 y          0.000000     -0.034479    -0.034479    Cartesian    0.00
    255 z          0.000000     -0.030986    -0.030986    Cartesian    0.00
    256 x          2.253894      2.253894     0.000000    Cartesian    0.00
    256 y          2.253894      2.268132     0.014238    Cartesian    0.63
    256 z         -6.761681     -6.729850     0.031831    Cartesian   -0.47
    257 x         -2.253894     -2.268942    -0.015048    Cartesian    0.67
    257 y          6.761681      6.747729    -0.013952    Cartesian   -0.21
    257 z         -2.253894     -2.268274    -0.014380    Cartesian    0.64
    258 x          9.015574      9.062364     0.046790    Cartesian    0.52
    258 y          4.507787      4.486064    -0.021723    Cartesian   -0.48
    258 z          0.000000     -0.006506    -0.006506    Cartesian    0.00
    259 x          2.253894      2.253894     0.000000    Cartesian    0.00
    259 y         -2.253894     -2.241830     0.012063    Cartesian   -0.54
    259 z          6.761681      6.704190    -0.057491    Cartesian   -0.85
    260 x          4.507787      4.514865     0.007078    Cartesian    0.16
    260 y          9.015574      9.037337     0.021762    Cartesian    0.24
    260 z          0.000000     -0.011873    -0.011873    Cartesian    0.00
    261 x         -2.253894     -2.260768    -0.006875    Cartesian    0.31
    261 y          2.253894      2.252481    -0.001412    Cartesian   -0.06
    261 z          6.761681      6.745861    -0.015820    Cartesian   -0.23
    262 x          4.507787      4.581327     0.073540    Cartesian    1.63
    262 y         -4.507787     -4.666526    -0.158739    Cartesian    3.52
    262 z          4.507787      4.637219     0.129431    Cartesian    2.87
    263 x          2.253894      2.253894     0.000000    Cartesian    0.00
    263 y          6.761681      6.732935    -0.028746    Cartesian   -0.43
    263 z          6.761681      6.755867    -0.005813    Cartesian   -0.09
    264 x          9.015574      9.048839     0.033265    Cartesian    0.37
    264 y          0.000000      0.000876     0.000876    Cartesian    0.00
    264 z          4.507787      4.545835     0.038048    Cartesian    0.84
    265 x          2.253894      2.253894     0.000000    Cartesian    0.00
    265 y         -2.253894     -2.262088    -0.008194    Cartesian    0.36
    265 z         -6.761681     -6.707016     0.054665    Cartesian   -0.81
    266 x          4.507787      4.530086     0.022299    Cartesian    0.49
    266 y         -4.507787     -4.513438    -0.005651    Cartesian    0.13
    266 z         -4.507787     -4.569261    -0.061474    Cartesian    1.36
    267 x          9.015574      9.064232     0.048658    Cartesian    0.54
    267 y          4.507787      4.511866     0.004079    Cartesian    0.09
    267 z          4.507787      4.501368    -0.006419    Cartesian   -0.14
    268 x          6.761681      6.768658     0.006977    Cartesian    0.10
    268 y          2.253894      2.237156    -0.016737    Cartesian   -0.74
    268 z         -6.761681     -6.743093     0.018588    Cartesian   -0.27
    269 x          4.507787      4.474337    -0.033450    Cartesian   -0.74
    269 y          9.015574      9.076466     0.060892    Cartesian    0.68
    269 z          4.507787      4.481827    -0.025960    Cartesian   -0.58
    270 x          9.015574      9.046790     0.031216    Cartesian    0.35
    270 y          0.000000      0.002541     0.002541    Cartesian    0.00
    270 z         -4.507787     -4.564708    -0.056921    Cartesian    1.26
    271 x         -2.253894     -2.253080     0.000814    Cartesian   -0.04
    271 y         -2.253894     -2.237882     0.016012    Cartesian   -0.71
    271 z          6.761681      6.757589    -0.004091    Cartesian   -0.06
    272 x          2.253894      2.253894     0.000000    Cartesian    0.00
    272 y         -6.761681     -6.792911    -0.031231    Cartesian    0.46
    272 z          2.253894      2.232828    -0.021066    Cartesian   -0.93
    273 x          2.253894      2.253894     0.000000    Cartesian    0.00
    273 y          6.761681      6.716270    -0.045411    Cartesian   -0.67
    273 z         -6.761681     -6.765716    -0.004035    Cartesian    0.06
    274 x          9.015574      9.062406     0.046832    Cartesian    0.52
    274 y          4.507787      4.537225     0.029438    Cartesian    0.65
    274 z         -4.507787     -4.531014    -0.023227    Cartesian    0.52
    275 x          2.253894      2.253894     0.000000    Cartesian    0.00
    275 y         -6.761681     -6.730552     0.031129    Cartesian   -0.46
    275 z         -2.253894     -2.230712     0.023181    Cartesian   -1.03
    276 x          4.507787      4.500972    -0.006815    Cartesian   -0.15
    276 y          0.000000      0.010784     0.010784    Cartesian    0.00
    276 z          9.015574      9.065038     0.049464    Cartesian    0.55
    277 x          4.507787      4.496625    -0.011162    Cartesian   -0.25
    277 y          9.015574      9.067556     0.051982    Cartesian    0.58
    277 z         -4.507787     -4.549454    -0.041666    Cartesian    0.92
    278 x         -2.253894     -2.262325    -0.008431    Cartesian    0.37
    278 y          6.761681      6.776510     0.014829    Cartesian    0.22
    278 z          6.761681      6.744955    -0.016725    Cartesian   -0.25
    279 x         11.269468     11.256746    -0.012722    Cartesian   -0.11
    279 y          2.253894      2.251156    -0.002738    Cartesian   -0.12
    279 z          2.253894      2.238679    -0.015215    Cartesian   -0.68
    280 x          4.507787      4.513305     0.005518    Cartesian    0.12
    280 y          4.507787      4.537564     0.029777    Cartesian    0.66
    280 z          9.015574      9.083190     0.067616    Cartesian    0.75
    281 x          9.015574      9.082794     0.067220    Cartesian    0.75
    281 y         -4.507787     -4.498861     0.008926    Cartesian   -0.20
    281 z          0.000000     -0.014640    -0.014640    Cartesian    0.00
    282 x         -2.253894     -2.252055     0.001839    Cartesian   -0.08
    282 y         -2.253894     -2.226451     0.027443    Cartesian   -1.22
    282 z         -6.761681     -6.759442     0.002239    Cartesian   -0.03
    283 x         11.269468     11.273198     0.003730    Cartesian    0.03
    283 y          2.253894      2.251623    -0.002270    Cartesian   -0.10
    283 z         -2.253894     -2.237699     0.016195    Cartesian   -0.72
    284 x          2.253894      2.253894     0.000000    Cartesian    0.00
    284 y         11.269468     11.268537    -0.000931    Cartesian   -0.01
    284 z          2.253894      2.247939    -0.005955    Cartesian   -0.26
    285 x         -2.253894     -2.239352     0.014542    Cartesian   -0.65
    285 y         -6.761681     -6.720651     0.041030    Cartesian   -0.61
    285 z          2.253894      2.261750     0.007856    Cartesian    0.35
    286 x          2.253894      2.253894     0.000000    Cartesian    0.00
    286 y         11.269468     11.247305    -0.022163    Cartesian   -0.20
    286 z         -2.253894     -2.285221    -0.031327    Cartesian    1.39
    287 x         -2.253894     -2.255803    -0.001909    Cartesian    0.08
    287 y          6.761681      6.772973     0.011292    Cartesian    0.17
    287 z         -6.761681     -6.729902     0.031779    Cartesian   -0.47
    288 x          4.507787      4.486822    -0.020965    Cartesian   -0.47
    288 y          0.000000     -0.001754    -0.001754    Cartesian    0.00
    288 z         -9.015574     -9.059241    -0.043667    Cartesian    0.48
    289 x          9.015574      9.027841     0.012267    Cartesian    0.14
    289 y          9.015574      9.067814     0.052240    Cartesian    0.58
    289 z          0.000000     -0.018935    -0.018935    Cartesian    0.00
    290 x         11.269468     11.258424    -0.011044    Cartesian   -0.10
    290 y         -2.253894     -2.243009     0.010885    Cartesian   -0.48
    290 z          2.253894      2.253387    -0.000507    Cartesian   -0.02
    291 x         -2.253894     -2.262474    -0.008580    Cartesian    0.38
    291 y         -6.761681     -6.737437     0.024243    Cartesian   -0.36
    291 z         -2.253894     -2.275035    -0.021141    Cartesian    0.94
    292 x          9.015574      9.068672     0.053098    Cartesian    0.59
    292 y         -4.507787     -4.499354     0.008433    Cartesian   -0.19
    292 z          4.507787      4.479395    -0.028393    Cartesian   -0.63
    293 x          4.507787      4.551713     0.043925    Cartesian    0.97
    293 y          4.507787      4.519996     0.012209    Cartesian    0.27
    293 z         -9.015574     -9.045433    -0.029859    Cartesian    0.33
    294 x         11.269468     11.269471     0.000002    Cartesian    0.00
    294 y         -2.253894     -2.236199     0.017694    Cartesian   -0.79
    294 z         -2.253894     -2.257278    -0.003384    Cartesian    0.15
    295 x         11.269468     11.266338    -0.003130    Cartesian   -0.03
    295 y          6.761681      6.742103    -0.019578    Cartesian   -0.29
    295 z          2.253894      2.242476    -0.011418    Cartesian   -0.51
    296 x          9.015574      9.050565     0.034990    Cartesian    0.39
    296 y         -4.507787     -4.525346    -0.017558    Cartesian    0.39
    296 z         -4.507787     -4.532818    -0.025031    Cartesian    0.56
    297 x          2.253894      2.253894     0.000000    Cartesian    0.00
    297 y         -6.761681     -6.752889     0.008791    Cartesian   -0.13
    297 z          6.761681      6.758282    -0.003399    Cartesian   -0.05
    298 x         -2.253894     -2.261835    -0.007942    Cartesian    0.35
    298 y         11.269468     11.255266    -0.014202    Cartesian   -0.13
    298 z          2.253894      2.231572    -0.022322    Cartesian   -0.99
    299 x         11.269468     11.273331     0.003863    Cartesian    0.03
    299 y          6.761681      6.753143    -0.008538    Cartesian   -0.13
    299 z         -2.253894     -2.236597     0.017297    Cartesian   -0.77
    300 x          9.015574      9.043046     0.027471    Cartesian    0.30
    300 y          9.015574      9.045102     0.029527    Cartesian    0.33
    300 z          4.507787      4.500704    -0.007083    Cartesian   -0.16
    301 x          2.253894      2.253894     0.000000    Cartesian    0.00
    301 y          2.253894      2.258823     0.004929    Cartesian    0.22
    301 z         11.269468     11.251174    -0.018294    Cartesian   -0.16
    302 x          4.507787      4.523436     0.015649    Cartesian    0.35
    302 y         -4.507787     -4.512156    -0.004369    Cartesian    0.10
    302 z          9.015574      9.075245     0.059671    Cartesian    0.66
    303 x         -2.253894     -2.253870     0.000024    Cartesian   -0.00
    303 y         11.269468     11.255823    -0.013645    Cartesian   -0.12
    303 z         -2.253894     -2.230308     0.023586    Cartesian   -1.05
    304 x         11.269468     11.269881     0.000413    Cartesian    0.00
    304 y          2.253894      2.266712     0.012819    Cartesian    0.57
    304 z          6.761681      6.755437    -0.006244    Cartesian   -0.09
    305 x          4.507787      4.524717     0.016930    Cartesian    0.38
    305 y         -9.015574     -9.057033    -0.041458    Cartesian    0.46
    305 z          0.000000     -0.002482    -0.002482    Cartesian    0.00
    306 x          9.015574      9.030935     0.015360    Cartesian    0.17
    306 y          0.000000      0.002252     0.002252    Cartesian    0.00
    306 z          9.015574      9.020822     0.005248    Cartesian    0.06
    307 x          9.015574      9.037953     0.022379    Cartesian    0.25
    307 y          9.015574      9.027541     0.011966    Cartesian    0.13
    307 z         -4.507787     -4.530558    -0.022771    Cartesian    0.51
    308 x          2.253894      2.253894     0.000000    Cartesian    0.00
    308 y         -6.761681     -6.734971     0.026710    Cartesian   -0.40
    308 z         -6.761681     -6.772733    -0.011052    Cartesian    0.16
    309 x          9.015574      9.066707     0.051133    Cartesian    0.57
    309 y          4.507787      4.518894     0.011107    Cartesian    0.25
    309 z          9.015574      9.061416     0.045842    Cartesian    0.51
    310 x          2.253894      2.253894     0.000000    Cartesian    0.00
    310 y         11.269468     11.277362     0.007894    Cartesian    0.07
    310 z          6.761681      6.755704    -0.005977    Cartesian   -0.09
    311 x         13.523362     13.599142     0.075780    Cartesian    0.56
    311 y          0.000000     -0.002737    -0.002737    Cartesian    0.00
    311 z          0.000000     -0.001336    -0.001336    Cartesian    0.00
    312 x          4.507787      4.541940     0.034152    Cartesian    0.76
    312 y          9.015574      9.072443     0.056869    Cartesian    0.63
    312 z          9.015574      9.020715     0.005140    Cartesian    0.06
    313 x          2.253894      2.253894     0.000000    Cartesian    0.00
    313 y         -2.253894     -2.259683    -0.005789    Cartesian    0.26
    313 z         11.269468     11.251979    -0.017489    Cartesian   -0.16
    314 x          6.761681      6.773483     0.011802    Cartesian    0.17
    314 y         -6.761681     -6.772085    -0.010404    Cartesian    0.15
    314 z          6.761681      6.757963    -0.003718    Cartesian   -0.05
    315 x         11.269468     11.272033     0.002565    Cartesian    0.02
    315 y          2.253894      2.274491     0.020598    Cartesian    0.91
    315 z         -6.761681     -6.752749     0.008932    Cartesian   -0.13
    316 x          4.507787      4.498552    -0.009235    Cartesian   -0.20
    316 y         -4.507787     -4.522012    -0.014224    Cartesian    0.32
    316 z         -9.015574     -9.059552    -0.043977    Cartesian    0.49
    317 x         13.523362     13.587603     0.064241    Cartesian    0.48
    317 y          4.507787      4.512026     0.004239    Cartesian    0.09
    317 z          0.000000     -0.002314    -0.002314    Cartesian    0.00
    318 x         -2.253894     -2.256219    -0.002326    Cartesian    0.10
    318 y          2.253894      2.274333     0.020439    Cartesian    0.91
    318 z         11.269468     11.258676    -0.010792    Cartesian   -0.10
    319 x         11.269468     11.274600     0.005132    Cartesian    0.05
    319 y         -2.253894     -2.257245    -0.003352    Cartesian    0.15
    319 z          6.761681      6.757632    -0.004049    Cartesian   -0.06
    320 x          4.507787      4.501643    -0.006144    Cartesian   -0.14
    320 y         -9.015574     -9.069995    -0.054421    Cartesian    0.60
    320 z          4.507787      4.494504    -0.013283    Cartesian   -0.29
    321 x          2.253894      2.253894     0.000000    Cartesian    0.00
    321 y          2.253894      2.235620    -0.018274    Cartesian   -0.81
    321 z        -11.269468    -11.260273     0.009195    Cartesian   -0.08
    322 x          9.015574      9.012187    -0.003388    Cartesian   -0.04
    322 y          0.000000      0.006506     0.006506    Cartesian    0.00
    322 z         -9.015574     -9.014893     0.000681    Cartesian   -0.01
    323 x          2.253894      2.253894     0.000000    Cartesian    0.00
    323 y          6.761681      6.763440     0.001759    Cartesian    0.03
    323 z         11.269468     11.278073     0.008605    Cartesian    0.08
    324 x          2.253894      2.253894     0.000000    Cartesian    0.00
    324 y         11.269468     11.277079     0.007610    Cartesian    0.07
    324 z         -6.761681     -6.762058    -0.000377    Cartesian    0.01
    325 x          9.015574      9.041811     0.026236    Cartesian    0.29
    325 y          4.507787      4.510336     0.002548    Cartesian    0.06
    325 z         -9.015574     -9.088633    -0.073058    Cartesian    0.81
    326 x          4.507787      4.567087     0.059300    Cartesian    1.32
    326 y         13.523362     13.583644     0.060282    Cartesian    0.45
    326 z          0.000000     -0.009968    -0.009968    Cartesian    0.00
--------------------------------------------------------------------------------


  Time to end of optimisation  =      177.7026 seconds


  Peak dynamic memory used =      97.44 MB 


  Timing analysis for GULP :

--------------------------------------------------------------------------------
  Task / Subroutine                                          Time (Seconds)
--------------------------------------------------------------------------------
  Calculation of reciprocal space energy and derivatives          0.0007
  Calculation of reciprocal space energy using symmetry           0.0010
  Calculation of real space energy and derivatives                0.0038
  Calculation of real space energy using symmetry                 0.0091
  Calculation for region 1 energy and derivatives (2-b)          99.2392
  Calculation for region 2a energy                               71.3448
  Calculation for region 2b energy                                0.0298
  Calculation and manipulation of Hessian matrix                  0.2361
  Calculation of matrix inversion                                 6.2304
  Symmetry generation of equivalent positions                     0.0047
--------------------------------------------------------------------------------
  Total CPU time                                                177.7027
--------------------------------------------------------------------------------


  Dump file written as Na3OCl.grs


  Job Finished at 22:59.42 30th November   2020                               

