********************************************************************************
*                       GENERAL UTILITY LATTICE PROGRAM                        *
*                                 Julian Gale                                  *
*                       Curtin Institute for Computation                       *
*                    School of Molecular and Life Sciences                     *
*                    Curtin University, Western Australia                      *
********************************************************************************
* Version = 5.2.0 * Last modified =  10th September 2020                       *
********************************************************************************
*  optimise     - perform optimisation run                                     *
*  conp         - constant pressure calculation                                *
*  property     - calculate properties for final geometry                      *
*  defect       - perform defect calculation after bulk run                    *
*  compare      - compare initial and final structures                         *
********************************************************************************

  Job Started  at 23:00.02 30th November   2020                               

  Number of CPUs =     1


  Total number of configurations input =      1

********************************************************************************
*  Input for Configuration =   1                                               *
********************************************************************************

  Formula = ClONa3                                                      

  Number of irreducible atoms/shells =       5


  Total number atoms/shells =       7

  Dimensionality = 3               :  Bulk   


  Symmetry :

  Crystal family                   :  Cubic       
  Crystal class  (Groth - 1921)    :  Cubic Hexakisoctahedral              

  Space group (centrosymmetric)    :  P M 3 M         

  Patterson group                  :  P m -3 m 

  Cartesian lattice vectors (Angstroms) :

        4.504000    0.000000    0.000000
        0.000000    4.504000    0.000000
        0.000000    0.000000    4.504000

  Cell parameters (Angstroms/Degrees):

  a =       4.5040    alpha =  90.0000
  b =       4.5040    beta  =  90.0000
  c =       4.5040    gamma =  90.0000

  Initial cell volume =          91.368216 Angs**3

  Temperature of configuration =   0.00     K 

  Pressure of configuration =         0.000 GPa 

  Fractional coordinates of asymmetric unit :

--------------------------------------------------------------------------------
   No.  Atomic       x           y          z         Charge      Occupancy
        Label      (Frac)      (Frac)     (Frac)        (e)         (Frac)  
--------------------------------------------------------------------------------
      1 Cl    c    0.000000    0.000000    0.000000     1.48500    1.000000    
      2 O     c    0.500000    0.500000    0.500000     0.18300    1.000000    
      3 Na    c    0.500000    0.500000    0.000000     1.00000    1.000000    
      4 Cl    s    0.000000    0.000000    0.000000    -2.48500    1.000000    
      5 O     s    0.500000    0.500000    0.500000    -2.18300    1.000000    
--------------------------------------------------------------------------------


  Constraints : 

--------------------------------------------------------------------------------
  Constraint no.      Unconstrained     Constrained    Coefficient    Offset
                         Variable         Variable
--------------------------------------------------------------------------------
           1              Strain 1        Strain 2       1.00000      0.0000
           2              Strain 1        Strain 3       1.00000      0.0000
--------------------------------------------------------------------------------


********************************************************************************
*  General input information                                                   *
********************************************************************************

  Species output for all configurations : 

--------------------------------------------------------------------------------
  Species    Type    Atomic    Atomic    Charge       Radii (Angs)     Library
                     Number     Mass       (e)     Cova   Ionic  VDW   Symbol
--------------------------------------------------------------------------------
    Na       Core       11      22.99   1.000000   0.970  0.000  2.300          
    O        Core        8      16.00   0.183000   0.730  0.000  1.360          
    O        Shell       8       0.00  -2.183000   0.730  0.000  1.360          
    Cl       Core       17      35.45   1.485000   0.990  0.000  1.650          
    Cl       Shell      17       0.00  -2.485000   0.990  0.000  1.650          
    Mg       Core       12      24.31   0.415000   1.100  0.000  0.000          
    Mg       Shell      12       0.00   1.585000   1.100  0.000  0.000          
    Ca       Core       20      40.08  -1.135000   0.990  0.000  0.000          
    Ca       Shell      20       0.00   3.135000   0.990  0.000  0.000          
    Sr       Core       38      87.62  -1.251000   1.120  0.000  0.000          
    Sr       Shell      38       0.00   3.251000   1.120  0.000  0.000          
    Ba       Core       56     137.33  -7.203000   1.340  0.000  0.000          
    Ba       Shell      56       0.00   9.203000   1.340  0.000  0.000          
--------------------------------------------------------------------------------


  Lattice summation method               =    Ewald          (3-D)
                                         =    Parry          (2-D)
                                         =    Saunders et al (1-D)
  Accuracy factor for lattice sums       =   12.000


  Analytic derivatives to be used

  Time limit = Infinity

  Maximum range for interatomic potentials =    100000.000000 Angstroms

  General interatomic potentials :

--------------------------------------------------------------------------------
Atom  Types   Potential      Parameter       Value         Units   Cutoffs(Ang)
  1     2                                                            Min /  Max 
--------------------------------------------------------------------------------
O    c O    s Spring (c-s)  Spring k 2       593.71600    eV*Ang^-2 0.000  0.800
                            Spring k 4       0.0000000    eV*Ang^-4 
--------------------------------------------------------------------------------
Cl   c Cl   s Spring (c-s)  Spring k 2       29.380000    eV*Ang^-2 0.000  0.800
                            Spring k 4       0.0000000    eV*Ang^-4 
--------------------------------------------------------------------------------
Mg   c Mg   s Spring (c-s)  Spring k 2       361.60000    eV*Ang^-2 0.000  0.800
                            Spring k 4       0.0000000    eV*Ang^-4 
--------------------------------------------------------------------------------
Ca   c Ca   s Spring (c-s)  Spring k 2       110.20000    eV*Ang^-2 0.000  0.800
                            Spring k 4       0.0000000    eV*Ang^-4 
--------------------------------------------------------------------------------
Sr   c Sr   s Spring (c-s)  Spring k 2       71.700000    eV*Ang^-2 0.000  0.800
                            Spring k 4       0.0000000    eV*Ang^-4 
--------------------------------------------------------------------------------
Ba   c Ba   s Spring (c-s)  Spring k 2       495.20000    eV*Ang^-2 0.000  0.800
                            Spring k 4       0.0000000    eV*Ang^-4 
--------------------------------------------------------------------------------
Na   c Na   c Buckingham    Buckingham A     1788.1900    eV        0.000 12.000
                            Buckingham rho  0.15900000    Ang       
                            Buckingham C     0.0000000    eV*Ang^6  
--------------------------------------------------------------------------------
Na   c O    s Buckingham    Buckingham A     1226.8400    eV        0.000 12.000
                            Buckingham rho  0.30700000    Ang       
                            Buckingham C     0.0000000    eV*Ang^6  
--------------------------------------------------------------------------------
Na   c Cl   s Buckingham    Buckingham A     2314.7000    eV        0.000 12.000
                            Buckingham rho  0.29000000    Ang       
                            Buckingham C     0.0000000    eV*Ang^6  
--------------------------------------------------------------------------------
O    s O    s Buckingham    Buckingham A     22764.300    eV        0.000 12.000
                            Buckingham rho  0.14900000    Ang       
                            Buckingham C     13.190000    eV*Ang^6  
--------------------------------------------------------------------------------
O    s Cl   s Buckingham    Buckingham A     8286.9100    eV        0.000 12.000
                            Buckingham rho  0.25900000    Ang       
                            Buckingham C     62.200000    eV*Ang^6  
--------------------------------------------------------------------------------
Cl   s Cl   s Buckingham    Buckingham A     1227.2000    eV        0.000 12.000
                            Buckingham rho  0.32100000    Ang       
                            Buckingham C     14.530000    eV*Ang^6  
--------------------------------------------------------------------------------
O    s Mg   s Buckingham    Buckingham A     1428.5000    eV        0.000 12.000
                            Buckingham rho  0.29450000    Ang       
                            Buckingham C     0.0000000    eV*Ang^6  
--------------------------------------------------------------------------------
Mg   s Cl   s Buckingham    Buckingham A     4914.5400    eV        0.000 12.000
                            Buckingham rho  0.25700000    Ang       
                            Buckingham C     0.0000000    eV*Ang^6  
--------------------------------------------------------------------------------
O    s Ca   s Buckingham    Buckingham A     1090.4000    eV        0.000 12.000
                            Buckingham rho  0.34370000    Ang       
                            Buckingham C     0.0000000    eV*Ang^6  
--------------------------------------------------------------------------------
Cl   s Ca   s Buckingham    Buckingham A     2302.0000    eV        0.000 12.000
                            Buckingham rho  0.34020000    Ang       
                            Buckingham C     0.0000000    eV*Ang^6  
--------------------------------------------------------------------------------
O    s Sr   s Buckingham    Buckingham A     959.10000    eV        0.000 12.000
                            Buckingham rho  0.37210000    Ang       
                            Buckingham C     0.0000000    eV*Ang^6  
--------------------------------------------------------------------------------
Cl   s Sr   s Buckingham    Buckingham A     2191.0900    eV        0.000 12.000
                            Buckingham rho  0.34570000    Ang       
                            Buckingham C     0.0000000    eV*Ang^6  
--------------------------------------------------------------------------------
O    s Ba   s Buckingham    Buckingham A     905.70000    eV        0.000 12.000
                            Buckingham rho  0.39760000    Ang       
                            Buckingham C     0.0000000    eV*Ang^6  
--------------------------------------------------------------------------------
Cl   s Ba   s Buckingham    Buckingham A     2704.5500    eV        0.000 12.000
                            Buckingham rho  0.35280000    Ang       
                            Buckingham C     0.0000000    eV*Ang^6  
--------------------------------------------------------------------------------

********************************************************************************
*  Output for configuration   1                                                *
********************************************************************************


  Components of energy : 

--------------------------------------------------------------------------------
  Interatomic potentials     =           5.13022605 eV    
  Monopole - monopole (real) =         -10.03624526 eV    
  Monopole - monopole (recip)=         -29.53581274 eV    
  Monopole - monopole (total)=         -39.57205800 eV    
--------------------------------------------------------------------------------
  Total lattice energy       =         -34.44183194 eV    
--------------------------------------------------------------------------------
  Total lattice energy       =           -3323.1103 kJ/(mole unit cells)
--------------------------------------------------------------------------------


  Number of variables =        1

  Maximum number of calculations  =          1000
  Maximum Hessian update interval =            10
  Maximum step size               =   1.000000000
  Maximum parameter tolerance     =   0.000010000
  Maximum function  tolerance     =   0.000010000
  Maximum gradient  tolerance     =   0.001000000
  Maximum gradient  component     =   0.010000000

  Symmetry constrained optimisation

  Symmetry used for second derivatives

  Cell parameters to be optimised using strains

  Newton-Raphson optimiser to be used

  BFGS hessian update to be used

  Lower half triangular hessian to be used

  Start of bulk optimisation :

  Cycle:      0 Energy:       -34.441832  Gnorm:      0.196570  CPU:    0.018
  ** Hessian calculated **
  Cycle:      1 Energy:       -34.441914  Gnorm:      0.000103  CPU:    0.022


  **** Optimisation achieved ****


  Final energy =     -34.44191447 eV
  Final Gnorm  =       0.00000000

  Components of energy : 

--------------------------------------------------------------------------------
  Interatomic potentials     =           5.09689708 eV    
  Monopole - monopole (real) =         -10.02781331 eV    
  Monopole - monopole (recip)=         -29.51099824 eV    
  Monopole - monopole (total)=         -39.53881155 eV    
--------------------------------------------------------------------------------
  Total lattice energy       =         -34.44191447 eV    
--------------------------------------------------------------------------------
  Total lattice energy       =           -3323.1183 kJ/(mole unit cells)
--------------------------------------------------------------------------------

  Final asymmetric unit coordinates :

--------------------------------------------------------------------------------
   No.  Atomic        x           y           z         Radius
        Label       (Frac)      (Frac)      (Frac)       (Angs) 
--------------------------------------------------------------------------------
     1  Cl    c     0.000000    0.000000    0.000000    0.000000
     2  O     c     0.500000    0.500000    0.500000    0.000000
     3  Na    c     0.500000    0.500000    0.000000    0.000000
     4  Cl    s     0.000000    0.000000    0.000000    0.000000
     5  O     s     0.500000    0.500000    0.500000    0.000000
--------------------------------------------------------------------------------

  Final Cartesian lattice vectors (Angstroms) :

        4.507787    0.000000    0.000000
        0.000000    4.507787    0.000000
        0.000000    0.000000    4.507787


  Final cell parameters and derivatives :

--------------------------------------------------------------------------------
       a            4.507787 Angstrom     dE/de1(xx)     0.000000 eV/strain
       b            4.507787 Angstrom     dE/de2(yy)     0.000000 eV/strain
       c            4.507787 Angstrom     dE/de3(zz)     0.000000 eV/strain
       alpha       90.000000 Degrees      dE/de4(yz)     0.000000 eV/strain
       beta        90.000000 Degrees      dE/de5(xz)     0.000000 eV/strain
       gamma       90.000000 Degrees      dE/de6(xy)     0.000000 eV/strain
--------------------------------------------------------------------------------

  Primitive cell volume =            91.598892 Angs**3

  Density of cell =      2.183054 g/cm**3

  Non-primitive cell volume =            91.598892 Angs**3


  Final internal derivatives :

--------------------------------------------------------------------------------
   No.  Atomic          a             b             c           Radius
        Label          (eV)          (eV)          (eV)        (eV/Angs)
--------------------------------------------------------------------------------
      1 Cl    c       0.000000      0.000000      0.000000      0.000000
      2 O     c       0.000000      0.000000      0.000000      0.000000
      3 Na    c       0.000000      0.000000      0.000000      0.000000
      4 Cl    s       0.000000      0.000000      0.000000      0.000000
      5 O     s       0.000000      0.000000      0.000000      0.000000
--------------------------------------------------------------------------------
  Maximum abs         0.000000      0.000000      0.000000      0.000000
--------------------------------------------------------------------------------

  Comparison of initial and final structures : 

--------------------------------------------------------------------------------
  Parameter   Initial value   Final value   Difference    Units      Percent
--------------------------------------------------------------------------------
    Volume        91.368216     91.598892     0.230676    Angs**3      0.25
    a              4.504000      4.507787     0.003787    Angstroms    0.08
    b              4.504000      4.507787     0.003787    Angstroms    0.08
    c              4.504000      4.507787     0.003787    Angstroms    0.08
    alpha         90.000000     90.000000     0.000000    Degrees      0.00
    beta          90.000000     90.000000     0.000000    Degrees      0.00
    gamma         90.000000     90.000000     0.000000    Degrees      0.00
      1 x          0.000000      0.000000     0.000000    Fractional   0.00
      1 y          0.000000      0.000000     0.000000    Fractional   0.00
      1 z          0.000000      0.000000     0.000000    Fractional   0.00
      2 x          0.500000      0.500000     0.000000    Fractional   0.00
      2 y          0.500000      0.500000     0.000000    Fractional   0.00
      2 z          0.500000      0.500000     0.000000    Fractional   0.00
      3 x          0.500000      0.500000     0.000000    Fractional   0.00
      3 y          0.500000      0.500000     0.000000    Fractional   0.00
      3 z          0.000000      0.000000     0.000000    Fractional   0.00
      4 x          0.000000      0.000000     0.000000    Fractional   0.00
      4 y          0.000000      0.000000     0.000000    Fractional   0.00
      4 z          0.000000      0.000000     0.000000    Fractional   0.00
      5 x          0.500000      0.500000     0.000000    Fractional   0.00
      5 y          0.500000      0.500000     0.000000    Fractional   0.00
      5 z          0.500000      0.500000     0.000000    Fractional   0.00
--------------------------------------------------------------------------------


  Born effective charge tensors : 

-------------------------------------------------------------------------------
  Atom             x           y             z
-------------------------------------------------------------------------------
    1 Cl    x      -1.0181     -0.0000      0.0000
            y      -0.0000     -1.0181      0.0000
            z       0.0000      0.0000     -1.0181
-------------------------------------------------------------------------------
    2 O     x      -2.2647      0.0000     -0.0000
            y       0.0000     -2.2647     -0.0000
            z      -0.0000     -0.0000     -2.2647
-------------------------------------------------------------------------------
    3 Na    x       1.2258     -0.0000      0.0000
            y      -0.0000      1.2258     -0.0000
            z       0.0000     -0.0000      0.8313
-------------------------------------------------------------------------------




  Elastic Constant Matrix: (Units=GPa)

-------------------------------------------------------------------------------
  Indices      1         2         3         4         5         6    
-------------------------------------------------------------------------------
       1     95.8177   20.0737   20.0737   -0.0000   -0.0000    0.0000
       2     20.0737   95.8177   20.0737   -0.0000   -0.0000    0.0000
       3     20.0737   20.0737   95.8177   -0.0000   -0.0000    0.0000
       4     -0.0000   -0.0000   -0.0000   20.0737   -0.0000    0.0000
       5     -0.0000   -0.0000   -0.0000   -0.0000   20.0737    0.0000
       6      0.0000    0.0000    0.0000    0.0000    0.0000   20.0737
-------------------------------------------------------------------------------


  Elastic Compliance Matrix: (Units=1/GPa)

-------------------------------------------------------------------------------
  Indices      1         2         3         4         5         6    
-------------------------------------------------------------------------------
       1    0.011253 -0.001949 -0.001949  0.000000  0.000000 -0.000000
       2   -0.001949  0.011253 -0.001949  0.000000  0.000000  0.000000
       3   -0.001949 -0.001949  0.011253  0.000000  0.000000 -0.000000
       4    0.000000  0.000000  0.000000  0.049816  0.000000 -0.000000
       5    0.000000  0.000000  0.000000  0.000000  0.049816 -0.000000
       6   -0.000000  0.000000 -0.000000 -0.000000 -0.000000  0.049816
-------------------------------------------------------------------------------

  Mechanical properties :

-------------------------------------------------------------------------------
  Convention :                    Reuss         Voigt         Hill
-------------------------------------------------------------------------------
  Bulk  Modulus (GPa)     =      45.32174      45.32174      45.32174
  Shear Modulus (GPa)     =      24.72085      27.19304      25.95695
-------------------------------------------------------------------------------
  Velocity S-wave (km/s)  =       3.36511       3.52937       3.44822
  Velocity P-wave (km/s)  =       5.98827       6.11304       6.05098
-------------------------------------------------------------------------------
  Compressibility (1/GPa) =    0.02206447
-------------------------------------------------------------------------------
  Stress axis :                     x             y             z
-------------------------------------------------------------------------------
  Youngs Moduli (GPa)     =      88.86373      88.86373      88.86373
-------------------------------------------------------------------------------
  Poissons Ratio (x)      =                     0.17321       0.17321
  Poissons Ratio (y)      =       0.17321                     0.17321
  Poissons Ratio (z)      =       0.17321       0.17321
-------------------------------------------------------------------------------


  Piezoelectric Strain Matrix: (Units=C/m**2)

-------------------------------------------------------------------------------
  Indices      1         2         3         4         5         6    
-------------------------------------------------------------------------------
       x    -0.00000  -0.00000  -0.00000   0.00000  -0.00000  -0.00000
       y    -0.00000  -0.00000   0.00000  -0.00000   0.00000   0.00000
       z    -0.00000  -0.00000  -0.00000  -0.00000   0.00000   0.00000
-------------------------------------------------------------------------------


  Piezoelectric Stress Matrix: (Units=10**-11 C/N)

-------------------------------------------------------------------------------
  Indices      1         2         3         4         5         6    
-------------------------------------------------------------------------------
       x    -0.00000   0.00000   0.00000   0.00000  -0.00000  -0.00000
       y    -0.00000  -0.00000   0.00000  -0.00000   0.00000   0.00000
       z     0.00000   0.00000  -0.00000  -0.00000   0.00000   0.00000
-------------------------------------------------------------------------------


  Static dielectric constant tensor : 

-------------------------------------------------------------------------------
              x         y         z
-------------------------------------------------------------------------------
       x    22.84729   0.00000   0.00000
       y     0.00000  22.84729  -0.00000
       z     0.00000  -0.00000  22.84729
--------------------------------------------------------------------------------

  High frequency dielectric constant tensor : 

-------------------------------------------------------------------------------
              x         y         z
-------------------------------------------------------------------------------
       x     1.47557   0.00000  -0.00000
       y     0.00000   1.47557  -0.00000
       z    -0.00000  -0.00000   1.47557
-------------------------------------------------------------------------------

  Static refractive indices : 

-------------------------------------------------------------------------------
    1 =    4.77988      2 =    4.77988      3 =    4.77988
-------------------------------------------------------------------------------

  High frequency refractive indices : 

-------------------------------------------------------------------------------
    1 =    1.21473      2 =    1.21473      3 =    1.21473
-------------------------------------------------------------------------------


  Time to end of optimisation =       0.0330 seconds

********************************************************************************
*  Defect calculation for configuration   1 :                                  *
********************************************************************************

  Total number of defects =      3

  Total charge on defect  =  -1.00

  Defect centre is at   0.5000   0.5000   0.0000  Frac

  Region 1 radius =  12.0000      Number of ions =    540

  Number of symmetry inequivalent region 1 ions  =    314

  Region 2 radius =  16.0000      Number of ions =    806

  Number of symmetry inequivalent region 2a ions =    439

  Region 2a mode = 4 : screened electrostatics due to region 1 
                       neglect correction to region 1 forces from 2a
                       region 2a displacements based on defects only

  Region 2a ions will only interact with defects in region 1

  Vacancies:

--------------------------------------------------------------------------------
    Specification type     Symbol/Number         x          y          z
--------------------------------------------------------------------------------
    Fractional                               0.500000   0.500000   0.000000
    Fractional                               0.500000   0.000000   0.500000
--------------------------------------------------------------------------------

  Interstitials:

--------------------------------------------------------------------------------
    Specification type     Symbol/Number         x          y          z
--------------------------------------------------------------------------------
    Atom/Fractional         Na               0.500000   0.500000   0.000000
--------------------------------------------------------------------------------


  Symmetry reduced region 1 (Relative to defect centre) :

--------------------------------------------------------------------------------
   No.   Atomic       x            y             z       Radius  Multiplicity   
         Label      (Angs)       (Angs)        (Angs)    (Angs)     
--------------------------------------------------------------------------------
     1  Na    c      0.0000       0.0000 *     0.0000 *  0.0000     1          
     2  O     c      0.0000       0.0000 *    -2.2539 *  0.0000     1          
     3  O     c      0.0000       0.0000 *     2.2539 *  0.0000     1          
     4  Cl    c      2.2539 *     2.2539 *     0.0000 *  0.0000     2          
     5  Cl    c      2.2539 *    -2.2539 *     0.0000 *  0.0000     2          
     6  Na    c      2.2539 *     0.0000 *    -2.2539 *  0.0000     2          
     7  Na    c      2.2539 *     0.0000 *     2.2539 *  0.0000     2          
     8  Na    c      0.0000       2.2539 *    -2.2539 *  0.0000     1          
     9  Na    c      0.0000       2.2539 *     2.2539 *  0.0000     1          
    10  Na    c      0.0000      -2.2539 *    -2.2539 *  0.0000     1          
    11  Na    c      0.0000       0.0000 *     4.5078 *  0.0000     1          
    12  Na    c      0.0000       0.0000 *    -4.5078 *  0.0000     1          
    13  Na    c      0.0000      -4.5078 *     0.0000 *  0.0000     1          
    14  Na    c     -4.5078 *     0.0000 *     0.0000 *  0.0000     2          
    15  Na    c      0.0000       4.5078 *     0.0000 *  0.0000     1          
    16  O     c      0.0000      -4.5078 *    -2.2539 *  0.0000     1          
    17  O     c      0.0000      -4.5078 *     2.2539 *  0.0000     1          
    18  O     c     -4.5078 *     0.0000 *    -2.2539 *  0.0000     2          
    19  O     c     -4.5078 *     0.0000 *     2.2539 *  0.0000     2          
    20  O     c      0.0000       4.5078 *    -2.2539 *  0.0000     1          
    21  O     c      0.0000       4.5078 *     2.2539 *  0.0000     1          
    22  Na    c      2.2539 *    -4.5078 *    -2.2539 *  0.0000     2          
    23  Na    c      2.2539 *    -4.5078 *     2.2539 *  0.0000     2          
    24  Na    c     -4.5078 *     2.2539 *    -2.2539 *  0.0000     2          
    25  Na    c     -4.5078 *     2.2539 *     2.2539 *  0.0000     2          
    26  Na    c     -4.5078 *    -2.2539 *    -2.2539 *  0.0000     2          
    27  Na    c     -4.5078 *    -2.2539 *     2.2539 *  0.0000     2          
    28  Cl    c      2.2539 *     2.2539 *     4.5078 *  0.0000     2          
    29  Cl    c      2.2539 *     2.2539 *    -4.5078 *  0.0000     2          
    30  Cl    c      2.2539 *    -2.2539 *     4.5078 *  0.0000     2          
    31  Cl    c      2.2539 *    -2.2539 *    -4.5078 *  0.0000     2          
    32  Na    c      2.2539 *     4.5078 *    -2.2539 *  0.0000     2          
    33  Na    c      2.2539 *     4.5078 *     2.2539 *  0.0000     2          
    34  Na    c      0.0000      -4.5078 *     4.5078 *  0.0000     1          
    35  Na    c      0.0000      -4.5078 *    -4.5078 *  0.0000     1          
    36  Na    c     -4.5078 *     0.0000 *     4.5078 *  0.0000     2          
    37  Na    c     -4.5078 *     0.0000 *    -4.5078 *  0.0000     2          
    38  Na    c     -4.5078 *    -4.5078 *     0.0000 *  0.0000     2          
    39  Na    c      0.0000       4.5078 *     4.5078 *  0.0000     1          
    40  Na    c      0.0000       4.5078 *    -4.5078 *  0.0000     1          
    41  Na    c     -4.5078 *     4.5078 *     0.0000 *  0.0000     2          
    42  O     c     -4.5078 *    -4.5078 *    -2.2539 *  0.0000     2          
    43  O     c     -4.5078 *    -4.5078 *     2.2539 *  0.0000     2          
    44  O     c      0.0000       0.0000 *     6.7617 *  0.0000     1          
    45  O     c      0.0000       0.0000 *    -6.7617 *  0.0000     1          
    46  O     c     -4.5078 *     4.5078 *    -2.2539 *  0.0000     2          
    47  O     c     -4.5078 *     4.5078 *     2.2539 *  0.0000     2          
    48  Cl    c      2.2539 *     6.7617 *     0.0000 *  0.0000     2          
    49  Cl    c      2.2539 *    -6.7617 *     0.0000 *  0.0000     2          
    50  Cl    c      6.7617 *     2.2539 *     0.0000 *  0.0000     2          
    51  Cl    c      6.7617 *    -2.2539 *     0.0000 *  0.0000     2          
    52  Na    c      2.2539 *     0.0000 *     6.7617 *  0.0000     2          
    53  Na    c      2.2539 *     0.0000 *    -6.7617 *  0.0000     2          
    54  Na    c      6.7617 *     0.0000 *    -2.2539 *  0.0000     2          
    55  Na    c      6.7617 *     0.0000 *     2.2539 *  0.0000     2          
    56  Na    c      0.0000       2.2539 *     6.7617 *  0.0000     1          
    57  Na    c      0.0000       2.2539 *    -6.7617 *  0.0000     1          
    58  Na    c      0.0000       6.7617 *    -2.2539 *  0.0000     1          
    59  Na    c      0.0000       6.7617 *     2.2539 *  0.0000     1          
    60  Na    c      0.0000      -2.2539 *     6.7617 *  0.0000     1          
    61  Na    c      0.0000      -2.2539 *    -6.7617 *  0.0000     1          
    62  Na    c      0.0000      -6.7617 *    -2.2539 *  0.0000     1          
    63  Na    c      0.0000      -6.7617 *     2.2539 *  0.0000     1          
    64  Na    c      4.5078 *    -4.5078 *     4.5078 *  0.0000     2          
    65  Na    c      4.5078 *    -4.5078 *    -4.5078 *  0.0000     2          
    66  Na    c     -4.5078 *     4.5078 *     4.5078 *  0.0000     2          
    67  Na    c     -4.5078 *     4.5078 *    -4.5078 *  0.0000     2          
    68  O     c      0.0000      -4.5078 *     6.7617 *  0.0000     1          
    69  O     c      0.0000      -4.5078 *    -6.7617 *  0.0000     1          
    70  O     c     -4.5078 *     0.0000 *     6.7617 *  0.0000     2          
    71  O     c     -4.5078 *     0.0000 *    -6.7617 *  0.0000     2          
    72  O     c      0.0000       4.5078 *     6.7617 *  0.0000     1          
    73  O     c      0.0000       4.5078 *    -6.7617 *  0.0000     1          
    74  Cl    c      2.2539 *     6.7617 *     4.5078 *  0.0000     2          
    75  Cl    c      2.2539 *     6.7617 *    -4.5078 *  0.0000     2          
    76  Cl    c      2.2539 *    -6.7617 *     4.5078 *  0.0000     2          
    77  Cl    c      2.2539 *    -6.7617 *    -4.5078 *  0.0000     2          
    78  Cl    c      6.7617 *     2.2539 *     4.5078 *  0.0000     2          
    79  Cl    c      6.7617 *     2.2539 *    -4.5078 *  0.0000     2          
    80  Cl    c      6.7617 *    -2.2539 *     4.5078 *  0.0000     2          
    81  Cl    c      6.7617 *    -2.2539 *    -4.5078 *  0.0000     2          
    82  Na    c      2.2539 *    -4.5078 *     6.7617 *  0.0000     2          
    83  Na    c      2.2539 *    -4.5078 *    -6.7617 *  0.0000     2          
    84  Na    c      6.7617 *    -4.5078 *    -2.2539 *  0.0000     2          
    85  Na    c      6.7617 *    -4.5078 *     2.2539 *  0.0000     2          
    86  Na    c     -4.5078 *     2.2539 *     6.7617 *  0.0000     2          
    87  Na    c     -4.5078 *     2.2539 *    -6.7617 *  0.0000     2          
    88  Na    c     -4.5078 *     6.7617 *    -2.2539 *  0.0000     2          
    89  Na    c     -4.5078 *     6.7617 *     2.2539 *  0.0000     2          
    90  Na    c     -4.5078 *    -2.2539 *     6.7617 *  0.0000     2          
    91  Na    c     -4.5078 *    -2.2539 *    -6.7617 *  0.0000     2          
    92  Na    c     -4.5078 *    -6.7617 *    -2.2539 *  0.0000     2          
    93  Na    c     -4.5078 *    -6.7617 *     2.2539 *  0.0000     2          
    94  Na    c      2.2539 *     4.5078 *     6.7617 *  0.0000     2          
    95  Na    c      2.2539 *     4.5078 *    -6.7617 *  0.0000     2          
    96  Na    c      6.7617 *     4.5078 *    -2.2539 *  0.0000     2          
    97  Na    c      6.7617 *     4.5078 *     2.2539 *  0.0000     2          
    98  Na    c      0.0000       0.0000 *     9.0156 *  0.0000     1          
    99  Na    c      0.0000       0.0000 *    -9.0156 *  0.0000     1          
   100  Na    c      0.0000       9.0156 *     0.0000 *  0.0000     1          
   101  Na    c      0.0000      -9.0156 *     0.0000 *  0.0000     1          
   102  Na    c      9.0156 *     0.0000 *     0.0000 *  0.0000     2          
   103  O     c      0.0000       9.0156 *    -2.2539 *  0.0000     1          
   104  O     c      0.0000       9.0156 *     2.2539 *  0.0000     1          
   105  O     c      0.0000      -9.0156 *    -2.2539 *  0.0000     1          
   106  O     c      0.0000      -9.0156 *     2.2539 *  0.0000     1          
   107  O     c      9.0156 *     0.0000 *    -2.2539 *  0.0000     2          
   108  O     c      9.0156 *     0.0000 *     2.2539 *  0.0000     2          
   109  O     c      4.5078 *     4.5078 *     6.7617 *  0.0000     2          
   110  O     c      4.5078 *     4.5078 *    -6.7617 *  0.0000     2          
   111  O     c      4.5078 *    -4.5078 *     6.7617 *  0.0000     2          
   112  O     c      4.5078 *    -4.5078 *    -6.7617 *  0.0000     2          
   113  Cl    c      2.2539 *     2.2539 *     9.0156 *  0.0000     2          
   114  Cl    c      2.2539 *     2.2539 *    -9.0156 *  0.0000     2          
   115  Cl    c      2.2539 *    -2.2539 *     9.0156 *  0.0000     2          
   116  Cl    c      2.2539 *    -2.2539 *    -9.0156 *  0.0000     2          
   117  Na    c      2.2539 *     9.0156 *    -2.2539 *  0.0000     2          
   118  Na    c      2.2539 *     9.0156 *     2.2539 *  0.0000     2          
   119  Na    c      2.2539 *    -9.0156 *    -2.2539 *  0.0000     2          
   120  Na    c      2.2539 *    -9.0156 *     2.2539 *  0.0000     2          
   121  Na    c      9.0156 *     2.2539 *    -2.2539 *  0.0000     2          
   122  Na    c      9.0156 *     2.2539 *     2.2539 *  0.0000     2          
   123  Na    c      9.0156 *    -2.2539 *    -2.2539 *  0.0000     2          
   124  Na    c      9.0156 *    -2.2539 *     2.2539 *  0.0000     2          
   125  Cl    c      6.7617 *     6.7617 *     0.0000 *  0.0000     2          
   126  Cl    c      6.7617 *    -6.7617 *     0.0000 *  0.0000     2          
   127  Na    c      6.7617 *     0.0000 *     6.7617 *  0.0000     2          
   128  Na    c      6.7617 *     0.0000 *    -6.7617 *  0.0000     2          
   129  Na    c      0.0000       6.7617 *     6.7617 *  0.0000     1          
   130  Na    c      0.0000       6.7617 *    -6.7617 *  0.0000     1          
   131  Na    c      0.0000      -6.7617 *     6.7617 *  0.0000     1          
   132  Na    c      0.0000      -6.7617 *    -6.7617 *  0.0000     1          
   133  Na    c      0.0000       9.0156 *     4.5078 *  0.0000     1          
   134  Na    c      0.0000       9.0156 *    -4.5078 *  0.0000     1          
   135  Na    c      0.0000      -4.5078 *     9.0156 *  0.0000     1          
   136  Na    c      0.0000      -4.5078 *    -9.0156 *  0.0000     1          
   137  Na    c      0.0000      -9.0156 *     4.5078 *  0.0000     1          
   138  Na    c      0.0000      -9.0156 *    -4.5078 *  0.0000     1          
   139  Na    c      9.0156 *     0.0000 *     4.5078 *  0.0000     2          
   140  Na    c      9.0156 *     0.0000 *    -4.5078 *  0.0000     2          
   141  Na    c      9.0156 *    -4.5078 *     0.0000 *  0.0000     2          
   142  Na    c     -4.5078 *     0.0000 *     9.0156 *  0.0000     2          
   143  Na    c     -4.5078 *     0.0000 *    -9.0156 *  0.0000     2          
   144  Na    c     -4.5078 *     9.0156 *     0.0000 *  0.0000     2          
   145  Na    c     -4.5078 *    -9.0156 *     0.0000 *  0.0000     2          
   146  Na    c      0.0000       4.5078 *     9.0156 *  0.0000     1          
   147  Na    c      0.0000       4.5078 *    -9.0156 *  0.0000     1          
   148  Na    c      9.0156 *     4.5078 *     0.0000 *  0.0000     2          
   149  O     c      9.0156 *    -4.5078 *    -2.2539 *  0.0000     2          
   150  O     c      9.0156 *    -4.5078 *     2.2539 *  0.0000     2          
   151  O     c     -4.5078 *     9.0156 *    -2.2539 *  0.0000     2          
   152  O     c     -4.5078 *     9.0156 *     2.2539 *  0.0000     2          
   153  O     c     -4.5078 *    -9.0156 *    -2.2539 *  0.0000     2          
   154  O     c     -4.5078 *    -9.0156 *     2.2539 *  0.0000     2          
   155  O     c      9.0156 *     4.5078 *    -2.2539 *  0.0000     2          
   156  O     c      9.0156 *     4.5078 *     2.2539 *  0.0000     2          
   157  Cl    c      6.7617 *     6.7617 *     4.5078 *  0.0000     2          
   158  Cl    c      6.7617 *     6.7617 *    -4.5078 *  0.0000     2          
   159  Cl    c      6.7617 *    -6.7617 *     4.5078 *  0.0000     2          
   160  Cl    c      6.7617 *    -6.7617 *    -4.5078 *  0.0000     2          
   161  Na    c      6.7617 *    -4.5078 *     6.7617 *  0.0000     2          
   162  Na    c      6.7617 *    -4.5078 *    -6.7617 *  0.0000     2          
   163  Na    c     -4.5078 *     6.7617 *     6.7617 *  0.0000     2          
   164  Na    c     -4.5078 *     6.7617 *    -6.7617 *  0.0000     2          
   165  Na    c     -4.5078 *    -6.7617 *     6.7617 *  0.0000     2          
   166  Na    c     -4.5078 *    -6.7617 *    -6.7617 *  0.0000     2          
   167  Na    c      6.7617 *     4.5078 *     6.7617 *  0.0000     2          
   168  Na    c      6.7617 *     4.5078 *    -6.7617 *  0.0000     2          
   169  Na    c      9.0156 *    -4.5078 *     4.5078 *  0.0000     2          
   170  Na    c      9.0156 *    -4.5078 *    -4.5078 *  0.0000     2          
   171  Na    c     -4.5078 *     9.0156 *     4.5078 *  0.0000     2          
   172  Na    c     -4.5078 *     9.0156 *    -4.5078 *  0.0000     2          
   173  Na    c     -4.5078 *    -9.0156 *     4.5078 *  0.0000     2          
   174  Na    c     -4.5078 *    -9.0156 *    -4.5078 *  0.0000     2          
   175  Na    c      4.5078 *     4.5078 *     9.0156 *  0.0000     2          
   176  Na    c      4.5078 *     4.5078 *    -9.0156 *  0.0000     2          
   177  Na    c      4.5078 *    -4.5078 *     9.0156 *  0.0000     2          
   178  Na    c      4.5078 *    -4.5078 *    -9.0156 *  0.0000     2          
   179  Na    c      9.0156 *     4.5078 *     4.5078 *  0.0000     2          
   180  Na    c      9.0156 *     4.5078 *    -4.5078 *  0.0000     2          
   181  O     c      0.0000       0.0000 *    11.2695 *  0.0000     1          
   182  O     c      0.0000       0.0000 *   -11.2695 *  0.0000     1          
   183  O     c      0.0000       9.0156 *     6.7617 *  0.0000     1          
   184  O     c      0.0000       9.0156 *    -6.7617 *  0.0000     1          
   185  O     c      0.0000      -9.0156 *     6.7617 *  0.0000     1          
   186  O     c      0.0000      -9.0156 *    -6.7617 *  0.0000     1          
   187  O     c      9.0156 *     0.0000 *     6.7617 *  0.0000     2          
   188  O     c      9.0156 *     0.0000 *    -6.7617 *  0.0000     2          
   189  Cl    c      2.2539 *    11.2695 *     0.0000 *  0.0000     2          
   190  Cl    c      2.2539 *   -11.2695 *     0.0000 *  0.0000     2          
   191  Cl    c     11.2695 *     2.2539 *     0.0000 *  0.0000     2          
   192  Cl    c     11.2695 *    -2.2539 *     0.0000 *  0.0000     2          
   193  Na    c      2.2539 *     0.0000 *    11.2695 *  0.0000     2          
   194  Na    c      2.2539 *     0.0000 *   -11.2695 *  0.0000     2          
   195  Na    c     11.2695 *     0.0000 *    -2.2539 *  0.0000     2          
   196  Na    c     11.2695 *     0.0000 *     2.2539 *  0.0000     2          
   197  Na    c      0.0000       2.2539 *    11.2695 *  0.0000     1          
   198  Na    c      0.0000       2.2539 *   -11.2695 *  0.0000     1          
   199  Na    c      0.0000      11.2695 *    -2.2539 *  0.0000     1          
   200  Na    c      0.0000      11.2695 *     2.2539 *  0.0000     1          
   201  Na    c      0.0000      -2.2539 *    11.2695 *  0.0000     1          
   202  Na    c      0.0000      -2.2539 *   -11.2695 *  0.0000     1          
   203  Na    c      0.0000     -11.2695 *    -2.2539 *  0.0000     1          
   204  Na    c      0.0000     -11.2695 *     2.2539 *  0.0000     1          
   205  Cl    c      2.2539 *     6.7617 *     9.0156 *  0.0000     2          
   206  Cl    c      2.2539 *     6.7617 *    -9.0156 *  0.0000     2          
   207  Cl    c      2.2539 *    -6.7617 *     9.0156 *  0.0000     2          
   208  Cl    c      2.2539 *    -6.7617 *    -9.0156 *  0.0000     2          
   209  Cl    c      6.7617 *     2.2539 *     9.0156 *  0.0000     2          
   210  Cl    c      6.7617 *     2.2539 *    -9.0156 *  0.0000     2          
   211  Cl    c      6.7617 *    -2.2539 *     9.0156 *  0.0000     2          
   212  Cl    c      6.7617 *    -2.2539 *    -9.0156 *  0.0000     2          
   213  Na    c      2.2539 *     9.0156 *     6.7617 *  0.0000     2          
   214  Na    c      2.2539 *     9.0156 *    -6.7617 *  0.0000     2          
   215  Na    c      2.2539 *    -9.0156 *     6.7617 *  0.0000     2          
   216  Na    c      2.2539 *    -9.0156 *    -6.7617 *  0.0000     2          
   217  Na    c      6.7617 *     9.0156 *    -2.2539 *  0.0000     2          
   218  Na    c      6.7617 *     9.0156 *     2.2539 *  0.0000     2          
   219  Na    c      6.7617 *    -9.0156 *    -2.2539 *  0.0000     2          
   220  Na    c      6.7617 *    -9.0156 *     2.2539 *  0.0000     2          
   221  Na    c      9.0156 *     2.2539 *     6.7617 *  0.0000     2          
   222  Na    c      9.0156 *     2.2539 *    -6.7617 *  0.0000     2          
   223  Na    c      9.0156 *     6.7617 *    -2.2539 *  0.0000     2          
   224  Na    c      9.0156 *     6.7617 *     2.2539 *  0.0000     2          
   225  Na    c      9.0156 *    -2.2539 *     6.7617 *  0.0000     2          
   226  Na    c      9.0156 *    -2.2539 *    -6.7617 *  0.0000     2          
   227  Na    c      9.0156 *    -6.7617 *    -2.2539 *  0.0000     2          
   228  Na    c      9.0156 *    -6.7617 *     2.2539 *  0.0000     2          
   229  O     s      0.0000       0.0000 *    -2.2539 *  0.0000     1          
   230  O     s      0.0000       0.0000 *     2.2539 *  0.0000     1          
   231  Cl    s      2.2539 *     2.2539 *     0.0000 *  0.0000     2          
   232  Cl    s      2.2539 *    -2.2539 *     0.0000 *  0.0000     2          
   233  O     s      0.0000      -4.5078 *    -2.2539 *  0.0000     1          
   234  O     s      0.0000      -4.5078 *     2.2539 *  0.0000     1          
   235  O     s     -4.5078 *     0.0000 *    -2.2539 *  0.0000     2          
   236  O     s     -4.5078 *     0.0000 *     2.2539 *  0.0000     2          
   237  O     s      0.0000       4.5078 *    -2.2539 *  0.0000     1          
   238  O     s      0.0000       4.5078 *     2.2539 *  0.0000     1          
   239  Cl    s      2.2539 *     2.2539 *     4.5078 *  0.0000     2          
   240  Cl    s      2.2539 *     2.2539 *    -4.5078 *  0.0000     2          
   241  Cl    s      2.2539 *    -2.2539 *     4.5078 *  0.0000     2          
   242  Cl    s      2.2539 *    -2.2539 *    -4.5078 *  0.0000     2          
   243  O     s     -4.5078 *    -4.5078 *    -2.2539 *  0.0000     2          
   244  O     s     -4.5078 *    -4.5078 *     2.2539 *  0.0000     2          
   245  O     s      0.0000       0.0000 *     6.7617 *  0.0000     1          
   246  O     s      0.0000       0.0000 *    -6.7617 *  0.0000     1          
   247  O     s     -4.5078 *     4.5078 *    -2.2539 *  0.0000     2          
   248  O     s     -4.5078 *     4.5078 *     2.2539 *  0.0000     2          
   249  Cl    s      2.2539 *     6.7617 *     0.0000 *  0.0000     2          
   250  Cl    s      2.2539 *    -6.7617 *     0.0000 *  0.0000     2          
   251  Cl    s      6.7617 *     2.2539 *     0.0000 *  0.0000     2          
   252  Cl    s      6.7617 *    -2.2539 *     0.0000 *  0.0000     2          
   253  O     s      0.0000      -4.5078 *     6.7617 *  0.0000     1          
   254  O     s      0.0000      -4.5078 *    -6.7617 *  0.0000     1          
   255  O     s     -4.5078 *     0.0000 *     6.7617 *  0.0000     2          
   256  O     s     -4.5078 *     0.0000 *    -6.7617 *  0.0000     2          
   257  O     s      0.0000       4.5078 *     6.7617 *  0.0000     1          
   258  O     s      0.0000       4.5078 *    -6.7617 *  0.0000     1          
   259  Cl    s      2.2539 *     6.7617 *     4.5078 *  0.0000     2          
   260  Cl    s      2.2539 *     6.7617 *    -4.5078 *  0.0000     2          
   261  Cl    s      2.2539 *    -6.7617 *     4.5078 *  0.0000     2          
   262  Cl    s      2.2539 *    -6.7617 *    -4.5078 *  0.0000     2          
   263  Cl    s      6.7617 *     2.2539 *     4.5078 *  0.0000     2          
   264  Cl    s      6.7617 *     2.2539 *    -4.5078 *  0.0000     2          
   265  Cl    s      6.7617 *    -2.2539 *     4.5078 *  0.0000     2          
   266  Cl    s      6.7617 *    -2.2539 *    -4.5078 *  0.0000     2          
   267  O     s      0.0000       9.0156 *    -2.2539 *  0.0000     1          
   268  O     s      0.0000       9.0156 *     2.2539 *  0.0000     1          
   269  O     s      0.0000      -9.0156 *    -2.2539 *  0.0000     1          
   270  O     s      0.0000      -9.0156 *     2.2539 *  0.0000     1          
   271  O     s      9.0156 *     0.0000 *    -2.2539 *  0.0000     2          
   272  O     s      9.0156 *     0.0000 *     2.2539 *  0.0000     2          
   273  O     s      4.5078 *     4.5078 *     6.7617 *  0.0000     2          
   274  O     s      4.5078 *     4.5078 *    -6.7617 *  0.0000     2          
   275  O     s      4.5078 *    -4.5078 *     6.7617 *  0.0000     2          
   276  O     s      4.5078 *    -4.5078 *    -6.7617 *  0.0000     2          
   277  Cl    s      2.2539 *     2.2539 *     9.0156 *  0.0000     2          
   278  Cl    s      2.2539 *     2.2539 *    -9.0156 *  0.0000     2          
   279  Cl    s      2.2539 *    -2.2539 *     9.0156 *  0.0000     2          
   280  Cl    s      2.2539 *    -2.2539 *    -9.0156 *  0.0000     2          
   281  Cl    s      6.7617 *     6.7617 *     0.0000 *  0.0000     2          
   282  Cl    s      6.7617 *    -6.7617 *     0.0000 *  0.0000     2          
   283  O     s      9.0156 *    -4.5078 *    -2.2539 *  0.0000     2          
   284  O     s      9.0156 *    -4.5078 *     2.2539 *  0.0000     2          
   285  O     s     -4.5078 *     9.0156 *    -2.2539 *  0.0000     2          
   286  O     s     -4.5078 *     9.0156 *     2.2539 *  0.0000     2          
   287  O     s     -4.5078 *    -9.0156 *    -2.2539 *  0.0000     2          
   288  O     s     -4.5078 *    -9.0156 *     2.2539 *  0.0000     2          
   289  O     s      9.0156 *     4.5078 *    -2.2539 *  0.0000     2          
   290  O     s      9.0156 *     4.5078 *     2.2539 *  0.0000     2          
   291  Cl    s      6.7617 *     6.7617 *     4.5078 *  0.0000     2          
   292  Cl    s      6.7617 *     6.7617 *    -4.5078 *  0.0000     2          
   293  Cl    s      6.7617 *    -6.7617 *     4.5078 *  0.0000     2          
   294  Cl    s      6.7617 *    -6.7617 *    -4.5078 *  0.0000     2          
   295  O     s      0.0000       0.0000 *    11.2695 *  0.0000     1          
   296  O     s      0.0000       0.0000 *   -11.2695 *  0.0000     1          
   297  O     s      0.0000       9.0156 *     6.7617 *  0.0000     1          
   298  O     s      0.0000       9.0156 *    -6.7617 *  0.0000     1          
   299  O     s      0.0000      -9.0156 *     6.7617 *  0.0000     1          
   300  O     s      0.0000      -9.0156 *    -6.7617 *  0.0000     1          
   301  O     s      9.0156 *     0.0000 *     6.7617 *  0.0000     2          
   302  O     s      9.0156 *     0.0000 *    -6.7617 *  0.0000     2          
   303  Cl    s      2.2539 *    11.2695 *     0.0000 *  0.0000     2          
   304  Cl    s      2.2539 *   -11.2695 *     0.0000 *  0.0000     2          
   305  Cl    s     11.2695 *     2.2539 *     0.0000 *  0.0000     2          
   306  Cl    s     11.2695 *    -2.2539 *     0.0000 *  0.0000     2          
   307  Cl    s      2.2539 *     6.7617 *     9.0156 *  0.0000     2          
   308  Cl    s      2.2539 *     6.7617 *    -9.0156 *  0.0000     2          
   309  Cl    s      2.2539 *    -6.7617 *     9.0156 *  0.0000     2          
   310  Cl    s      2.2539 *    -6.7617 *    -9.0156 *  0.0000     2          
   311  Cl    s      6.7617 *     2.2539 *     9.0156 *  0.0000     2          
   312  Cl    s      6.7617 *     2.2539 *    -9.0156 *  0.0000     2          
   313  Cl    s      6.7617 *    -2.2539 *     9.0156 *  0.0000     2          
   314  Cl    s      6.7617 *    -2.2539 *    -9.0156 *  0.0000     2          
--------------------------------------------------------------------------------

  Components of defect energy : 

--------------------------------------------------------------------------------
  Region 1 - region 1                   =    -17.42812142 eV
  Region 1 - region 2a (unrelaxed)      =     25.99281445 eV
  Region 1 - 2a (relaxed - correction)  =     -0.32437692 eV
  Region 1 (Total)                      =      8.24031611 eV
  Region 2a                             =      0.16207855 eV
  Region 2b                             =     -0.43704615 eV
--------------------------------------------------------------------------------
  Total defect energy                   =      7.96534851 eV
--------------------------------------------------------------------------------

  Largest displacement in region 2 =   0.0332 Angstroms


  Number of variables =      854

  Maximum number of calculations  =        1000
  Maximum Hessian update interval =          10
  Maximum step size               =   1.0000000
  Maximum parameter tolerance     =   0.0000100
  Maximum function  tolerance     =   0.0000100
  Maximum gradient  tolerance     =   0.0010000

  Symmetry adapted optimisation

  Symmetry to be used for second derivatives

  Newton-Raphson optimiser to be used

  BFGS hessian update to be used

  Lower half triangular hessian to be used

  Start of defect optimisation :

  Cycle:      0 Defect Energy:   7.965349  Gnorm:     0.020230  CPU:    2.896
  ** Hessian calculated **
  Cycle:      1 Defect Energy:   7.306227  Gnorm:     0.017708  CPU:    9.419
  ** Hessian calculated **
  Cycle:      2 Defect Energy:   6.626146  Gnorm:     0.014676  CPU:   15.801
  ** Hessian calculated **
  Cycle:      3 Defect Energy:   5.475204  Gnorm:     0.004417  CPU:   24.076
  Cycle:      4 Defect Energy:   5.379044  Gnorm:     0.002853  CPU:   25.237
  Cycle:      5 Defect Energy:   5.279533  Gnorm:     0.002207  CPU:   26.349
  Cycle:      6 Defect Energy:   5.177128  Gnorm:     0.001668  CPU:   27.460
  Cycle:      7 Defect Energy:   5.098628  Gnorm:     0.001470  CPU:   28.676
  Cycle:      8 Defect Energy:   5.040294  Gnorm:     0.001425  CPU:   29.768
  Cycle:      9 Defect Energy:   4.990253  Gnorm:     0.001607  CPU:   30.840
  Cycle:     10 Defect Energy:   4.946680  Gnorm:     0.001791  CPU:   31.927
  Cycle:     11 Defect Energy:   4.901127  Gnorm:     0.001761  CPU:   33.082
  Cycle:     12 Defect Energy:   4.850935  Gnorm:     0.001878  CPU:   34.121
  ** Hessian calculated **
  Cycle:     13 Defect Energy:   4.829994  Gnorm:     0.001484  CPU:   36.688
  Cycle:     14 Defect Energy:   4.806963  Gnorm:     0.001377  CPU:   37.708
  Cycle:     15 Defect Energy:   4.779455  Gnorm:     0.001215  CPU:   38.767
  Cycle:     16 Defect Energy:   4.746504  Gnorm:     0.001169  CPU:   39.754
  Cycle:     17 Defect Energy:   4.712302  Gnorm:     0.001239  CPU:   40.717
  Cycle:     18 Defect Energy:   4.678893  Gnorm:     0.001307  CPU:   41.801
  Cycle:     19 Defect Energy:   4.649385  Gnorm:     0.001469  CPU:   42.776
  Cycle:     20 Defect Energy:   4.623777  Gnorm:     0.001496  CPU:   43.716
  Cycle:     21 Defect Energy:   4.601491  Gnorm:     0.001501  CPU:   44.687
  Cycle:     22 Defect Energy:   4.577048  Gnorm:     0.001460  CPU:   45.625
  ** Hessian calculated **
  Cycle:     23 Defect Energy:   4.565475  Gnorm:     0.001280  CPU:   48.053
  Cycle:     24 Defect Energy:   4.551435  Gnorm:     0.001238  CPU:   48.957
  Cycle:     25 Defect Energy:   4.534402  Gnorm:     0.001144  CPU:   49.851
  Cycle:     26 Defect Energy:   4.519432  Gnorm:     0.001117  CPU:   50.741
  Cycle:     27 Defect Energy:   4.506483  Gnorm:     0.001122  CPU:   51.764
  Cycle:     28 Defect Energy:   4.492532  Gnorm:     0.001154  CPU:   56.044
  Cycle:     29 Defect Energy:   4.476166  Gnorm:     0.001222  CPU:   57.141
  Cycle:     30 Defect Energy:   4.456964  Gnorm:     0.001287  CPU:   58.265
  Cycle:     31 Defect Energy:   4.437716  Gnorm:     0.001356  CPU:   59.392
  Cycle:     32 Defect Energy:   4.420373  Gnorm:     0.001406  CPU:   60.525
  ** Hessian calculated **
  Cycle:     33 Defect Energy:   4.409143  Gnorm:     0.001276  CPU:   63.408
  Cycle:     34 Defect Energy:   4.396013  Gnorm:     0.001233  CPU:   64.473
  Cycle:     35 Defect Energy:   4.379559  Gnorm:     0.001139  CPU:   65.610
  Cycle:     36 Defect Energy:   4.363094  Gnorm:     0.001094  CPU:   66.651
  Cycle:     37 Defect Energy:   4.350979  Gnorm:     0.001073  CPU:   67.688
  Cycle:     38 Defect Energy:   4.339862  Gnorm:     0.001100  CPU:   68.706
  Cycle:     39 Defect Energy:   4.327997  Gnorm:     0.001110  CPU:   69.633
  Cycle:     40 Defect Energy:   4.315991  Gnorm:     0.001159  CPU:   70.493
  Cycle:     41 Defect Energy:   4.304537  Gnorm:     0.001189  CPU:   71.449
  Cycle:     42 Defect Energy:   4.293872  Gnorm:     0.001204  CPU:   72.408
  ** Hessian calculated **
  Cycle:     43 Defect Energy:   4.266259  Gnorm:     0.001083  CPU:   74.970
  Cycle:     44 Defect Energy:   4.236736  Gnorm:     0.000922  CPU:   75.886
  Cycle:     45 Defect Energy:   4.227924  Gnorm:     0.000874  CPU:   76.841
  ** Hessian calculated **
  Cycle:     46 Defect Energy:   4.194997  Gnorm:     0.000620  CPU:   79.241
  Cycle:     47 Defect Energy:   4.177268  Gnorm:     0.000479  CPU:   80.262
  Cycle:     48 Defect Energy:   4.165343  Gnorm:     0.000245  CPU:   81.168
  Cycle:     49 Defect Energy:   4.159827  Gnorm:     0.000227  CPU:   82.100
  Cycle:     50 Defect Energy:   4.154449  Gnorm:     0.000269  CPU:   83.038
  Cycle:     51 Defect Energy:   4.151563  Gnorm:     0.000195  CPU:   84.037
  Cycle:     52 Defect Energy:   4.149875  Gnorm:     0.000175  CPU:   86.194
  Cycle:     53 Defect Energy:   4.147957  Gnorm:     0.000132  CPU:   89.793
  Cycle:     54 Defect Energy:   4.146326  Gnorm:     0.000122  CPU:   90.914
  Cycle:     55 Defect Energy:   4.144983  Gnorm:     0.000077  CPU:   92.048
  ** Hessian calculated **
  Cycle:     56 Defect Energy:   4.144094  Gnorm:     0.000056  CPU:   94.959
  Cycle:     57 Defect Energy:   4.143609  Gnorm:     0.000043  CPU:   96.012
  Cycle:     58 Defect Energy:   4.143325  Gnorm:     0.000032  CPU:   97.058
  Cycle:     59 Defect Energy:   4.143162  Gnorm:     0.000023  CPU:   98.120
  Cycle:     60 Defect Energy:   4.143069  Gnorm:     0.000017  CPU:   99.290
  Cycle:     61 Defect Energy:   4.143017  Gnorm:     0.000012  CPU:  100.354
  Cycle:     62 Defect Energy:   4.142987  Gnorm:     0.000009  CPU:  101.400
  Cycle:     63 Defect Energy:   4.142970  Gnorm:     0.000006  CPU:  102.430


  **** Optimisation achieved ****


  Final defect energy  =        4.14296057
  Final defect Gnorm   =        0.00000435

  Components of defect energy : 

--------------------------------------------------------------------------------
  Region 1 - region 1                   =    -18.34681225 eV
  Region 1 - region 2a (unrelaxed)      =     23.03442557 eV
  Region 1 - 2a (relaxed - correction)  =     -0.23620743 eV
  Region 1 (Total)                      =      4.45140589 eV
  Region 2a                             =      0.11796875 eV
  Region 2b                             =     -0.42641406 eV
--------------------------------------------------------------------------------
  Total defect energy                   =      4.14296057 eV
--------------------------------------------------------------------------------

  Largest displacement in region 2 =   0.0332 Angstroms

  Final coordinates of region 1 :

--------------------------------------------------------------------------------
   No.  Atomic        x           y           z          Radius      Charge
        Label       (Angs)      (Angs)      (Angs)       (Angs)       (e) 
--------------------------------------------------------------------------------
     1  Na    c     2.253894    1.761635    0.069052    0.000000    1.000000
     2  O     c     2.253894    2.232667   -2.220115    0.000000    0.183000
     3  O     c     2.253894    2.342400    2.218144    0.000000    0.183000
     4  Cl    c     4.589280    4.628274   -0.066015    0.000000    1.485000
     5  Cl    c    -0.081493    4.628274   -0.066015    0.000000    1.485000
     6  Cl    c     4.631922    0.000119   -0.092711    0.000000    1.485000
     7  Cl    c    -0.124135    0.000119   -0.092711    0.000000    1.485000
     8  Na    c     4.507965    2.170853   -2.222134    0.000000    1.000000
     9  Na    c    -0.000178    2.170853   -2.222134    0.000000    1.000000
    10  Na    c     4.429716    1.877901    2.254119    0.000000    1.000000
    11  Na    c     0.078071    1.877901    2.254119    0.000000    1.000000
    12  Na    c     2.253894    4.477637   -1.771654    0.000000    1.000000
    13  Na    c     2.253894    4.523864    2.060272    0.000000    1.000000
    14  Na    c     2.253894    0.005920   -2.660711    0.000000    1.000000
    15  Na    c     2.253894    1.939051    4.410215    0.000000    1.000000
    16  Na    c     2.253894    2.660242   -4.469678    0.000000    1.000000
    17  Na    c     2.253894   -1.823793    0.071156    0.000000    1.000000
    18  Na    c    -2.152409    2.628495    0.001773    0.000000    1.000000
    19  Na    c     6.660196    2.628495    0.001773    0.000000    1.000000
    20  Na    c     2.253894    7.140791   -0.020859    0.000000    1.000000
    21  O     c     2.253894   -2.221080   -2.230909    0.000000    0.183000
    22  O     c     2.253894   -2.316793    2.243829    0.000000    0.183000
    23  O     c    -2.260958    2.265159   -2.252019    0.000000    0.183000
    24  O     c     6.768745    2.265159   -2.252019    0.000000    0.183000
    25  O     c    -2.218258    2.238141    2.241800    0.000000    0.183000
    26  O     c     6.726045    2.238141    2.241800    0.000000    0.183000
    27  O     c     2.253894    6.739451   -2.247757    0.000000    0.183000
    28  O     c     2.253894    6.812395    2.213680    0.000000    0.183000
    29  Na    c     4.511128   -2.143915   -2.278022    0.000000    1.000000
    30  Na    c    -0.003340   -2.143915   -2.278022    0.000000    1.000000
    31  Na    c     4.434952   -1.880623    2.287435    0.000000    1.000000
    32  Na    c     0.072835   -1.880623    2.287435    0.000000    1.000000
    33  Na    c    -2.159763    4.501973   -2.623386    0.000000    1.000000
    34  Na    c     6.667550    4.501973   -2.623386    0.000000    1.000000
    35  Na    c    -1.961937    4.471143    2.584338    0.000000    1.000000
    36  Na    c     6.469724    4.471143    2.584338    0.000000    1.000000
    37  Na    c    -2.343913    0.007899   -1.898335    0.000000    1.000000
    38  Na    c     6.851700    0.007899   -1.898335    0.000000    1.000000
    39  Na    c    -2.459841    0.007442    1.878114    0.000000    1.000000
    40  Na    c     6.967629    0.007442    1.878114    0.000000    1.000000
    41  Cl    c     4.542803    4.644247    4.640574    0.000000    1.485000
    42  Cl    c    -0.035016    4.644247    4.640574    0.000000    1.485000
    43  Cl    c     4.521046    4.508210   -4.566645    0.000000    1.485000
    44  Cl    c    -0.013259    4.508210   -4.566645    0.000000    1.485000
    45  Cl    c     4.607668    0.003909    4.631254    0.000000    1.485000
    46  Cl    c    -0.099881    0.003909    4.631254    0.000000    1.485000
    47  Cl    c     4.525878   -0.001627   -4.512829    0.000000    1.485000
    48  Cl    c    -0.018091   -0.001627   -4.512829    0.000000    1.485000
    49  Na    c     4.515808    6.723385   -2.153728    0.000000    1.000000
    50  Na    c    -0.008021    6.723385   -2.153728    0.000000    1.000000
    51  Na    c     4.505337    6.834646    2.090565    0.000000    1.000000
    52  Na    c     0.002450    6.834646    2.090565    0.000000    1.000000
    53  Na    c     2.253894   -1.828921    4.415379    0.000000    1.000000
    54  Na    c     2.253894   -2.674190   -4.460195    0.000000    1.000000
    55  Na    c    -2.292961    1.903867    4.491410    0.000000    1.000000
    56  Na    c     6.800749    1.903867    4.491410    0.000000    1.000000
    57  Na    c    -2.281305    1.888843   -4.490449    0.000000    1.000000
    58  Na    c     6.789093    1.888843   -4.490449    0.000000    1.000000
    59  Na    c    -2.076855   -2.594314    0.004099    0.000000    1.000000
    60  Na    c     6.584642   -2.594314    0.004099    0.000000    1.000000
    61  Na    c     2.253894    6.614726    4.476649    0.000000    1.000000
    62  Na    c     2.253894    6.375871   -4.495380    0.000000    1.000000
    63  Na    c    -2.361003    6.413921   -0.007310    0.000000    1.000000
    64  Na    c     6.868790    6.413921   -0.007310    0.000000    1.000000
    65  O     c    -2.261857   -2.248430   -2.238164    0.000000    0.183000
    66  O     c     6.769644   -2.248430   -2.238164    0.000000    0.183000
    67  O     c    -2.220469   -2.224365    2.232485    0.000000    0.183000
    68  O     c     6.728256   -2.224365    2.232485    0.000000    0.183000
    69  O     c     2.253894    2.243656    6.712978    0.000000    0.183000
    70  O     c     2.253894    2.267300   -6.729762    0.000000    0.183000
    71  O     c    -2.270338    6.747007   -2.270953    0.000000    0.183000
    72  O     c     6.778125    6.747007   -2.270953    0.000000    0.183000
    73  O     c    -2.245318    6.721488    2.252199    0.000000    0.183000
    74  O     c     6.753105    6.721488    2.252199    0.000000    0.183000
    75  Cl    c     4.532651    9.036612   -0.009803    0.000000    1.485000
    76  Cl    c    -0.024864    9.036612   -0.009803    0.000000    1.485000
    77  Cl    c     4.592100   -4.639611   -0.076462    0.000000    1.485000
    78  Cl    c    -0.084313   -4.639611   -0.076462    0.000000    1.485000
    79  Cl    c     9.065063    4.489997   -0.008526    0.000000    1.485000
    80  Cl    c    -4.557275    4.489997   -0.008526    0.000000    1.485000
    81  Cl    c     9.082961   -0.033686   -0.030356    0.000000    1.485000
    82  Cl    c    -4.575174   -0.033686   -0.030356    0.000000    1.485000
    83  Na    c     4.509367    2.332950    6.647679    0.000000    1.000000
    84  Na    c    -0.001580    2.332950    6.647679    0.000000    1.000000
    85  Na    c     4.511619    2.318487   -6.675536    0.000000    1.000000
    86  Na    c    -0.003832    2.318487   -6.675536    0.000000    1.000000
    87  Na    c     9.018006    2.372218   -2.183467    0.000000    1.000000
    88  Na    c    -4.510219    2.372218   -2.183467    0.000000    1.000000
    89  Na    c     8.991789    2.471119    2.223402    0.000000    1.000000
    90  Na    c    -4.484002    2.471119    2.223402    0.000000    1.000000
    91  Na    c     2.253894    4.481098    6.566079    0.000000    1.000000
    92  Na    c     2.253894    4.488708   -7.140944    0.000000    1.000000
    93  Na    c     2.253894    8.977494   -2.627010    0.000000    1.000000
    94  Na    c     2.253894    9.029626    2.579925    0.000000    1.000000
    95  Na    c     2.253894    0.001296    7.007405    0.000000    1.000000
    96  Na    c     2.253894    0.001803   -6.414672    0.000000    1.000000
    97  Na    c     2.253894   -4.466126   -1.823455    0.000000    1.000000
    98  Na    c     2.253894   -4.500028    2.232075    0.000000    1.000000
    99  Na    c     6.838998   -1.956896    4.492700    0.000000    1.000000
   100  Na    c    -2.331210   -1.956896    4.492700    0.000000    1.000000
   101  Na    c     6.865528   -1.982137   -4.494074    0.000000    1.000000
   102  Na    c    -2.357741   -1.982137   -4.494074    0.000000    1.000000
   103  Na    c    -2.092059    7.000862    4.496760    0.000000    1.000000
   104  Na    c     6.599846    7.000862    4.496760    0.000000    1.000000
   105  Na    c    -2.195806    7.107054   -4.494423    0.000000    1.000000
   106  Na    c     6.703593    7.107054   -4.494423    0.000000    1.000000
   107  O     c     2.253894   -2.243087    6.702352    0.000000    0.183000
   108  O     c     2.253894   -2.263423   -6.705077    0.000000    0.183000
   109  O     c    -2.260193    2.244749    6.745384    0.000000    0.183000
   110  O     c     6.767980    2.244749    6.745384    0.000000    0.183000
   111  O     c    -2.260481    2.238951   -6.742823    0.000000    0.183000
   112  O     c     6.768268    2.238951   -6.742823    0.000000    0.183000
   113  O     c     2.253894    6.737765    6.750577    0.000000    0.183000
   114  O     c     2.253894    6.722481   -6.766115    0.000000    0.183000
   115  Cl    c     4.490463    9.074745    4.495705    0.000000    1.485000
   116  Cl    c     0.017324    9.074745    4.495705    0.000000    1.485000
   117  Cl    c     4.507511    9.061668   -4.548394    0.000000    1.485000
   118  Cl    c     0.000276    9.061668   -4.548394    0.000000    1.485000
   119  Cl    c     4.574436   -4.638176    4.615633    0.000000    1.485000
   120  Cl    c    -0.066649   -4.638176    4.615633    0.000000    1.485000
   121  Cl    c     4.539305   -4.517294   -4.566247    0.000000    1.485000
   122  Cl    c    -0.031518   -4.517294   -4.566247    0.000000    1.485000
   123  Cl    c     9.059471    4.513001    4.510861    0.000000    1.485000
   124  Cl    c    -4.551684    4.513001    4.510861    0.000000    1.485000
   125  Cl    c     9.059787    4.535493   -4.529382    0.000000    1.485000
   126  Cl    c    -4.551999    4.535493   -4.529382    0.000000    1.485000
   127  Cl    c     9.042372   -0.002721    4.539860    0.000000    1.485000
   128  Cl    c    -4.534585   -0.002721    4.539860    0.000000    1.485000
   129  Cl    c     9.047080   -0.001606   -4.565329    0.000000    1.485000
   130  Cl    c    -4.539293   -0.001606   -4.565329    0.000000    1.485000
   131  Na    c     4.504186   -2.331819    6.614827    0.000000    1.000000
   132  Na    c     0.003601   -2.331819    6.614827    0.000000    1.000000
   133  Na    c     4.508485   -2.268810   -6.635249    0.000000    1.000000
   134  Na    c    -0.000698   -2.268810   -6.635249    0.000000    1.000000
   135  Na    c     9.014906   -2.308997   -2.083715    0.000000    1.000000
   136  Na    c    -4.507119   -2.308997   -2.083715    0.000000    1.000000
   137  Na    c     8.991116   -2.415123    2.142450    0.000000    1.000000
   138  Na    c    -4.483329   -2.415123    2.142450    0.000000    1.000000
   139  Na    c    -2.349306    4.505473    6.500530    0.000000    1.000000
   140  Na    c     6.857093    4.505473    6.500530    0.000000    1.000000
   141  Na    c    -2.336926    4.503375   -6.480851    0.000000    1.000000
   142  Na    c     6.844713    4.503375   -6.480851    0.000000    1.000000
   143  Na    c    -2.313213    8.992310   -1.966835    0.000000    1.000000
   144  Na    c     6.821001    8.992310   -1.966835    0.000000    1.000000
   145  Na    c    -2.372558    8.982244    2.029902    0.000000    1.000000
   146  Na    c     6.880345    8.982244    2.029902    0.000000    1.000000
   147  Na    c    -2.073789    0.000387    7.014553    0.000000    1.000000
   148  Na    c     6.581576    0.000387    7.014553    0.000000    1.000000
   149  Na    c    -2.166428    0.004245   -7.057233    0.000000    1.000000
   150  Na    c     6.674215    0.004245   -7.057233    0.000000    1.000000
   151  Na    c    -2.194211   -4.497533   -2.495018    0.000000    1.000000
   152  Na    c     6.701998   -4.497533   -2.495018    0.000000    1.000000
   153  Na    c    -2.038284   -4.473913    2.515543    0.000000    1.000000
   154  Na    c     6.546071   -4.473913    2.515543    0.000000    1.000000
   155  Na    c     4.511226    6.646327    6.803390    0.000000    1.000000
   156  Na    c    -0.003439    6.646327    6.803390    0.000000    1.000000
   157  Na    c     4.507876    6.667211   -6.730149    0.000000    1.000000
   158  Na    c    -0.000088    6.667211   -6.730149    0.000000    1.000000
   159  Na    c     9.025022    6.640585   -2.353060    0.000000    1.000000
   160  Na    c    -4.517234    6.640585   -2.353060    0.000000    1.000000
   161  Na    c     9.003568    6.549068    2.383370    0.000000    1.000000
   162  Na    c    -4.495781    6.549068    2.383370    0.000000    1.000000
   163  Na    c     2.253894    2.388905    8.985708    0.000000    1.000000
   164  Na    c     2.253894    1.938314   -8.981772    0.000000    1.000000
   165  Na    c     2.253894   10.989816   -0.005835    0.000000    1.000000
   166  Na    c     2.253894   -6.949486    0.000901    0.000000    1.000000
   167  Na    c    11.258672    1.869994    0.003428    0.000000    1.000000
   168  Na    c    -6.750885    1.869994    0.003428    0.000000    1.000000
   169  O     c     2.253894   11.232533   -2.268972    0.000000    0.183000
   170  O     c     2.253894   11.256088    2.254010    0.000000    0.183000
   171  O     c     2.253894   -6.728062   -2.232170    0.000000    0.183000
   172  O     c     2.253894   -6.784413    2.236679    0.000000    0.183000
   173  O     c    11.272278    2.250958   -2.237525    0.000000    0.183000
   174  O     c    -6.764491    2.250958   -2.237525    0.000000    0.183000
   175  O     c    11.254751    2.251111    2.238420    0.000000    0.183000
   176  O     c    -6.746964    2.251111    2.238420    0.000000    0.183000
   177  O     c     6.771360    6.778216    6.746146    0.000000    0.183000
   178  O     c    -2.263572    6.778216    6.746146    0.000000    0.183000
   179  O     c     6.762486    6.774339   -6.734267    0.000000    0.183000
   180  O     c    -2.254699    6.774339   -6.734267    0.000000    0.183000
   181  O     c     6.758424   -2.237845    6.757118    0.000000    0.183000
   182  O     c    -2.250636   -2.237845    6.757118    0.000000    0.183000
   183  O     c     6.760265   -2.227163   -6.762051    0.000000    0.183000
   184  O     c    -2.252478   -2.227163   -6.762051    0.000000    0.183000
   185  Cl    c     4.513740    4.524346    9.059225    0.000000    1.485000
   186  Cl    c    -0.005953    4.524346    9.059225    0.000000    1.485000
   187  Cl    c     4.540032    4.517788   -9.043268    0.000000    1.485000
   188  Cl    c    -0.032245    4.517788   -9.043268    0.000000    1.485000
   189  Cl    c     4.493034    0.020674    9.047604    0.000000    1.485000
   190  Cl    c     0.014753    0.020674    9.047604    0.000000    1.485000
   191  Cl    c     4.494580   -0.014389   -9.052879    0.000000    1.485000
   192  Cl    c     0.013207   -0.014389   -9.052879    0.000000    1.485000
   193  Na    c     4.510982   11.197334   -2.288927    0.000000    1.000000
   194  Na    c    -0.003195   11.197334   -2.288927    0.000000    1.000000
   195  Na    c     4.515788   11.200374    2.297504    0.000000    1.000000
   196  Na    c    -0.008001   11.200374    2.297504    0.000000    1.000000
   197  Na    c     4.509787   -6.712792   -2.197512    0.000000    1.000000
   198  Na    c    -0.001999   -6.712792   -2.197512    0.000000    1.000000
   199  Na    c     4.498720   -6.777902    2.163900    0.000000    1.000000
   200  Na    c     0.009067   -6.777902    2.163900    0.000000    1.000000
   201  Na    c    11.351436    4.500417   -1.921139    0.000000    1.000000
   202  Na    c    -6.843649    4.500417   -1.921139    0.000000    1.000000
   203  Na    c    11.381422    4.494638    1.927176    0.000000    1.000000
   204  Na    c    -6.873635    4.494638    1.927176    0.000000    1.000000
   205  Na    c    11.197866    0.006859   -2.578171    0.000000    1.000000
   206  Na    c    -6.690079    0.006859   -2.578171    0.000000    1.000000
   207  Na    c    11.137092    0.003375    2.565716    0.000000    1.000000
   208  Na    c    -6.629305    0.003375    2.565716    0.000000    1.000000
   209  Cl    c     9.030572    9.070745   -0.015556    0.000000    1.485000
   210  Cl    c    -4.522785    9.070745   -0.015556    0.000000    1.485000
   211  Cl    c     9.076222   -4.511241   -0.019691    0.000000    1.485000
   212  Cl    c    -4.568435   -4.511241   -0.019691    0.000000    1.485000
   213  Na    c     9.013237    2.086609    6.768828    0.000000    1.000000
   214  Na    c    -4.505450    2.086609    6.768828    0.000000    1.000000
   215  Na    c     9.020369    2.122995   -6.727470    0.000000    1.000000
   216  Na    c    -4.512581    2.122995   -6.727470    0.000000    1.000000
   217  Na    c     2.253894    9.000043    6.685208    0.000000    1.000000
   218  Na    c     2.253894    8.995432   -6.541066    0.000000    1.000000
   219  Na    c     2.253894   -4.493760    6.491631    0.000000    1.000000
   220  Na    c     2.253894   -4.494300   -6.999241    0.000000    1.000000
   221  Na    c     2.253894   11.430043    4.507733    0.000000    1.000000
   222  Na    c     2.253894   11.474567   -4.502007    0.000000    1.000000
   223  Na    c     2.253894   -2.415897    8.981762    0.000000    1.000000
   224  Na    c     2.253894   -2.067495   -8.983608    0.000000    1.000000
   225  Na    c     2.253894   -6.813924    4.493704    0.000000    1.000000
   226  Na    c     2.253894   -6.574744   -4.493341    0.000000    1.000000
   227  Na    c    11.251096    2.514317    4.496471    0.000000    1.000000
   228  Na    c    -6.743309    2.514317    4.496471    0.000000    1.000000
   229  Na    c    11.272387    2.529724   -4.489682    0.000000    1.000000
   230  Na    c    -6.764600    2.529724   -4.489682    0.000000    1.000000
   231  Na    c    11.326107   -1.988646    0.002856    0.000000    1.000000
   232  Na    c    -6.818320   -1.988646    0.002856    0.000000    1.000000
   233  Na    c    -2.226720    2.399575    9.001681    0.000000    1.000000
   234  Na    c     6.734507    2.399575    9.001681    0.000000    1.000000
   235  Na    c    -2.266467    2.419644   -9.000280    0.000000    1.000000
   236  Na    c     6.774254    2.419644   -9.000280    0.000000    1.000000
   237  Na    c    -2.200578   11.403247    0.003375    0.000000    1.000000
   238  Na    c     6.708365   11.403247    0.003375    0.000000    1.000000
   239  Na    c    -2.304031   -6.611682   -0.002879    0.000000    1.000000
   240  Na    c     6.811819   -6.611682   -0.002879    0.000000    1.000000
   241  Na    c     2.253894    6.702564    9.005058    0.000000    1.000000
   242  Na    c     2.253894    6.977204   -9.010832    0.000000    1.000000
   243  Na    c    11.186948    7.050674    0.006397    0.000000    1.000000
   244  Na    c    -6.679161    7.050674    0.006397    0.000000    1.000000
   245  O     c    11.268402   -2.237973   -2.256992    0.000000    0.183000
   246  O     c    -6.760615   -2.237973   -2.256992    0.000000    0.183000
[...]
    234 y         -2.253894     -2.316930    -0.063037    Cartesian    2.80
    234 z          2.253894      2.243847    -0.010046    Cartesian   -0.45
    235 x         -2.253894     -2.260953    -0.007059    Cartesian    0.31
    235 y          2.253894      2.265175     0.011282    Cartesian    0.50
    235 z         -2.253894     -2.252027     0.001867    Cartesian   -0.08
    236 x         -2.253894     -2.218310     0.035583    Cartesian   -1.58
    236 y          2.253894      2.238138    -0.015756    Cartesian   -0.70
    236 z          2.253894      2.241795    -0.012098    Cartesian   -0.54
    237 x          2.253894      2.253894     0.000000    Cartesian    0.00
    237 y          6.761681      6.739505    -0.022176    Cartesian   -0.33
    237 z         -2.253894     -2.247704     0.006189    Cartesian   -0.27
    238 x          2.253894      2.253894     0.000000    Cartesian    0.00
    238 y          6.761681      6.812479     0.050798    Cartesian    0.75
    238 z          2.253894      2.213667    -0.040227    Cartesian   -1.78
    239 x          4.507787      4.555968     0.048181    Cartesian    1.07
    239 y          4.507787      4.658245     0.150458    Cartesian    3.34
    239 z          4.507787      4.653711     0.145924    Cartesian    3.24
    240 x          4.507787      4.519803     0.012016    Cartesian    0.27
    240 y          4.507787      4.507961     0.000174    Cartesian    0.00
    240 z         -4.507787     -4.570917    -0.063130    Cartesian    1.40
    241 x          4.507787      4.616160     0.108372    Cartesian    2.40
    241 y          0.000000      0.003806     0.003806    Cartesian    0.00
    241 z          4.507787      4.631194     0.123407    Cartesian    2.74
    242 x          4.507787      4.522395     0.014608    Cartesian    0.32
    242 y          0.000000     -0.000776    -0.000776    Cartesian    0.00
    242 z         -4.507787     -4.511825    -0.004038    Cartesian    0.09
    243 x         -2.253894     -2.261856    -0.007963    Cartesian    0.35
    243 y         -2.253894     -2.248460     0.005434    Cartesian   -0.24
    243 z         -2.253894     -2.238139     0.015755    Cartesian   -0.70
    244 x         -2.253894     -2.220527     0.033367    Cartesian   -1.48
    244 y         -2.253894     -2.224369     0.029525    Cartesian   -1.31
    244 z          2.253894      2.232450    -0.021444    Cartesian   -0.95
    245 x          2.253894      2.253894     0.000000    Cartesian    0.00
    245 y          2.253894      2.243697    -0.010197    Cartesian   -0.45
    245 z          6.761681      6.713031    -0.048650    Cartesian   -0.72
    246 x          2.253894      2.253894     0.000000    Cartesian    0.00
    246 y          2.253894      2.267356     0.013462    Cartesian    0.60
    246 z         -6.761681     -6.729788     0.031892    Cartesian   -0.47
    247 x         -2.253894     -2.270346    -0.016452    Cartesian    0.73
    247 y          6.761681      6.747009    -0.014672    Cartesian   -0.22
    247 z         -2.253894     -2.270997    -0.017103    Cartesian    0.76
    248 x         -2.253894     -2.245282     0.008611    Cartesian   -0.38
    248 y          6.761681      6.721501    -0.040180    Cartesian   -0.59
    248 z          2.253894      2.252227    -0.001666    Cartesian   -0.07
    249 x          4.507787      4.529449     0.021661    Cartesian    0.48
    249 y          9.015574      9.034799     0.019225    Cartesian    0.21
    249 z          0.000000     -0.009863    -0.009863    Cartesian    0.00
    250 x          4.507787      4.604535     0.096748    Cartesian    2.15
    250 y         -4.507787     -4.648121    -0.140334    Cartesian    3.11
    250 z          0.000000     -0.089474    -0.089474    Cartesian    0.00
    251 x          9.015574      9.064895     0.049321    Cartesian    0.55
    251 y          4.507787      4.488404    -0.019383    Cartesian   -0.43
    251 z          0.000000     -0.008361    -0.008361    Cartesian    0.00
    252 x          9.015574      9.080371     0.064797    Cartesian    0.72
    252 y          0.000000     -0.035066    -0.035066    Cartesian    0.00
    252 z          0.000000     -0.031090    -0.031090    Cartesian    0.00
    253 x          2.253894      2.253894     0.000000    Cartesian    0.00
    253 y         -2.253894     -2.243097     0.010797    Cartesian   -0.48
    253 z          6.761681      6.702382    -0.059299    Cartesian   -0.88
    254 x          2.253894      2.253894     0.000000    Cartesian    0.00
    254 y         -2.253894     -2.263501    -0.009608    Cartesian    0.43
    254 z         -6.761681     -6.705059     0.056622    Cartesian   -0.84
    255 x         -2.253894     -2.260190    -0.006296    Cartesian    0.28
    255 y          2.253894      2.244700    -0.009194    Cartesian   -0.41
    255 z          6.761681      6.745402    -0.016279    Cartesian   -0.24
    256 x         -2.253894     -2.260486    -0.006592    Cartesian    0.29
    256 y          2.253894      2.238893    -0.015001    Cartesian   -0.67
    256 z         -6.761681     -6.742842     0.018838    Cartesian   -0.28
    257 x          2.253894      2.253894     0.000000    Cartesian    0.00
    257 y          6.761681      6.737710    -0.023971    Cartesian   -0.35
    257 z          6.761681      6.750581    -0.011100    Cartesian   -0.16
    258 x          2.253894      2.253894     0.000000    Cartesian    0.00
    258 y          6.761681      6.722434    -0.039247    Cartesian   -0.58
    258 z         -6.761681     -6.766178    -0.004497    Cartesian    0.07
    259 x          4.507787      4.488914    -0.018874    Cartesian   -0.42
    259 y          9.015574      9.077885     0.062311    Cartesian    0.69
    259 z          4.507787      4.489701    -0.018086    Cartesian   -0.40
    260 x          4.507787      4.506217    -0.001570    Cartesian   -0.03
    260 y          9.015574      9.064065     0.048490    Cartesian    0.54
    260 z         -4.507787     -4.550228    -0.042441    Cartesian    0.94
    261 x          4.507787      4.588161     0.080374    Cartesian    1.78
    261 y         -4.507787     -4.651508    -0.143721    Cartesian    3.19
    261 z          4.507787      4.628466     0.120679    Cartesian    2.68
    262 x          4.507787      4.538911     0.031124    Cartesian    0.69
    262 y         -4.507787     -4.515210    -0.007423    Cartesian    0.16
    262 z         -4.507787     -4.571620    -0.063832    Cartesian    1.42
    263 x          9.015574      9.065286     0.049712    Cartesian    0.55
    263 y          4.507787      4.515724     0.007937    Cartesian    0.18
    263 z          4.507787      4.508830     0.001043    Cartesian    0.02
    264 x          9.015574      9.061186     0.045611    Cartesian    0.51
    264 y          4.507787      4.538995     0.031208    Cartesian    0.69
    264 z         -4.507787     -4.531680    -0.023893    Cartesian    0.53
    265 x          9.015574      9.041920     0.026345    Cartesian    0.29
    265 y          0.000000     -0.002400    -0.002400    Cartesian    0.00
    265 z          4.507787      4.539827     0.032040    Cartesian    0.71
    266 x          9.015574      9.045530     0.029956    Cartesian    0.33
    266 y          0.000000     -0.000856    -0.000856    Cartesian    0.00
    266 z         -4.507787     -4.569558    -0.061771    Cartesian    1.37
    267 x          2.253894      2.253894     0.000000    Cartesian    0.00
    267 y         11.269468     11.232541    -0.036927    Cartesian   -0.33
    267 z         -2.253894     -2.269047    -0.015153    Cartesian    0.67
    268 x          2.253894      2.253894     0.000000    Cartesian    0.00
    268 y         11.269468     11.256054    -0.013414    Cartesian   -0.12
    268 z          2.253894      2.254082     0.000188    Cartesian    0.01
    269 x          2.253894      2.253894     0.000000    Cartesian    0.00
    269 y         -6.761681     -6.728110     0.033571    Cartesian   -0.50
    269 z         -2.253894     -2.232090     0.021804    Cartesian   -0.97
    270 x          2.253894      2.253894     0.000000    Cartesian    0.00
    270 y         -6.761681     -6.784493    -0.022812    Cartesian    0.34
    270 z          2.253894      2.236640    -0.017253    Cartesian   -0.77
    271 x         11.269468     11.272289     0.002821    Cartesian    0.03
    271 y          2.253894      2.250953    -0.002940    Cartesian   -0.13
    271 z         -2.253894     -2.237527     0.016366    Cartesian   -0.73
    272 x         11.269468     11.254774    -0.014694    Cartesian   -0.13
    272 y          2.253894      2.251121    -0.002772    Cartesian   -0.12
    272 z          2.253894      2.238418    -0.015475    Cartesian   -0.69
    273 x          6.761681      6.771362     0.009681    Cartesian    0.14
    273 y          6.761681      6.778272     0.016592    Cartesian    0.25
    273 z          6.761681      6.746144    -0.015537    Cartesian   -0.23
    274 x          6.761681      6.762487     0.000806    Cartesian    0.01
    274 y          6.761681      6.774405     0.012724    Cartesian    0.19
    274 z         -6.761681     -6.734253     0.027428    Cartesian   -0.41
    275 x          6.761681      6.758416    -0.003264    Cartesian   -0.05
    275 y         -2.253894     -2.237823     0.016070    Cartesian   -0.71
    275 z          6.761681      6.757154    -0.004527    Cartesian   -0.07
    276 x          6.761681      6.760266    -0.001415    Cartesian   -0.02
    276 y         -2.253894     -2.227132     0.026762    Cartesian   -1.19
    276 z         -6.761681     -6.762099    -0.000418    Cartesian    0.01
    277 x          4.507787      4.514727     0.006940    Cartesian    0.15
    277 y          4.507787      4.525923     0.018136    Cartesian    0.40
    277 z          9.015574      9.064123     0.048549    Cartesian    0.54
    278 x          4.507787      4.540224     0.032437    Cartesian    0.72
    278 y          4.507787      4.518839     0.011052    Cartesian    0.25
    278 z         -9.015574     -9.044197    -0.028622    Cartesian    0.32
    279 x          4.507787      4.495573    -0.012214    Cartesian   -0.27
    279 y          0.000000      0.022881     0.022881    Cartesian    0.00
    279 z          9.015574      9.044246     0.028671    Cartesian    0.32
    280 x          4.507787      4.492424    -0.015363    Cartesian   -0.34
    280 y          0.000000     -0.013475    -0.013475    Cartesian    0.00
    280 z         -9.015574     -9.053932    -0.038357    Cartesian    0.43
    281 x          9.015574      9.027436     0.011861    Cartesian    0.13
    281 y          9.015574      9.073509     0.057934    Cartesian    0.64
    281 z          0.000000     -0.017746    -0.017746    Cartesian    0.00
    282 x          9.015574      9.081787     0.066213    Cartesian    0.73
    282 y         -4.507787     -4.507921    -0.000134    Cartesian    0.00
    282 z          0.000000     -0.021590    -0.021590    Cartesian    0.00
    283 x         11.269468     11.268396    -0.001072    Cartesian   -0.01
    283 y         -2.253894     -2.237992     0.015902    Cartesian   -0.71
    283 z         -2.253894     -2.257016    -0.003122    Cartesian    0.14
    284 x         11.269468     11.256285    -0.013183    Cartesian   -0.12
    284 y         -2.253894     -2.244129     0.009765    Cartesian   -0.43
    284 z          2.253894      2.254080     0.000187    Cartesian    0.01
    285 x         -2.253894     -2.255439    -0.001545    Cartesian    0.07
    285 y         11.269468     11.255734    -0.013734    Cartesian   -0.12
    285 z         -2.253894     -2.229912     0.023982    Cartesian   -1.06
    286 x         -2.253894     -2.262071    -0.008178    Cartesian    0.36
    286 y         11.269468     11.256289    -0.013179    Cartesian   -0.12
    286 z          2.253894      2.232018    -0.021875    Cartesian   -0.97
    287 x         -2.253894     -2.261171    -0.007277    Cartesian    0.32
    287 y         -6.761681     -6.756297     0.005384    Cartesian   -0.08
    287 z         -2.253894     -2.282836    -0.028942    Cartesian    1.28
    288 x         -2.253894     -2.235474     0.018420    Cartesian   -0.82
    288 y         -6.761681     -6.740576     0.021105    Cartesian   -0.31
    288 z          2.253894      2.268867     0.014974    Cartesian    0.66
    289 x         11.269468     11.273514     0.004046    Cartesian    0.04
    289 y          6.761681      6.752084    -0.009597    Cartesian   -0.14
    289 z         -2.253894     -2.236967     0.016926    Cartesian   -0.75
    290 x         11.269468     11.265556    -0.003912    Cartesian   -0.03
    290 y          6.761681      6.740388    -0.021292    Cartesian   -0.31
    290 z          2.253894      2.241916    -0.011977    Cartesian   -0.53
    291 x          9.015574      9.039642     0.024068    Cartesian    0.27
    291 y          9.015574      9.048330     0.032755    Cartesian    0.36
    291 z          4.507787      4.500452    -0.007336    Cartesian   -0.16
    292 x          9.015574      9.036994     0.021419    Cartesian    0.24
    292 y          9.015574      9.030026     0.014451    Cartesian    0.16
    292 z         -4.507787     -4.529351    -0.021564    Cartesian    0.48
    293 x          9.015574      9.066182     0.050608    Cartesian    0.56
    293 y         -4.507787     -4.506353     0.001434    Cartesian   -0.03
    293 z          4.507787      4.481794    -0.025993    Cartesian   -0.58
    294 x          9.015574      9.040577     0.025003    Cartesian    0.28
    294 y         -4.507787     -4.529765    -0.021978    Cartesian    0.49
    294 z         -4.507787     -4.535041    -0.027253    Cartesian    0.60
    295 x          2.253894      2.253894     0.000000    Cartesian    0.00
    295 y          2.253894      2.261676     0.007782    Cartesian    0.35
    295 z         11.269468     11.255830    -0.013638    Cartesian   -0.12
    296 x          2.253894      2.253894     0.000000    Cartesian    0.00
    296 y          2.253894      2.223920    -0.029974    Cartesian   -1.33
    296 z        -11.269468    -11.249131     0.020337    Cartesian   -0.18
    297 x          2.253894      2.253894     0.000000    Cartesian    0.00
    297 y         11.269468     11.279194     0.009726    Cartesian    0.09
    297 z          6.761681      6.752167    -0.009514    Cartesian   -0.14
    298 x          2.253894      2.253894     0.000000    Cartesian    0.00
    298 y         11.269468     11.275832     0.006364    Cartesian    0.06
    298 z         -6.761681     -6.742780     0.018901    Cartesian   -0.28
    299 x          2.253894      2.253894     0.000000    Cartesian    0.00
    299 y         -6.761681     -6.752758     0.008923    Cartesian   -0.13
    299 z          6.761681      6.759106    -0.002575    Cartesian   -0.04
    300 x          2.253894      2.253894     0.000000    Cartesian    0.00
    300 y         -6.761681     -6.737189     0.024492    Cartesian   -0.36
    300 z         -6.761681     -6.772744    -0.011063    Cartesian    0.16
    301 x         11.269468     11.269099    -0.000369    Cartesian   -0.00
    301 y          2.253894      2.268609     0.014716    Cartesian    0.65
    301 z          6.761681      6.755861    -0.005820    Cartesian   -0.09
    302 x         11.269468     11.271874     0.002406    Cartesian    0.02
    302 y          2.253894      2.273876     0.019982    Cartesian    0.89
    302 z         -6.761681     -6.752842     0.008839    Cartesian   -0.13
    303 x          4.507787      4.541077     0.033290    Cartesian    0.74
    303 y         13.523362     13.591763     0.068402    Cartesian    0.51
    303 z          0.000000     -0.011079    -0.011079    Cartesian    0.00
    304 x          4.507787      4.469450    -0.038337    Cartesian   -0.85
    304 y         -9.015574     -9.053635    -0.038061    Cartesian    0.42
    304 z          0.000000      0.017772     0.017772    Cartesian    0.00
    305 x         13.523362     13.587727     0.064366    Cartesian    0.48
    305 y          4.507787      4.513759     0.005972    Cartesian    0.13
    305 z          0.000000     -0.002238    -0.002238    Cartesian    0.00
    306 x         13.523362     13.599806     0.076445    Cartesian    0.57
    306 y          0.000000     -0.003183    -0.003183    Cartesian    0.00
    306 z          0.000000     -0.001104    -0.001104    Cartesian    0.00
    307 x          4.507787      4.548323     0.040536    Cartesian    0.90
    307 y          9.015574      9.065410     0.049835    Cartesian    0.55
    307 z          9.015574      9.023849     0.008274    Cartesian    0.09
    308 x          4.507787      4.518237     0.010450    Cartesian    0.23
    308 y          9.015574      9.033961     0.018387    Cartesian    0.20
    308 z         -9.015574     -9.054812    -0.039238    Cartesian    0.44
    309 x          4.507787      4.518085     0.010298    Cartesian    0.23
    309 y         -4.507787     -4.492598     0.015189    Cartesian   -0.34
    309 z          9.015574      9.103613     0.088039    Cartesian    0.98
    310 x          4.507787      4.500852    -0.006935    Cartesian   -0.15
    310 y         -4.507787     -4.524209    -0.016422    Cartesian    0.36
    310 z         -9.015574     -9.057386    -0.041812    Cartesian    0.46
    311 x          9.015574      9.053352     0.037777    Cartesian    0.42
    311 y          4.507787      4.517743     0.009956    Cartesian    0.22
    311 z          9.015574      9.086581     0.071006    Cartesian    0.79
    312 x          9.015574      9.042347     0.026772    Cartesian    0.30
    312 y          4.507787      4.509846     0.002058    Cartesian    0.05
    312 z         -9.015574     -9.083443    -0.067868    Cartesian    0.75
    313 x          9.015574      9.042738     0.027164    Cartesian    0.30
    313 y          0.000000      0.006587     0.006587    Cartesian    0.00
    313 z          9.015574      9.009473    -0.006101    Cartesian   -0.07
    314 x          9.015574      9.010148    -0.005427    Cartesian   -0.06
    314 y          0.000000      0.006661     0.006661    Cartesian    0.00
    314 z         -9.015574     -9.015862    -0.000288    Cartesian    0.00
--------------------------------------------------------------------------------


  Time to end of optimisation  =      103.6545 seconds


  Peak dynamic memory used =      90.26 MB 


  Timing analysis for GULP :

--------------------------------------------------------------------------------
  Task / Subroutine                                          Time (Seconds)
--------------------------------------------------------------------------------
  Calculation of reciprocal space energy and derivatives          0.0008
  Calculation of reciprocal space energy using symmetry           0.0011
  Calculation of real space energy and derivatives                0.0043
  Calculation of real space energy using symmetry                 0.0104
  Calculation for region 1 energy and derivatives (2-b)          55.0207
  Calculation for region 2a energy                               44.5963
  Calculation for region 2b energy                                0.0171
  Calculation and manipulation of Hessian matrix                  0.1532
  Calculation of matrix inversion                                 3.4753
  Symmetry generation of equivalent positions                     0.0052
--------------------------------------------------------------------------------
  Total CPU time                                                103.6546
--------------------------------------------------------------------------------


  Dump file written as Na3OCl.grs


  Job Finished at 23:01.56 30th November   2020                               

