********************************************************************************
*                       GENERAL UTILITY LATTICE PROGRAM                        *
*                                 Julian Gale                                  *
*                       Curtin Institute for Computation                       *
*                    School of Molecular and Life Sciences                     *
*                    Curtin University, Western Australia                      *
********************************************************************************
* Version = 5.2.0 * Last modified =  10th September 2020                       *
********************************************************************************
*  optimise     - perform optimisation run                                     *
*  conp         - constant pressure calculation                                *
*  property     - calculate properties for final geometry                      *
*  defect       - perform defect calculation after bulk run                    *
*  compare      - compare initial and final structures                         *
********************************************************************************

  Job Started  at 23:00.45 30th November   2020                               

  Number of CPUs =     1


  Total number of configurations input =      1

********************************************************************************
*  Input for Configuration =   1                                               *
********************************************************************************

  Formula = ClONa3                                                      

  Number of irreducible atoms/shells =       5


  Total number atoms/shells =       7

  Dimensionality = 3               :  Bulk   


  Symmetry :

  Crystal family                   :  Cubic       
  Crystal class  (Groth - 1921)    :  Cubic Hexakisoctahedral              

  Space group (centrosymmetric)    :  P M 3 M         

  Patterson group                  :  P m -3 m 

  Cartesian lattice vectors (Angstroms) :

        4.504000    0.000000    0.000000
        0.000000    4.504000    0.000000
        0.000000    0.000000    4.504000

  Cell parameters (Angstroms/Degrees):

  a =       4.5040    alpha =  90.0000
  b =       4.5040    beta  =  90.0000
  c =       4.5040    gamma =  90.0000

  Initial cell volume =          91.368216 Angs**3

  Temperature of configuration =   0.00     K 

  Pressure of configuration =         0.000 GPa 

  Fractional coordinates of asymmetric unit :

--------------------------------------------------------------------------------
   No.  Atomic       x           y          z         Charge      Occupancy
        Label      (Frac)      (Frac)     (Frac)        (e)         (Frac)  
--------------------------------------------------------------------------------
      1 Cl    c    0.000000    0.000000    0.000000     1.48500    1.000000    
      2 O     c    0.500000    0.500000    0.500000     0.18300    1.000000    
      3 Na    c    0.500000    0.500000    0.000000     1.00000    1.000000    
      4 Cl    s    0.000000    0.000000    0.000000    -2.48500    1.000000    
      5 O     s    0.500000    0.500000    0.500000    -2.18300    1.000000    
--------------------------------------------------------------------------------


  Constraints : 

--------------------------------------------------------------------------------
  Constraint no.      Unconstrained     Constrained    Coefficient    Offset
                         Variable         Variable
--------------------------------------------------------------------------------
           1              Strain 1        Strain 2       1.00000      0.0000
           2              Strain 1        Strain 3       1.00000      0.0000
--------------------------------------------------------------------------------


********************************************************************************
*  General input information                                                   *
********************************************************************************

  Species output for all configurations : 

--------------------------------------------------------------------------------
  Species    Type    Atomic    Atomic    Charge       Radii (Angs)     Library
                     Number     Mass       (e)     Cova   Ionic  VDW   Symbol
--------------------------------------------------------------------------------
    Na       Core       11      22.99   1.000000   0.970  0.000  2.300          
    O        Core        8      16.00   0.183000   0.730  0.000  1.360          
    O        Shell       8       0.00  -2.183000   0.730  0.000  1.360          
    Cl       Core       17      35.45   1.485000   0.990  0.000  1.650          
    Cl       Shell      17       0.00  -2.485000   0.990  0.000  1.650          
    Mg       Core       12      24.31   0.415000   1.100  0.000  0.000          
    Mg       Shell      12       0.00   1.585000   1.100  0.000  0.000          
    Ca       Core       20      40.08  -1.135000   0.990  0.000  0.000          
    Ca       Shell      20       0.00   3.135000   0.990  0.000  0.000          
    Sr       Core       38      87.62  -1.251000   1.120  0.000  0.000          
    Sr       Shell      38       0.00   3.251000   1.120  0.000  0.000          
    Ba       Core       56     137.33  -7.203000   1.340  0.000  0.000          
    Ba       Shell      56       0.00   9.203000   1.340  0.000  0.000          
--------------------------------------------------------------------------------


  Lattice summation method               =    Ewald          (3-D)
                                         =    Parry          (2-D)
                                         =    Saunders et al (1-D)
  Accuracy factor for lattice sums       =   12.000


  Analytic derivatives to be used

  Time limit = Infinity

  Maximum range for interatomic potentials =    100000.000000 Angstroms

  General interatomic potentials :

--------------------------------------------------------------------------------
Atom  Types   Potential      Parameter       Value         Units   Cutoffs(Ang)
  1     2                                                            Min /  Max 
--------------------------------------------------------------------------------
O    c O    s Spring (c-s)  Spring k 2       593.71600    eV*Ang^-2 0.000  0.800
                            Spring k 4       0.0000000    eV*Ang^-4 
--------------------------------------------------------------------------------
Cl   c Cl   s Spring (c-s)  Spring k 2       29.380000    eV*Ang^-2 0.000  0.800
                            Spring k 4       0.0000000    eV*Ang^-4 
--------------------------------------------------------------------------------
Mg   c Mg   s Spring (c-s)  Spring k 2       361.60000    eV*Ang^-2 0.000  0.800
                            Spring k 4       0.0000000    eV*Ang^-4 
--------------------------------------------------------------------------------
Ca   c Ca   s Spring (c-s)  Spring k 2       110.20000    eV*Ang^-2 0.000  0.800
                            Spring k 4       0.0000000    eV*Ang^-4 
--------------------------------------------------------------------------------
Sr   c Sr   s Spring (c-s)  Spring k 2       71.700000    eV*Ang^-2 0.000  0.800
                            Spring k 4       0.0000000    eV*Ang^-4 
--------------------------------------------------------------------------------
Ba   c Ba   s Spring (c-s)  Spring k 2       495.20000    eV*Ang^-2 0.000  0.800
                            Spring k 4       0.0000000    eV*Ang^-4 
--------------------------------------------------------------------------------
Na   c Na   c Buckingham    Buckingham A     1788.1900    eV        0.000 12.000
                            Buckingham rho  0.15900000    Ang       
                            Buckingham C     0.0000000    eV*Ang^6  
--------------------------------------------------------------------------------
Na   c O    s Buckingham    Buckingham A     1226.8400    eV        0.000 12.000
                            Buckingham rho  0.30700000    Ang       
                            Buckingham C     0.0000000    eV*Ang^6  
--------------------------------------------------------------------------------
Na   c Cl   s Buckingham    Buckingham A     2314.7000    eV        0.000 12.000
                            Buckingham rho  0.29000000    Ang       
                            Buckingham C     0.0000000    eV*Ang^6  
--------------------------------------------------------------------------------
O    s O    s Buckingham    Buckingham A     22764.300    eV        0.000 12.000
                            Buckingham rho  0.14900000    Ang       
                            Buckingham C     13.190000    eV*Ang^6  
--------------------------------------------------------------------------------
O    s Cl   s Buckingham    Buckingham A     8286.9100    eV        0.000 12.000
                            Buckingham rho  0.25900000    Ang       
                            Buckingham C     62.200000    eV*Ang^6  
--------------------------------------------------------------------------------
Cl   s Cl   s Buckingham    Buckingham A     1227.2000    eV        0.000 12.000
                            Buckingham rho  0.32100000    Ang       
                            Buckingham C     14.530000    eV*Ang^6  
--------------------------------------------------------------------------------
O    s Mg   s Buckingham    Buckingham A     1428.5000    eV        0.000 12.000
                            Buckingham rho  0.29450000    Ang       
                            Buckingham C     0.0000000    eV*Ang^6  
--------------------------------------------------------------------------------
Mg   s Cl   s Buckingham    Buckingham A     4914.5400    eV        0.000 12.000
                            Buckingham rho  0.25700000    Ang       
                            Buckingham C     0.0000000    eV*Ang^6  
--------------------------------------------------------------------------------
O    s Ca   s Buckingham    Buckingham A     1090.4000    eV        0.000 12.000
                            Buckingham rho  0.34370000    Ang       
                            Buckingham C     0.0000000    eV*Ang^6  
--------------------------------------------------------------------------------
Cl   s Ca   s Buckingham    Buckingham A     2302.0000    eV        0.000 12.000
                            Buckingham rho  0.34020000    Ang       
                            Buckingham C     0.0000000    eV*Ang^6  
--------------------------------------------------------------------------------
O    s Sr   s Buckingham    Buckingham A     959.10000    eV        0.000 12.000
                            Buckingham rho  0.37210000    Ang       
                            Buckingham C     0.0000000    eV*Ang^6  
--------------------------------------------------------------------------------
Cl   s Sr   s Buckingham    Buckingham A     2191.0900    eV        0.000 12.000
                            Buckingham rho  0.34570000    Ang       
                            Buckingham C     0.0000000    eV*Ang^6  
--------------------------------------------------------------------------------
O    s Ba   s Buckingham    Buckingham A     905.70000    eV        0.000 12.000
                            Buckingham rho  0.39760000    Ang       
                            Buckingham C     0.0000000    eV*Ang^6  
--------------------------------------------------------------------------------
Cl   s Ba   s Buckingham    Buckingham A     2704.5500    eV        0.000 12.000
                            Buckingham rho  0.35280000    Ang       
                            Buckingham C     0.0000000    eV*Ang^6  
--------------------------------------------------------------------------------

********************************************************************************
*  Output for configuration   1                                                *
********************************************************************************


  Components of energy : 

--------------------------------------------------------------------------------
  Interatomic potentials     =           5.13022605 eV    
  Monopole - monopole (real) =         -10.03624526 eV    
  Monopole - monopole (recip)=         -29.53581274 eV    
  Monopole - monopole (total)=         -39.57205800 eV    
--------------------------------------------------------------------------------
  Total lattice energy       =         -34.44183194 eV    
--------------------------------------------------------------------------------
  Total lattice energy       =           -3323.1103 kJ/(mole unit cells)
--------------------------------------------------------------------------------


  Number of variables =        1

  Maximum number of calculations  =          1000
  Maximum Hessian update interval =            10
  Maximum step size               =   1.000000000
  Maximum parameter tolerance     =   0.000010000
  Maximum function  tolerance     =   0.000010000
  Maximum gradient  tolerance     =   0.001000000
  Maximum gradient  component     =   0.010000000

  Symmetry constrained optimisation

  Symmetry used for second derivatives

  Cell parameters to be optimised using strains

  Newton-Raphson optimiser to be used

  BFGS hessian update to be used

  Lower half triangular hessian to be used

  Start of bulk optimisation :

  Cycle:      0 Energy:       -34.441832  Gnorm:      0.196570  CPU:    0.016
  ** Hessian calculated **
  Cycle:      1 Energy:       -34.441914  Gnorm:      0.000103  CPU:    0.020


  **** Optimisation achieved ****


  Final energy =     -34.44191447 eV
  Final Gnorm  =       0.00000000

  Components of energy : 

--------------------------------------------------------------------------------
  Interatomic potentials     =           5.09689708 eV    
  Monopole - monopole (real) =         -10.02781331 eV    
  Monopole - monopole (recip)=         -29.51099824 eV    
  Monopole - monopole (total)=         -39.53881155 eV    
--------------------------------------------------------------------------------
  Total lattice energy       =         -34.44191447 eV    
--------------------------------------------------------------------------------
  Total lattice energy       =           -3323.1183 kJ/(mole unit cells)
--------------------------------------------------------------------------------

  Final asymmetric unit coordinates :

--------------------------------------------------------------------------------
   No.  Atomic        x           y           z         Radius
        Label       (Frac)      (Frac)      (Frac)       (Angs) 
--------------------------------------------------------------------------------
     1  Cl    c     0.000000    0.000000    0.000000    0.000000
     2  O     c     0.500000    0.500000    0.500000    0.000000
     3  Na    c     0.500000    0.500000    0.000000    0.000000
     4  Cl    s     0.000000    0.000000    0.000000    0.000000
     5  O     s     0.500000    0.500000    0.500000    0.000000
--------------------------------------------------------------------------------

  Final Cartesian lattice vectors (Angstroms) :

        4.507787    0.000000    0.000000
        0.000000    4.507787    0.000000
        0.000000    0.000000    4.507787


  Final cell parameters and derivatives :

--------------------------------------------------------------------------------
       a            4.507787 Angstrom     dE/de1(xx)     0.000000 eV/strain
       b            4.507787 Angstrom     dE/de2(yy)     0.000000 eV/strain
       c            4.507787 Angstrom     dE/de3(zz)     0.000000 eV/strain
       alpha       90.000000 Degrees      dE/de4(yz)     0.000000 eV/strain
       beta        90.000000 Degrees      dE/de5(xz)     0.000000 eV/strain
       gamma       90.000000 Degrees      dE/de6(xy)     0.000000 eV/strain
--------------------------------------------------------------------------------

  Primitive cell volume =            91.598892 Angs**3

  Density of cell =      2.183054 g/cm**3

  Non-primitive cell volume =            91.598892 Angs**3


  Final internal derivatives :

--------------------------------------------------------------------------------
   No.  Atomic          a             b             c           Radius
        Label          (eV)          (eV)          (eV)        (eV/Angs)
--------------------------------------------------------------------------------
      1 Cl    c       0.000000      0.000000      0.000000      0.000000
      2 O     c       0.000000      0.000000      0.000000      0.000000
      3 Na    c       0.000000      0.000000      0.000000      0.000000
      4 Cl    s       0.000000      0.000000      0.000000      0.000000
      5 O     s       0.000000      0.000000      0.000000      0.000000
--------------------------------------------------------------------------------
  Maximum abs         0.000000      0.000000      0.000000      0.000000
--------------------------------------------------------------------------------

  Comparison of initial and final structures : 

--------------------------------------------------------------------------------
  Parameter   Initial value   Final value   Difference    Units      Percent
--------------------------------------------------------------------------------
    Volume        91.368216     91.598892     0.230676    Angs**3      0.25
    a              4.504000      4.507787     0.003787    Angstroms    0.08
    b              4.504000      4.507787     0.003787    Angstroms    0.08
    c              4.504000      4.507787     0.003787    Angstroms    0.08
    alpha         90.000000     90.000000     0.000000    Degrees      0.00
    beta          90.000000     90.000000     0.000000    Degrees      0.00
    gamma         90.000000     90.000000     0.000000    Degrees      0.00
      1 x          0.000000      0.000000     0.000000    Fractional   0.00
      1 y          0.000000      0.000000     0.000000    Fractional   0.00
      1 z          0.000000      0.000000     0.000000    Fractional   0.00
      2 x          0.500000      0.500000     0.000000    Fractional   0.00
      2 y          0.500000      0.500000     0.000000    Fractional   0.00
      2 z          0.500000      0.500000     0.000000    Fractional   0.00
      3 x          0.500000      0.500000     0.000000    Fractional   0.00
      3 y          0.500000      0.500000     0.000000    Fractional   0.00
      3 z          0.000000      0.000000     0.000000    Fractional   0.00
      4 x          0.000000      0.000000     0.000000    Fractional   0.00
      4 y          0.000000      0.000000     0.000000    Fractional   0.00
      4 z          0.000000      0.000000     0.000000    Fractional   0.00
      5 x          0.500000      0.500000     0.000000    Fractional   0.00
      5 y          0.500000      0.500000     0.000000    Fractional   0.00
      5 z          0.500000      0.500000     0.000000    Fractional   0.00
--------------------------------------------------------------------------------


  Born effective charge tensors : 

-------------------------------------------------------------------------------
  Atom             x           y             z
-------------------------------------------------------------------------------
    1 Cl    x      -1.0181     -0.0000      0.0000
            y      -0.0000     -1.0181      0.0000
            z       0.0000      0.0000     -1.0181
-------------------------------------------------------------------------------
    2 O     x      -2.2647      0.0000     -0.0000
            y       0.0000     -2.2647     -0.0000
            z      -0.0000     -0.0000     -2.2647
-------------------------------------------------------------------------------
    3 Na    x       1.2258     -0.0000      0.0000
            y      -0.0000      1.2258     -0.0000
            z       0.0000     -0.0000      0.8313
-------------------------------------------------------------------------------




  Elastic Constant Matrix: (Units=GPa)

-------------------------------------------------------------------------------
  Indices      1         2         3         4         5         6    
-------------------------------------------------------------------------------
       1     95.8177   20.0737   20.0737   -0.0000   -0.0000    0.0000
       2     20.0737   95.8177   20.0737   -0.0000   -0.0000    0.0000
       3     20.0737   20.0737   95.8177   -0.0000   -0.0000    0.0000
       4     -0.0000   -0.0000   -0.0000   20.0737   -0.0000    0.0000
       5     -0.0000   -0.0000   -0.0000   -0.0000   20.0737    0.0000
       6      0.0000    0.0000    0.0000    0.0000    0.0000   20.0737
-------------------------------------------------------------------------------


  Elastic Compliance Matrix: (Units=1/GPa)

-------------------------------------------------------------------------------
  Indices      1         2         3         4         5         6    
-------------------------------------------------------------------------------
       1    0.011253 -0.001949 -0.001949  0.000000  0.000000 -0.000000
       2   -0.001949  0.011253 -0.001949  0.000000  0.000000  0.000000
       3   -0.001949 -0.001949  0.011253  0.000000  0.000000 -0.000000
       4    0.000000  0.000000  0.000000  0.049816  0.000000 -0.000000
       5    0.000000  0.000000  0.000000  0.000000  0.049816 -0.000000
       6   -0.000000  0.000000 -0.000000 -0.000000 -0.000000  0.049816
-------------------------------------------------------------------------------

  Mechanical properties :

-------------------------------------------------------------------------------
  Convention :                    Reuss         Voigt         Hill
-------------------------------------------------------------------------------
  Bulk  Modulus (GPa)     =      45.32174      45.32174      45.32174
  Shear Modulus (GPa)     =      24.72085      27.19304      25.95695
-------------------------------------------------------------------------------
  Velocity S-wave (km/s)  =       3.36511       3.52937       3.44822
  Velocity P-wave (km/s)  =       5.98827       6.11304       6.05098
-------------------------------------------------------------------------------
  Compressibility (1/GPa) =    0.02206447
-------------------------------------------------------------------------------
  Stress axis :                     x             y             z
-------------------------------------------------------------------------------
  Youngs Moduli (GPa)     =      88.86373      88.86373      88.86373
-------------------------------------------------------------------------------
  Poissons Ratio (x)      =                     0.17321       0.17321
  Poissons Ratio (y)      =       0.17321                     0.17321
  Poissons Ratio (z)      =       0.17321       0.17321
-------------------------------------------------------------------------------


  Piezoelectric Strain Matrix: (Units=C/m**2)

-------------------------------------------------------------------------------
  Indices      1         2         3         4         5         6    
-------------------------------------------------------------------------------
       x    -0.00000  -0.00000  -0.00000   0.00000  -0.00000  -0.00000
       y    -0.00000  -0.00000   0.00000  -0.00000   0.00000   0.00000
       z    -0.00000  -0.00000  -0.00000  -0.00000   0.00000   0.00000
-------------------------------------------------------------------------------


  Piezoelectric Stress Matrix: (Units=10**-11 C/N)

-------------------------------------------------------------------------------
  Indices      1         2         3         4         5         6    
-------------------------------------------------------------------------------
       x    -0.00000   0.00000   0.00000   0.00000  -0.00000  -0.00000
       y    -0.00000  -0.00000   0.00000  -0.00000   0.00000   0.00000
       z     0.00000   0.00000  -0.00000  -0.00000   0.00000   0.00000
-------------------------------------------------------------------------------


  Static dielectric constant tensor : 

-------------------------------------------------------------------------------
              x         y         z
-------------------------------------------------------------------------------
       x    22.84729   0.00000   0.00000
       y     0.00000  22.84729  -0.00000
       z     0.00000  -0.00000  22.84729
--------------------------------------------------------------------------------

  High frequency dielectric constant tensor : 

-------------------------------------------------------------------------------
              x         y         z
-------------------------------------------------------------------------------
       x     1.47557   0.00000  -0.00000
       y     0.00000   1.47557  -0.00000
       z    -0.00000  -0.00000   1.47557
-------------------------------------------------------------------------------

  Static refractive indices : 

-------------------------------------------------------------------------------
    1 =    4.77988      2 =    4.77988      3 =    4.77988
-------------------------------------------------------------------------------

  High frequency refractive indices : 

-------------------------------------------------------------------------------
    1 =    1.21473      2 =    1.21473      3 =    1.21473
-------------------------------------------------------------------------------


  Time to end of optimisation =       0.0297 seconds

********************************************************************************
*  Defect calculation for configuration   1 :                                  *
********************************************************************************

  Total number of defects =      3

  Total charge on defect  =  -1.00

  Defect centre is at   0.5000   0.0700   0.4300  Frac

  Region 1 radius =  12.0000      Number of ions =    562

  Number of symmetry inequivalent region 1 ions  =    327

  Region 2 radius =  16.0000      Number of ions =    743

  Number of symmetry inequivalent region 2a ions =    403

  Region 2a mode = 4 : screened electrostatics due to region 1 
                       neglect correction to region 1 forces from 2a
                       region 2a displacements based on defects only

  Region 2a ions will only interact with defects in region 1

  Vacancies:

--------------------------------------------------------------------------------
    Specification type     Symbol/Number         x          y          z
--------------------------------------------------------------------------------
    Fractional                               0.500000   0.500000   0.000000
    Fractional                               0.500000   0.000000   0.500000
--------------------------------------------------------------------------------

  Interstitials:

--------------------------------------------------------------------------------
    Specification type     Symbol/Number         x          y          z
--------------------------------------------------------------------------------
    Atom/Fractional         Na               0.500000   0.070000   0.430000
--------------------------------------------------------------------------------


  Symmetry reduced region 1 (Relative to defect centre) :

--------------------------------------------------------------------------------
   No.   Atomic       x            y             z       Radius  Multiplicity   
         Label      (Angs)       (Angs)        (Angs)    (Angs)     
--------------------------------------------------------------------------------
     1  Na    c      0.0000       0.0000 *     0.0000 *  0.0000     1    Defect
     2  O     c      0.0000       1.9383 *     0.3155 *  0.0000     1          
     3  O     c      0.0000      -2.5694 *     0.3155 *  0.0000     1          
     4  Na    c      2.2539 *     1.9383 *     0.3155 *  0.0000     2          
     5  Cl    c      2.2539 *    -0.3155 *    -1.9383 *  0.0000     2          
     6  Na    c      0.0000       1.9383 *     2.5694 *  0.0000     1          
     7  Na    c      0.0000      -2.5694 *    -1.9383 *  0.0000     1          
     8  Cl    c      2.2539 *    -0.3155 *     2.5694 *  0.0000     2          
     9  Na    c      2.2539 *    -2.5694 *     0.3155 *  0.0000     2          
    10  Na    c      0.0000      -2.5694 *     2.5694 *  0.0000     1          
    11  Na    c      0.0000      -0.3155 *    -4.1922 *  0.0000     1          
    12  Na    c      0.0000       4.1922 *     0.3155 *  0.0000     1          
    13  Na    c     -4.5078 *    -0.3155 *     0.3155 *  0.0000     2          
    14  O     c      0.0000       1.9383 *    -4.1922 *  0.0000     1          
    15  Na    c      0.0000      -0.3155 *     4.8233 *  0.0000     1          
    16  Na    c      0.0000      -4.8233 *     0.3155 *  0.0000     1          
    17  O     c     -4.5078 *     1.9383 *     0.3155 *  0.0000     2          
    18  O     c      0.0000      -2.5694 *    -4.1922 *  0.0000     1          
    19  Na    c      2.2539 *     1.9383 *    -4.1922 *  0.0000     2          
    20  Cl    c      2.2539 *     4.1922 *    -1.9383 *  0.0000     2          
    21  O     c      0.0000       1.9383 *     4.8233 *  0.0000     1          
    22  O     c     -4.5078 *    -2.5694 *     0.3155 *  0.0000     2          
    23  Na    c     -4.5078 *     1.9383 *    -1.9383 *  0.0000     2          
    24  Cl    c      2.2539 *     4.1922 *     2.5694 *  0.0000     2          
    25  Na    c      2.2539 *    -2.5694 *    -4.1922 *  0.0000     2          
    26  O     c      0.0000      -2.5694 *     4.8233 *  0.0000     1          
    27  Na    c     -4.5078 *     1.9383 *     2.5694 *  0.0000     2          
    28  Na    c     -4.5078 *    -2.5694 *    -1.9383 *  0.0000     2          
    29  Na    c      2.2539 *     1.9383 *     4.8233 *  0.0000     2          
    30  Cl    c      2.2539 *    -4.8233 *    -1.9383 *  0.0000     2          
    31  Na    c     -4.5078 *    -2.5694 *     2.5694 *  0.0000     2          
    32  Cl    c      2.2539 *    -4.8233 *     2.5694 *  0.0000     2          
    33  Na    c      2.2539 *    -2.5694 *     4.8233 *  0.0000     2          
    34  Na    c      0.0000       4.1922 *    -4.1922 *  0.0000     1          
    35  Na    c     -4.5078 *    -0.3155 *    -4.1922 *  0.0000     2          
    36  Na    c     -4.5078 *     4.1922 *     0.3155 *  0.0000     2          
    37  Na    c      0.0000       4.1922 *     4.8233 *  0.0000     1          
    38  Na    c      0.0000      -4.8233 *    -4.1922 *  0.0000     1          
    39  O     c      0.0000       6.4461 *     0.3155 *  0.0000     1          
    40  O     c     -4.5078 *     1.9383 *    -4.1922 *  0.0000     2          
    41  Na    c     -4.5078 *    -0.3155 *     4.8233 *  0.0000     2          
    42  Na    c     -4.5078 *    -4.8233 *     0.3155 *  0.0000     2          
    43  O     c      4.5078 *    -2.5694 *    -4.1922 *  0.0000     2          
    44  Na    c      0.0000       1.9383 *    -6.4461 *  0.0000     1          
    45  Na    c      0.0000       6.4461 *    -1.9383 *  0.0000     1          
    46  Na    c      0.0000      -4.8233 *     4.8233 *  0.0000     1          
    47  Cl    c      2.2539 *    -0.3155 *    -6.4461 *  0.0000     2          
    48  Na    c      2.2539 *     6.4461 *     0.3155 *  0.0000     2          
    49  O     c     -4.5078 *     1.9383 *     4.8233 *  0.0000     2          
    50  Na    c      0.0000      -2.5694 *    -6.4461 *  0.0000     1          
    51  Na    c      0.0000       6.4461 *     2.5694 *  0.0000     1          
    52  Cl    c      6.7617 *    -0.3155 *    -1.9383 *  0.0000     2          
    53  Na    c      6.7617 *     1.9383 *     0.3155 *  0.0000     2          
    54  O     c      0.0000      -7.0772 *     0.3155 *  0.0000     1          
    55  O     c      4.5078 *    -2.5694 *     4.8233 *  0.0000     2          
    56  Cl    c      6.7617 *    -0.3155 *     2.5694 *  0.0000     2          
    57  Na    c      6.7617 *    -2.5694 *     0.3155 *  0.0000     2          
    58  Na    c      0.0000       1.9383 *     7.0772 *  0.0000     1          
    59  Na    c      0.0000      -7.0772 *    -1.9383 *  0.0000     1          
    60  Cl    c      2.2539 *    -0.3155 *     7.0772 *  0.0000     2          
    61  Na    c      2.2539 *    -7.0772 *     0.3155 *  0.0000     2          
    62  Na    c      4.5078 *     4.1922 *    -4.1922 *  0.0000     2          
    63  Na    c      0.0000      -2.5694 *     7.0772 *  0.0000     1          
    64  Na    c      0.0000      -7.0772 *     2.5694 *  0.0000     1          
    65  O     c      0.0000       6.4461 *    -4.1922 *  0.0000     1          
    66  Na    c      4.5078 *     4.1922 *     4.8233 *  0.0000     2          
    67  Na    c      4.5078 *    -4.8233 *    -4.1922 *  0.0000     2          
    68  O     c      4.5078 *     6.4461 *     0.3155 *  0.0000     2          
    69  Cl    c      2.2539 *     4.1922 *    -6.4461 *  0.0000     2          
    70  Na    c      2.2539 *     6.4461 *    -4.1922 *  0.0000     2          
    71  O     c      0.0000       6.4461 *     4.8233 *  0.0000     1          
    72  Na    c     -4.5078 *     1.9383 *    -6.4461 *  0.0000     2          
    73  Na    c      4.5078 *     6.4461 *    -1.9383 *  0.0000     2          
    74  Na    c      4.5078 *    -4.8233 *     4.8233 *  0.0000     2          
    75  Na    c      6.7617 *     1.9383 *    -4.1922 *  0.0000     2          
    76  Cl    c      6.7617 *     4.1922 *    -1.9383 *  0.0000     2          
    77  O     c      0.0000      -7.0772 *    -4.1922 *  0.0000     1          
    78  Na    c      4.5078 *    -2.5694 *    -6.4461 *  0.0000     2          
    79  Na    c      4.5078 *     6.4461 *     2.5694 *  0.0000     2          
    80  Cl    c      2.2539 *    -4.8233 *    -6.4461 *  0.0000     2          
    81  Na    c      2.2539 *     6.4461 *     4.8233 *  0.0000     2          
    82  Cl    c      6.7617 *     4.1922 *     2.5694 *  0.0000     2          
    83  Na    c      6.7617 *    -2.5694 *    -4.1922 *  0.0000     2          
    84  O     c      4.5078 *    -7.0772 *     0.3155 *  0.0000     2          
    85  Cl    c      2.2539 *     4.1922 *     7.0772 *  0.0000     2          
    86  Na    c      2.2539 *    -7.0772 *    -4.1922 *  0.0000     2          
    87  Na    c      6.7617 *     1.9383 *     4.8233 *  0.0000     2          
    88  Cl    c      6.7617 *    -4.8233 *    -1.9383 *  0.0000     2          
    89  O     c      0.0000      -7.0772 *     4.8233 *  0.0000     1          
    90  Na    c     -4.5078 *     1.9383 *     7.0772 *  0.0000     2          
    91  Na    c      4.5078 *    -7.0772 *    -1.9383 *  0.0000     2          
    92  Cl    c      6.7617 *    -4.8233 *     2.5694 *  0.0000     2          
    93  Na    c      6.7617 *    -2.5694 *     4.8233 *  0.0000     2          
    94  Na    c      0.0000      -0.3155 *    -8.7000 *  0.0000     1          
    95  Na    c      0.0000       8.7000 *     0.3155 *  0.0000     1          
    96  Na    c      4.5078 *    -2.5694 *     7.0772 *  0.0000     2          
    97  Na    c      4.5078 *    -7.0772 *     2.5694 *  0.0000     2          
    98  Cl    c      2.2539 *    -4.8233 *     7.0772 *  0.0000     2          
    99  Na    c      2.2539 *    -7.0772 *     4.8233 *  0.0000     2          
   100  O     c      0.0000       1.9383 *    -8.7000 *  0.0000     1          
   101  O     c      4.5078 *     6.4461 *    -4.1922 *  0.0000     2          
   102  Na    c      9.0156 *    -0.3155 *     0.3155 *  0.0000     2          
   103  O     c      0.0000      -2.5694 *    -8.7000 *  0.0000     1          
   104  Na    c      0.0000       6.4461 *    -6.4461 *  0.0000     1          
   105  Cl    c      2.2539 *     8.7000 *    -1.9383 *  0.0000     2          
   106  Na    c      2.2539 *     1.9383 *    -8.7000 *  0.0000     2          
   107  O     c      4.5078 *     6.4461 *     4.8233 *  0.0000     2          
   108  O     c      9.0156 *     1.9383 *     0.3155 *  0.0000     2          
   109  Na    c      0.0000      -0.3155 *     9.3311 *  0.0000     1          
   110  Na    c      0.0000      -9.3311 *     0.3155 *  0.0000     1          
   111  Cl    c      6.7617 *    -0.3155 *    -6.4461 *  0.0000     2          
   112  Na    c      6.7617 *     6.4461 *     0.3155 *  0.0000     2          
   113  Cl    c      2.2539 *     8.7000 *     2.5694 *  0.0000     2          
   114  Na    c      2.2539 *    -2.5694 *    -8.7000 *  0.0000     2          
   115  O     c      4.5078 *    -7.0772 *    -4.1922 *  0.0000     2          
   116  O     c      9.0156 *    -2.5694 *     0.3155 *  0.0000     2          
   117  Na    c      9.0156 *     1.9383 *    -1.9383 *  0.0000     2          
   118  O     c      0.0000       1.9383 *     9.3311 *  0.0000     1          
   119  Na    c      0.0000       6.4461 *     7.0772 *  0.0000     1          
   120  Na    c      0.0000      -7.0772 *    -6.4461 *  0.0000     1          
   121  Na    c      9.0156 *     1.9383 *     2.5694 *  0.0000     2          
   122  Na    c      9.0156 *    -2.5694 *    -1.9383 *  0.0000     2          
   123  Na    c      0.0000       4.1922 *    -8.7000 *  0.0000     1          
   124  Na    c      0.0000       8.7000 *    -4.1922 *  0.0000     1          
   125  O     c      0.0000      -2.5694 *     9.3311 *  0.0000     1          
   126  O     c      4.5078 *    -7.0772 *     4.8233 *  0.0000     2          
   127  Na    c      9.0156 *    -2.5694 *     2.5694 *  0.0000     2          
   128  Cl    c      2.2539 *    -9.3311 *    -1.9383 *  0.0000     2          
   129  Na    c      2.2539 *     1.9383 *     9.3311 *  0.0000     2          
   130  Cl    c      6.7617 *    -0.3155 *     7.0772 *  0.0000     2          
   131  Na    c      6.7617 *    -7.0772 *     0.3155 *  0.0000     2          
   132  Na    c      4.5078 *    -0.3155 *    -8.7000 *  0.0000     2          
   133  Na    c     -4.5078 *     8.7000 *     0.3155 *  0.0000     2          
   134  Cl    c      2.2539 *    -9.3311 *     2.5694 *  0.0000     2          
   135  Na    c      2.2539 *    -2.5694 *     9.3311 *  0.0000     2          
   136  Na    c      0.0000       8.7000 *     4.8233 *  0.0000     1          
   137  Na    c      0.0000      -4.8233 *    -8.7000 *  0.0000     1          
   138  Na    c      9.0156 *    -0.3155 *    -4.1922 *  0.0000     2          
   139  Na    c      9.0156 *     4.1922 *     0.3155 *  0.0000     2          
   140  O     c      4.5078 *     1.9383 *    -8.7000 *  0.0000     2          
   141  Na    c      0.0000      -7.0772 *     7.0772 *  0.0000     1          
   142  O     c      9.0156 *     1.9383 *    -4.1922 *  0.0000     2          
   143  O     c      4.5078 *    -2.5694 *    -8.7000 *  0.0000     2          
   144  Na    c      4.5078 *     6.4461 *    -6.4461 *  0.0000     2          
   145  Na    c      0.0000       4.1922 *     9.3311 *  0.0000     1          
   146  Na    c      0.0000      -9.3311 *    -4.1922 *  0.0000     1          
   147  Na    c      9.0156 *    -0.3155 *     4.8233 *  0.0000     2          
   148  Na    c      9.0156 *    -4.8233 *     0.3155 *  0.0000     2          
   149  Na    c      6.7617 *     6.4461 *    -4.1922 *  0.0000     2          
   150  Cl    c      6.7617 *     4.1922 *    -6.4461 *  0.0000     2          
   151  O     c      9.0156 *    -2.5694 *    -4.1922 *  0.0000     2          
   152  Na    c      4.5078 *    -0.3155 *     9.3311 *  0.0000     2          
   153  Na    c     -4.5078 *    -9.3311 *     0.3155 *  0.0000     2          
   154  O     c      9.0156 *     1.9383 *     4.8233 *  0.0000     2          
   155  Na    c      0.0000      -4.8233 *     9.3311 *  0.0000     1          
   156  Na    c      0.0000      -9.3311 *     4.8233 *  0.0000     1          
   157  Na    c      6.7617 *     6.4461 *     4.8233 *  0.0000     2          
   158  Cl    c      6.7617 *    -4.8233 *    -6.4461 *  0.0000     2          
   159  O     c      4.5078 *     1.9383 *     9.3311 *  0.0000     2          
   160  O     c      9.0156 *    -2.5694 *     4.8233 *  0.0000     2          
   161  Na    c      4.5078 *     6.4461 *     7.0772 *  0.0000     2          
   162  Na    c      4.5078 *    -7.0772 *    -6.4461 *  0.0000     2          
   163  Cl    c      6.7617 *     4.1922 *     7.0772 *  0.0000     2          
   164  Na    c      6.7617 *    -7.0772 *    -4.1922 *  0.0000     2          
   165  Na    c     -4.5078 *     4.1922 *    -8.7000 *  0.0000     2          
   166  Na    c     -4.5078 *     8.7000 *    -4.1922 *  0.0000     2          
   167  O     c      4.5078 *    -2.5694 *     9.3311 *  0.0000     2          
   168  Na    c      9.0156 *     4.1922 *    -4.1922 *  0.0000     2          
   169  O     c      0.0000       6.4461 *    -8.7000 *  0.0000     1          
   170  Cl    c      6.7617 *    -4.8233 *     7.0772 *  0.0000     2          
   171  Na    c      6.7617 *    -7.0772 *     4.8233 *  0.0000     2          
   172  Na    c     -4.5078 *     8.7000 *     4.8233 *  0.0000     2          
   173  Na    c     -4.5078 *    -4.8233 *    -8.7000 *  0.0000     2          
   174  O     c      0.0000      10.9539 *     0.3155 *  0.0000     1          
   175  Na    c      4.5078 *    -7.0772 *     7.0772 *  0.0000     2          
   176  Na    c      9.0156 *     4.1922 *     4.8233 *  0.0000     2          
   177  Na    c      9.0156 *    -4.8233 *    -4.1922 *  0.0000     2          
   178  Cl    c      2.2539 *     8.7000 *    -6.4461 *  0.0000     2          
   179  Na    c      2.2539 *     6.4461 *    -8.7000 *  0.0000     2          
   180  O     c      9.0156 *     6.4461 *     0.3155 *  0.0000     2          
   181  Na    c      0.0000       1.9383 *   -10.9539 *  0.0000     1          
   182  Na    c      0.0000      10.9539 *    -1.9383 *  0.0000     1          
   183  Na    c     -4.5078 *     4.1922 *     9.3311 *  0.0000     2          
   184  Na    c     -4.5078 *    -9.3311 *    -4.1922 *  0.0000     2          
   185  Cl    c      2.2539 *    -0.3155 *   -10.9539 *  0.0000     2          
   186  Na    c      2.2539 *    10.9539 *     0.3155 *  0.0000     2          
   187  Na    c      6.7617 *     1.9383 *    -8.7000 *  0.0000     2          
   188  Cl    c      6.7617 *     8.7000 *    -1.9383 *  0.0000     2          
   189  O     c      0.0000      -7.0772 *    -8.7000 *  0.0000     1          
   190  Na    c      0.0000      -2.5694 *   -10.9539 *  0.0000     1          
   191  Na    c      0.0000      10.9539 *     2.5694 *  0.0000     1          
   192  Na    c      9.0156 *     1.9383 *    -6.4461 *  0.0000     2          
   193  Na    c      9.0156 *     6.4461 *    -1.9383 *  0.0000     2          
   194  Na    c      9.0156 *    -4.8233 *     4.8233 *  0.0000     2          
   195  Cl    c      6.7617 *     8.7000 *     2.5694 *  0.0000     2          
   196  Na    c      6.7617 *    -2.5694 *    -8.7000 *  0.0000     2          
   197  O     c      0.0000       6.4461 *     9.3311 *  0.0000     1          
   198  Na    c      9.0156 *    -2.5694 *    -6.4461 *  0.0000     2          
   199  Na    c      9.0156 *     6.4461 *     2.5694 *  0.0000     2          
   200  Na    c     -4.5078 *    -9.3311 *     4.8233 *  0.0000     2          
   201  Na    c      4.5078 *    -4.8233 *     9.3311 *  0.0000     2          
   202  Cl    c     11.2695 *    -0.3155 *    -1.9383 *  0.0000     2          
   203  Na    c     11.2695 *     1.9383 *     0.3155 *  0.0000     2          
   204  Cl    c      2.2539 *     8.7000 *     7.0772 *  0.0000     2          
   205  Na    c      2.2539 *    -7.0772 *    -8.7000 *  0.0000     2          
   206  O     c      9.0156 *    -7.0772 *     0.3155 *  0.0000     2          
   207  Cl    c      2.2539 *    -9.3311 *    -6.4461 *  0.0000     2          
   208  Cl    c     11.2695 *    -0.3155 *     2.5694 *  0.0000     2          
   209  Na    c      2.2539 *     6.4461 *     9.3311 *  0.0000     2          
   210  Na    c     11.2695 *    -2.5694 *     0.3155 *  0.0000     2          
   211  O     c      0.0000     -11.5850 *     0.3155 *  0.0000     1          
   212  Na    c      9.0156 *     1.9383 *     7.0772 *  0.0000     2          
   213  Na    c      9.0156 *    -7.0772 *    -1.9383 *  0.0000     2          
   214  Cl    c      6.7617 *    -9.3311 *    -1.9383 *  0.0000     2          
   215  Na    c      6.7617 *     1.9383 *     9.3311 *  0.0000     2          
   216  O     c      0.0000      -7.0772 *     9.3311 *  0.0000     1          
   217  O     c      0.0000      10.9539 *    -4.1922 *  0.0000     1          
   218  O     c      4.5078 *     6.4461 *    -8.7000 *  0.0000     2          
   219  Na    c      9.0156 *    -2.5694 *     7.0772 *  0.0000     2          
   220  Na    c      0.0000       1.9383 *    11.5850 *  0.0000     1          
   221  Na    c      0.0000     -11.5850 *    -1.9383 *  0.0000     1          
   222  Na    c      9.0156 *    -7.0772 *     2.5694 *  0.0000     2          
   223  Cl    c      6.7617 *    -9.3311 *     2.5694 *  0.0000     2          
   224  Cl    c      2.2539 *    -0.3155 *    11.5850 *  0.0000     2          
   225  Na    c      2.2539 *   -11.5850 *     0.3155 *  0.0000     2          
   226  Na    c      6.7617 *    -2.5694 *     9.3311 *  0.0000     2          
   227  O     c      4.5078 *    10.9539 *     0.3155 *  0.0000     2          
   228  O     c      9.0156 *     6.4461 *    -4.1922 *  0.0000     2          
   229  Na    c      0.0000      -2.5694 *    11.5850 *  0.0000     1          
   230  Na    c      0.0000     -11.5850 *     2.5694 *  0.0000     1          
   231  Cl    c      2.2539 *    -9.3311 *     7.0772 *  0.0000     2          
   232  Na    c      2.2539 *    -7.0772 *     9.3311 *  0.0000     2          
   233  Cl    c      2.2539 *     4.1922 *   -10.9539 *  0.0000     2          
   234  Na    c      2.2539 *    10.9539 *    -4.1922 *  0.0000     2          
   235  O     c      0.0000      10.9539 *     4.8233 *  0.0000     1          
   236  O     s      0.0000       1.9383 *     0.3155 *  0.0000     1          
   237  O     s      0.0000      -2.5694 *     0.3155 *  0.0000     1          
   238  Cl    s      2.2539 *    -0.3155 *    -1.9383 *  0.0000     2          
   239  Cl    s      2.2539 *    -0.3155 *     2.5694 *  0.0000     2          
   240  O     s      0.0000       1.9383 *    -4.1922 *  0.0000     1          
   241  O     s     -4.5078 *     1.9383 *     0.3155 *  0.0000     2          
   242  O     s      0.0000      -2.5694 *    -4.1922 *  0.0000     1          
   243  Cl    s      2.2539 *     4.1922 *    -1.9383 *  0.0000     2          
   244  O     s      0.0000       1.9383 *     4.8233 *  0.0000     1          
   245  O     s     -4.5078 *    -2.5694 *     0.3155 *  0.0000     2          
   246  Cl    s      2.2539 *     4.1922 *     2.5694 *  0.0000     2          
   247  O     s      0.0000      -2.5694 *     4.8233 *  0.0000     1          
   248  Cl    s      2.2539 *    -4.8233 *    -1.9383 *  0.0000     2          
   249  Cl    s      2.2539 *    -4.8233 *     2.5694 *  0.0000     2          
   250  O     s      0.0000       6.4461 *     0.3155 *  0.0000     1          
   251  O     s     -4.5078 *     1.9383 *    -4.1922 *  0.0000     2          
   252  O     s      4.5078 *    -2.5694 *    -4.1922 *  0.0000     2          
   253  Cl    s      2.2539 *    -0.3155 *    -6.4461 *  0.0000     2          
   254  O     s     -4.5078 *     1.9383 *     4.8233 *  0.0000     2          
   255  Cl    s      6.7617 *    -0.3155 *    -1.9383 *  0.0000     2          
   256  O     s      0.0000      -7.0772 *     0.3155 *  0.0000     1          
   257  O     s      4.5078 *    -2.5694 *     4.8233 *  0.0000     2          
   258  Cl    s      6.7617 *    -0.3155 *     2.5694 *  0.0000     2          
   259  Cl    s      2.2539 *    -0.3155 *     7.0772 *  0.0000     2          
   260  O     s      0.0000       6.4461 *    -4.1922 *  0.0000     1          
   261  O     s      4.5078 *     6.4461 *     0.3155 *  0.0000     2          
   262  Cl    s      2.2539 *     4.1922 *    -6.4461 *  0.0000     2          
   263  O     s      0.0000       6.4461 *     4.8233 *  0.0000     1          
   264  Cl    s      6.7617 *     4.1922 *    -1.9383 *  0.0000     2          
   265  O     s      0.0000      -7.0772 *    -4.1922 *  0.0000     1          
   266  Cl    s      2.2539 *    -4.8233 *    -6.4461 *  0.0000     2          
   267  Cl    s      6.7617 *     4.1922 *     2.5694 *  0.0000     2          
   268  O     s      4.5078 *    -7.0772 *     0.3155 *  0.0000     2          
   269  Cl    s      2.2539 *     4.1922 *     7.0772 *  0.0000     2          
   270  Cl    s      6.7617 *    -4.8233 *    -1.9383 *  0.0000     2          
   271  O     s      0.0000      -7.0772 *     4.8233 *  0.0000     1          
   272  Cl    s      6.7617 *    -4.8233 *     2.5694 *  0.0000     2          
   273  Cl    s      2.2539 *    -4.8233 *     7.0772 *  0.0000     2          
   274  O     s      0.0000       1.9383 *    -8.7000 *  0.0000     1          
   275  O     s      4.5078 *     6.4461 *    -4.1922 *  0.0000     2          
   276  O     s      0.0000      -2.5694 *    -8.7000 *  0.0000     1          
   277  Cl    s      2.2539 *     8.7000 *    -1.9383 *  0.0000     2          
   278  O     s      4.5078 *     6.4461 *     4.8233 *  0.0000     2          
   279  O     s      9.0156 *     1.9383 *     0.3155 *  0.0000     2          
   280  Cl    s      6.7617 *    -0.3155 *    -6.4461 *  0.0000     2          
   281  Cl    s      2.2539 *     8.7000 *     2.5694 *  0.0000     2          
   282  O     s      4.5078 *    -7.0772 *    -4.1922 *  0.0000     2          
   283  O     s      9.0156 *    -2.5694 *     0.3155 *  0.0000     2          
   284  O     s      0.0000       1.9383 *     9.3311 *  0.0000     1          
   285  O     s      0.0000      -2.5694 *     9.3311 *  0.0000     1          
   286  O     s      4.5078 *    -7.0772 *     4.8233 *  0.0000     2          
   287  Cl    s      2.2539 *    -9.3311 *    -1.9383 *  0.0000     2          
   288  Cl    s      6.7617 *    -0.3155 *     7.0772 *  0.0000     2          
   289  Cl    s      2.2539 *    -9.3311 *     2.5694 *  0.0000     2          
   290  O     s      4.5078 *     1.9383 *    -8.7000 *  0.0000     2          
   291  O     s      9.0156 *     1.9383 *    -4.1922 *  0.0000     2          
   292  O     s      4.5078 *    -2.5694 *    -8.7000 *  0.0000     2          
   293  Cl    s      6.7617 *     4.1922 *    -6.4461 *  0.0000     2          
   294  O     s      9.0156 *    -2.5694 *    -4.1922 *  0.0000     2          
   295  O     s      9.0156 *     1.9383 *     4.8233 *  0.0000     2          
   296  Cl    s      6.7617 *    -4.8233 *    -6.4461 *  0.0000     2          
   297  O     s      4.5078 *     1.9383 *     9.3311 *  0.0000     2          
   298  O     s      9.0156 *    -2.5694 *     4.8233 *  0.0000     2          
   299  Cl    s      6.7617 *     4.1922 *     7.0772 *  0.0000     2          
   300  O     s      4.5078 *    -2.5694 *     9.3311 *  0.0000     2          
   301  O     s      0.0000       6.4461 *    -8.7000 *  0.0000     1          
   302  Cl    s      6.7617 *    -4.8233 *     7.0772 *  0.0000     2          
   303  O     s      0.0000      10.9539 *     0.3155 *  0.0000     1          
   304  Cl    s      2.2539 *     8.7000 *    -6.4461 *  0.0000     2          
   305  O     s      9.0156 *     6.4461 *     0.3155 *  0.0000     2          
   306  Cl    s      2.2539 *    -0.3155 *   -10.9539 *  0.0000     2          
   307  Cl    s      6.7617 *     8.7000 *    -1.9383 *  0.0000     2          
   308  O     s      0.0000      -7.0772 *    -8.7000 *  0.0000     1          
   309  Cl    s      6.7617 *     8.7000 *     2.5694 *  0.0000     2          
   310  O     s      0.0000       6.4461 *     9.3311 *  0.0000     1          
   311  Cl    s     11.2695 *    -0.3155 *    -1.9383 *  0.0000     2          
   312  Cl    s      2.2539 *     8.7000 *     7.0772 *  0.0000     2          
   313  O     s      9.0156 *    -7.0772 *     0.3155 *  0.0000     2          
   314  Cl    s      2.2539 *    -9.3311 *    -6.4461 *  0.0000     2          
   315  Cl    s     11.2695 *    -0.3155 *     2.5694 *  0.0000     2          
   316  O     s      0.0000     -11.5850 *     0.3155 *  0.0000     1          
   317  Cl    s      6.7617 *    -9.3311 *    -1.9383 *  0.0000     2          
   318  O     s      0.0000      -7.0772 *     9.3311 *  0.0000     1          
   319  O     s      0.0000      10.9539 *    -4.1922 *  0.0000     1          
   320  O     s      4.5078 *     6.4461 *    -8.7000 *  0.0000     2          
   321  Cl    s      6.7617 *    -9.3311 *     2.5694 *  0.0000     2          
   322  Cl    s      2.2539 *    -0.3155 *    11.5850 *  0.0000     2          
   323  O     s      4.5078 *    10.9539 *     0.3155 *  0.0000     2          
   324  O     s      9.0156 *     6.4461 *    -4.1922 *  0.0000     2          
   325  Cl    s      2.2539 *    -9.3311 *     7.0772 *  0.0000     2          
   326  Cl    s      2.2539 *     4.1922 *   -10.9539 *  0.0000     2          
   327  O     s      0.0000      10.9539 *     4.8233 *  0.0000     1          
--------------------------------------------------------------------------------

  Components of defect energy : 

--------------------------------------------------------------------------------
  Region 1 - region 1                   =      4.93670532 eV
  Region 1 - region 2a (unrelaxed)      =      3.49940100 eV
  Region 1 - 2a (relaxed - correction)  =     -0.29129009 eV
  Region 1 (Total)                      =      8.14481623 eV
  Region 2a                             =      0.14556267 eV
  Region 2b                             =     -0.43666388 eV
--------------------------------------------------------------------------------
  Total defect energy                   =      7.85371502 eV
--------------------------------------------------------------------------------

  Largest displacement in region 2 =   0.0261 Angstroms


  Number of variables =      889

  Maximum number of calculations  =        1000
  Maximum Hessian update interval =          10
  Maximum step size               =   1.0000000
  Maximum parameter tolerance     =   0.0000100
  Maximum function  tolerance     =   0.0000100
  Maximum gradient  tolerance     =   0.0010000

  Symmetry adapted optimisation

  Symmetry to be used for second derivatives

  Newton-Raphson optimiser to be used

  BFGS hessian update to be used

  Lower half triangular hessian to be used

  Start of defect optimisation :

  Cycle:      0 Defect Energy:   7.853715  Gnorm:     0.018594  CPU:    3.013
  ** Hessian calculated **
  Cycle:      1 Defect Energy:   6.149640  Gnorm:     0.007877  CPU:    7.877
  Cycle:      2 Defect Energy:   5.467627  Gnorm:     0.005429  CPU:   12.038
  Cycle:      3 Defect Energy:   5.327754  Gnorm:     0.003173  CPU:   19.189
  Cycle:      4 Defect Energy:   5.261149  Gnorm:     0.003290  CPU:   20.388
  Cycle:      5 Defect Energy:   5.169311  Gnorm:     0.002570  CPU:   21.640
  Cycle:      6 Defect Energy:   5.068535  Gnorm:     0.002044  CPU:   22.793
  Cycle:      7 Defect Energy:   4.996148  Gnorm:     0.001914  CPU:   23.921
  Cycle:      8 Defect Energy:   4.931943  Gnorm:     0.001734  CPU:   25.032
  Cycle:      9 Defect Energy:   4.872605  Gnorm:     0.001775  CPU:   26.129
  Cycle:     10 Defect Energy:   4.818482  Gnorm:     0.001839  CPU:   27.319
  ** Hessian calculated **
  Cycle:     11 Defect Energy:   4.798805  Gnorm:     0.001558  CPU:   30.057
  Cycle:     12 Defect Energy:   4.774337  Gnorm:     0.001476  CPU:   31.194
  Cycle:     13 Defect Energy:   4.743573  Gnorm:     0.001433  CPU:   32.239
  Cycle:     14 Defect Energy:   4.710475  Gnorm:     0.001402  CPU:   33.232
  Cycle:     15 Defect Energy:   4.681380  Gnorm:     0.001362  CPU:   34.253
  Cycle:     16 Defect Energy:   4.658154  Gnorm:     0.001314  CPU:   35.268
  Cycle:     17 Defect Energy:   4.638005  Gnorm:     0.001310  CPU:   36.409
  Cycle:     18 Defect Energy:   4.615733  Gnorm:     0.001284  CPU:   37.373
  Cycle:     19 Defect Energy:   4.593200  Gnorm:     0.001248  CPU:   38.337
  Cycle:     20 Defect Energy:   4.571262  Gnorm:     0.001213  CPU:   39.332
  ** Hessian calculated **
  Cycle:     21 Defect Energy:   4.556674  Gnorm:     0.001148  CPU:   41.957
  Cycle:     22 Defect Energy:   4.539751  Gnorm:     0.001044  CPU:   42.916
  ** Hessian calculated **
  Cycle:     23 Defect Energy:   4.534721  Gnorm:     0.000975  CPU:   45.344
  Cycle:     24 Defect Energy:   4.528004  Gnorm:     0.000954  CPU:   46.422
  Cycle:     25 Defect Energy:   4.519609  Gnorm:     0.000925  CPU:   50.825
  Cycle:     26 Defect Energy:   4.510027  Gnorm:     0.000896  CPU:   51.981
  Cycle:     27 Defect Energy:   4.503255  Gnorm:     0.000874  CPU:   53.160
  Cycle:     28 Defect Energy:   4.498049  Gnorm:     0.000849  CPU:   54.339
  Cycle:     29 Defect Energy:   4.493328  Gnorm:     0.000858  CPU:   55.455
  Cycle:     30 Defect Energy:   4.487773  Gnorm:     0.000827  CPU:   56.646
  Cycle:     31 Defect Energy:   4.481416  Gnorm:     0.000825  CPU:   57.752
  Cycle:     32 Defect Energy:   4.473024  Gnorm:     0.000819  CPU:   58.863
  ** Hessian calculated **
  Cycle:     33 Defect Energy:   4.459872  Gnorm:     0.000769  CPU:   61.727
  Cycle:     34 Defect Energy:   4.440992  Gnorm:     0.000686  CPU:   62.775
  Cycle:     35 Defect Energy:   4.418421  Gnorm:     0.000532  CPU:   63.799
  ** Hessian calculated **
  Cycle:     36 Defect Energy:   4.403357  Gnorm:     0.000497  CPU:   66.535
  Cycle:     37 Defect Energy:   4.388974  Gnorm:     0.000301  CPU:   67.552
  Cycle:     38 Defect Energy:   4.384758  Gnorm:     0.000217  CPU:   68.571
  Cycle:     39 Defect Energy:   4.382171  Gnorm:     0.000141  CPU:   69.678
  Cycle:     40 Defect Energy:   4.380696  Gnorm:     0.000140  CPU:   70.701
  Cycle:     41 Defect Energy:   4.379205  Gnorm:     0.000060  CPU:   71.679
  Cycle:     42 Defect Energy:   4.378471  Gnorm:     0.000063  CPU:   72.656
  Cycle:     43 Defect Energy:   4.377563  Gnorm:     0.000079  CPU:   73.662
  Cycle:     44 Defect Energy:   4.376083  Gnorm:     0.000112  CPU:   74.733
  Cycle:     45 Defect Energy:   4.374104  Gnorm:     0.000225  CPU:   75.676
  ** Hessian calculated **
  Cycle:     46 Defect Energy:   4.373671  Gnorm:     0.000135  CPU:   78.159
  Cycle:     47 Defect Energy:   4.373224  Gnorm:     0.000109  CPU:   79.201
  Cycle:     48 Defect Energy:   4.372707  Gnorm:     0.000110  CPU:   79.958
  Cycle:     49 Defect Energy:   4.372016  Gnorm:     0.000121  CPU:   80.510
  Cycle:     50 Defect Energy:   4.371229  Gnorm:     0.000136  CPU:   84.408
  Cycle:     51 Defect Energy:   4.370333  Gnorm:     0.000162  CPU:   86.723
  Cycle:     52 Defect Energy:   4.369487  Gnorm:     0.000192  CPU:   87.918
  Cycle:     53 Defect Energy:   4.368478  Gnorm:     0.000210  CPU:   89.091
  Cycle:     54 Defect Energy:   4.367512  Gnorm:     0.000242  CPU:   90.279
  Cycle:     55 Defect Energy:   4.366622  Gnorm:     0.000265  CPU:   91.401
  ** Hessian calculated **
  Cycle:     56 Defect Energy:   4.366237  Gnorm:     0.000250  CPU:   94.462
  Cycle:     57 Defect Energy:   4.365709  Gnorm:     0.000243  CPU:   95.581
  Cycle:     58 Defect Energy:   4.365017  Gnorm:     0.000234  CPU:   96.784
  Cycle:     59 Defect Energy:   4.364084  Gnorm:     0.000226  CPU:   97.886
  Cycle:     60 Defect Energy:   4.363209  Gnorm:     0.000221  CPU:   98.968
  Cycle:     61 Defect Energy:   4.362455  Gnorm:     0.000216  CPU:  100.064
  Cycle:     62 Defect Energy:   4.361814  Gnorm:     0.000225  CPU:  101.138
  Cycle:     63 Defect Energy:   4.360915  Gnorm:     0.000225  CPU:  102.291
  Cycle:     64 Defect Energy:   4.359783  Gnorm:     0.000245  CPU:  103.333
  Cycle:     65 Defect Energy:   4.357903  Gnorm:     0.000280  CPU:  104.352
  ** Hessian calculated **
  Cycle:     66 Defect Energy:   4.353246  Gnorm:     0.000274  CPU:  107.146
  Cycle:     67 Defect Energy:   4.346970  Gnorm:     0.000257  CPU:  108.143
  Cycle:     68 Defect Energy:   4.340849  Gnorm:     0.000194  CPU:  109.132
  Cycle:     69 Defect Energy:   4.338878  Gnorm:     0.000135  CPU:  110.120
  Cycle:     70 Defect Energy:   4.337466  Gnorm:     0.000096  CPU:  111.105
  Cycle:     71 Defect Energy:   4.336439  Gnorm:     0.000075  CPU:  112.183
  Cycle:     72 Defect Energy:   4.335948  Gnorm:     0.000070  CPU:  113.153
  ** Hessian calculated **
  Cycle:     73 Defect Energy:   4.335685  Gnorm:     0.000050  CPU:  115.598
  Cycle:     74 Defect Energy:   4.335559  Gnorm:     0.000036  CPU:  116.717
  Cycle:     75 Defect Energy:   4.335503  Gnorm:     0.000025  CPU:  117.800
  Cycle:     76 Defect Energy:   4.335480  Gnorm:     0.000018  CPU:  122.517


  **** Optimisation achieved ****


  Final defect energy  =        4.33547020
  Final defect Gnorm   =        0.00001257

  Components of defect energy : 

--------------------------------------------------------------------------------
  Region 1 - region 1                   =      0.65266871 eV
  Region 1 - region 2a (unrelaxed)      =      4.21891805 eV
  Region 1 - 2a (relaxed - correction)  =     -0.21065141 eV
  Region 1 (Total)                      =      4.66093535 eV
  Region 2a                             =      0.10525886 eV
  Region 2b                             =     -0.43072402 eV
--------------------------------------------------------------------------------
  Total defect energy                   =      4.33547020 eV
--------------------------------------------------------------------------------

  Largest displacement in region 2 =   0.0263 Angstroms

  Final coordinates of region 1 :

--------------------------------------------------------------------------------
   No.  Atomic        x           y           z          Radius      Charge
        Label       (Angs)      (Angs)      (Angs)       (Angs)       (e) 
--------------------------------------------------------------------------------
     1  Na    c     2.253894    0.062466    1.780985    0.000000    1.000000
     2  O     c     2.253894    2.195716    2.438014    0.000000    0.183000
     3  O     c     2.253894   -2.216897    2.264660    0.000000    0.183000
     4  Na    c     4.395516    2.275773    1.804208    0.000000    1.000000
     5  Na    c     0.112271    2.275773    1.804208    0.000000    1.000000
     6  Cl    c     4.585717   -0.104689    0.003617    0.000000    1.485000
     7  Cl    c    -0.077930   -0.104689    0.003617    0.000000    1.485000
     8  Na    c     2.253894    1.781775    4.591292    0.000000    1.000000
     9  Na    c     2.253894   -2.609452    0.007172    0.000000    1.000000
    10  Cl    c     4.589105   -0.114421    4.618251    0.000000    1.485000
    11  Cl    c    -0.081318   -0.114421    4.618251    0.000000    1.485000
    12  Na    c     4.501040   -2.155479    2.342571    0.000000    1.000000
    13  Na    c     0.006747   -2.155479    2.342571    0.000000    1.000000
    14  Na    c     2.253894   -1.802319    4.506958    0.000000    1.000000
    15  Na    c     2.253894    0.045230   -1.809410    0.000000    1.000000
    16  Na    c     2.253894    4.419184    2.599471    0.000000    1.000000
    17  Na    c    -2.274388    0.011951    2.281452    0.000000    1.000000
    18  Na    c     6.782175    0.011951    2.281452    0.000000    1.000000
    19  O     c     2.253894    2.198976   -2.411173    0.000000    0.183000
    20  Na    c     2.253894   -0.015985    7.221651    0.000000    1.000000
    21  Na    c     2.253894   -4.479667    2.626327    0.000000    1.000000
    22  O     c    -2.196140    2.266890    2.247933    0.000000    0.183000
    23  O     c     6.703928    2.266890    2.247933    0.000000    0.183000
    24  O     c     2.253894   -2.237349   -2.255335    0.000000    0.183000
    25  Na    c     4.392739    2.299797   -1.798648    0.000000    1.000000
    26  Na    c     0.115049    2.299797   -1.798648    0.000000    1.000000
    27  Cl    c     4.714438    4.633945    0.007023    0.000000    1.485000
    28  Cl    c    -0.206651    4.633945    0.007023    0.000000    1.485000
    29  O     c     2.253894    2.240004    6.836515    0.000000    0.183000
    30  O     c    -2.252272   -2.258950    2.251619    0.000000    0.183000
    31  O     c     6.760059   -2.258950    2.251619    0.000000    0.183000
    32  Na    c    -2.572527    2.285763    0.007227    0.000000    1.000000
    33  Na    c     7.080314    2.285763    0.007227    0.000000    1.000000
    34  Cl    c     4.576299    4.625133    4.573448    0.000000    1.485000
    35  Cl    c    -0.068512    4.625133    4.573448    0.000000    1.485000
    36  Na    c     4.500832   -2.272666   -2.317070    0.000000    1.000000
    37  Na    c     0.006955   -2.272666   -2.317070    0.000000    1.000000
    38  O     c     2.253894   -2.255231    6.750829    0.000000    0.183000
    39  Na    c    -1.754885    2.256985    4.469643    0.000000    1.000000
    40  Na    c     6.262673    2.256985    4.469643    0.000000    1.000000
    41  Na    c    -2.120021   -2.179870    0.000393    0.000000    1.000000
    42  Na    c     6.627808   -2.179870    0.000393    0.000000    1.000000
    43  Na    c     4.506115    2.256194    7.003457    0.000000    1.000000
    44  Na    c     0.001672    2.256194    7.003457    0.000000    1.000000
    45  Cl    c     4.549441   -4.532892    0.001178    0.000000    1.485000
    46  Cl    c    -0.041654   -4.532892    0.001178    0.000000    1.485000
    47  Na    c    -2.371933   -2.331737    4.506206    0.000000    1.000000
    48  Na    c     6.879720   -2.331737    4.506206    0.000000    1.000000
    49  Cl    c     4.544385   -4.539148    4.513366    0.000000    1.485000
    50  Cl    c    -0.036598   -4.539148    4.513366    0.000000    1.485000
    51  Na    c     4.511505   -2.230308    6.642722    0.000000    1.000000
    52  Na    c    -0.003717   -2.230308    6.642722    0.000000    1.000000
    53  Na    c     2.253894    4.416539   -2.606378    0.000000    1.000000
    54  Na    c    -2.121852    0.018604   -2.253937    0.000000    1.000000
    55  Na    c     6.629639    0.018604   -2.253937    0.000000    1.000000
    56  Na    c    -2.140857    4.519701    2.271058    0.000000    1.000000
    57  Na    c     6.648645    4.519701    2.271058    0.000000    1.000000
    58  Na    c     2.253894    4.474028    6.329352    0.000000    1.000000
    59  Na    c     2.253894   -4.473640   -2.653304    0.000000    1.000000
    60  O     c     2.253894    6.704672    2.220093    0.000000    0.183000
    61  O     c    -2.191371    2.262032   -2.234393    0.000000    0.183000
    62  O     c     6.699158    2.262032   -2.234393    0.000000    0.183000
    63  Na    c    -2.251781   -0.004329    6.642263    0.000000    1.000000
    64  Na    c     6.759568   -0.004329    6.642263    0.000000    1.000000
    65  Na    c    -2.141090   -4.503004    2.143410    0.000000    1.000000
    66  Na    c     6.648877   -4.503004    2.143410    0.000000    1.000000
    67  O     c     6.761821   -2.243483   -2.247902    0.000000    0.183000
    68  O     c    -2.254034   -2.243483   -2.247902    0.000000    0.183000
    69  Na    c     2.253894    1.821536   -4.564181    0.000000    1.000000
    70  Na    c     2.253894    6.180550   -0.001425    0.000000    1.000000
    71  Na    c     2.253894   -4.505224    6.376135    0.000000    1.000000
    72  Cl    c     4.602901   -0.115214   -4.604361    0.000000    1.485000
    73  Cl    c    -0.095114   -0.115214   -4.604361    0.000000    1.485000
    74  Na    c     4.506797    6.773500    2.112081    0.000000    1.000000
    75  Na    c     0.000990    6.773500    2.112081    0.000000    1.000000
    76  O     c    -2.239790    2.254542    6.711998    0.000000    0.183000
    77  O     c     6.747577    2.254542    6.711998    0.000000    0.183000
    78  Na    c     2.253894   -1.830266   -4.506200    0.000000    1.000000
    79  Na    c     2.253894    7.047803    4.475592    0.000000    1.000000
    80  Cl    c     9.021955   -0.023457    0.004784    0.000000    1.485000
    81  Cl    c    -4.514168   -0.023457    0.004784    0.000000    1.485000
    82  Na    c     8.962911    2.335531    2.594851    0.000000    1.000000
    83  Na    c    -4.455124    2.335531    2.594851    0.000000    1.000000
    84  O     c     2.253894   -6.745836    2.259144    0.000000    0.183000
    85  O     c     6.773515   -2.264370    6.771546    0.000000    0.183000
    86  O     c    -2.265727   -2.264370    6.771546    0.000000    0.183000
    87  Cl    c     9.041533   -0.023674    4.507165    0.000000    1.485000
    88  Cl    c    -4.533746   -0.023674    4.507165    0.000000    1.485000
    89  Na    c     9.005427   -2.349283    2.108485    0.000000    1.000000
    90  Na    c    -4.497640   -2.349283    2.108485    0.000000    1.000000
    91  Na    c     2.253894    2.716813    9.042441    0.000000    1.000000
    92  Na    c     2.253894   -6.398633    0.003483    0.000000    1.000000
    93  Cl    c     4.549477    0.003150    9.054043    0.000000    1.485000
    94  Cl    c    -0.041690    0.003150    9.054043    0.000000    1.485000
    95  Na    c     4.504540   -6.774538    2.271641    0.000000    1.000000
    96  Na    c     0.003247   -6.774538    2.271641    0.000000    1.000000
    97  Na    c     6.662891    4.510611   -2.271732    0.000000    1.000000
    98  Na    c    -2.155103    4.510611   -2.271732    0.000000    1.000000
    99  Na    c     2.253894   -2.649267    8.987250    0.000000    1.000000
   100  Na    c     2.253894   -7.125589    4.491601    0.000000    1.000000
   101  O     c     2.253894    6.695546   -2.220350    0.000000    0.183000
   102  Na    c     6.840341    4.509174    6.633029    0.000000    1.000000
   103  Na    c    -2.332554    4.509174    6.633029    0.000000    1.000000
   104  Na    c     6.850318   -4.498095   -2.199554    0.000000    1.000000
   105  Na    c    -2.342531   -4.498095   -2.199554    0.000000    1.000000
   106  O     c     6.770951    6.777359    2.261525    0.000000    0.183000
   107  O     c    -2.263164    6.777359    2.261525    0.000000    0.183000
   108  Cl    c     4.570140    4.613214   -4.597859    0.000000    1.485000
   109  Cl    c    -0.062352    4.613214   -4.597859    0.000000    1.485000
   110  Na    c     4.510717    6.774583   -2.114950    0.000000    1.000000
   111  Na    c    -0.002930    6.774583   -2.114950    0.000000    1.000000
   112  O     c     2.253894    6.723597    6.748969    0.000000    0.183000
   113  Na    c    -1.856848    2.248397   -4.480080    0.000000    1.000000
   114  Na    c     6.364635    2.248397   -4.480080    0.000000    1.000000
   115  Na    c     6.927852    6.674831    0.002364    0.000000    1.000000
   116  Na    c    -2.420065    6.674831    0.002364    0.000000    1.000000
   117  Na    c     6.738195   -4.504347    6.874368    0.000000    1.000000
   118  Na    c    -2.230408   -4.504347    6.874368    0.000000    1.000000
   119  Na    c     8.960969    2.256467   -2.557996    0.000000    1.000000
   120  Na    c    -4.453182    2.256467   -2.557996    0.000000    1.000000
   121  Cl    c     9.059476    4.524921   -0.001412    0.000000    1.485000
   122  Cl    c    -4.551689    4.524921   -0.001412    0.000000    1.485000
   123  O     c     2.253894   -6.717586   -2.252513    0.000000    0.183000
   124  Na    c     6.826573   -2.240674   -4.501332    0.000000    1.000000
   125  Na    c    -2.318786   -2.240674   -4.501332    0.000000    1.000000
   126  Na    c     6.565982    6.844291    4.505383    0.000000    1.000000
   127  Na    c    -2.058195    6.844291    4.505383    0.000000    1.000000
   128  Cl    c     4.524055   -4.547068   -4.515914    0.000000    1.485000
   129  Cl    c    -0.016268   -4.547068   -4.515914    0.000000    1.485000
   130  Na    c     4.504681    6.650861    6.808829    0.000000    1.000000
   131  Na    c     0.003106    6.650861    6.808829    0.000000    1.000000
   132  Cl    c     9.072683    4.538523    4.533055    0.000000    1.485000
   133  Cl    c    -4.564896    4.538523    4.533055    0.000000    1.485000
   134  Na    c     9.011231   -2.138700   -2.143450    0.000000    1.000000
   135  Na    c    -4.503443   -2.138700   -2.143450    0.000000    1.000000
   136  O     c     6.763322   -6.755782    2.250704    0.000000    0.183000
   137  O     c    -2.255535   -6.755782    2.250704    0.000000    0.183000
   138  Cl    c     4.518821    4.515615    9.062097    0.000000    1.485000
   139  Cl    c    -0.011034    4.515615    9.062097    0.000000    1.485000
   140  Na    c     4.507175   -6.667914   -2.225542    0.000000    1.000000
   141  Na    c     0.000612   -6.667914   -2.225542    0.000000    1.000000
   142  Na    c     9.000368    2.209634    6.435531    0.000000    1.000000
   143  Na    c    -4.492580    2.209634    6.435531    0.000000    1.000000
   144  Cl    c     9.022072   -4.528970    0.006739    0.000000    1.485000
   145  Cl    c    -4.514285   -4.528970    0.006739    0.000000    1.485000
   146  O     c     2.253894   -6.761642    6.732833    0.000000    0.183000
   147  Na    c    -2.462965    2.258624    8.977635    0.000000    1.000000
   148  Na    c     6.970752    2.258624    8.977635    0.000000    1.000000
   149  Na    c     6.756301   -6.830712   -0.000749    0.000000    1.000000
   150  Na    c    -2.248514   -6.830712   -0.000749    0.000000    1.000000
   151  Cl    c     9.056506   -4.544305    4.519053    0.000000    1.485000
   152  Cl    c    -4.548719   -4.544305    4.519053    0.000000    1.485000
   153  Na    c     9.016635   -2.270456    6.887874    0.000000    1.000000
   154  Na    c    -4.508848   -2.270456    6.887874    0.000000    1.000000
   155  Na    c     2.253894   -0.004342   -7.154492    0.000000    1.000000
   156  Na    c     2.253894    8.972729    1.924345    0.000000    1.000000
   157  Na    c     6.668298   -2.151544    9.015235    0.000000    1.000000
   158  Na    c    -2.160510   -2.151544    9.015235    0.000000    1.000000
   159  Na    c     6.799248   -6.645712    4.506240    0.000000    1.000000
   160  Na    c    -2.291461   -6.645712    4.506240    0.000000    1.000000
   161  Cl    c     4.534511   -4.546527    9.040842    0.000000    1.485000
   162  Cl    c    -0.026724   -4.546527    9.040842    0.000000    1.485000
   163  Na    c     4.506526   -6.736127    6.717555    0.000000    1.000000
   164  Na    c     0.001261   -6.736127    6.717555    0.000000    1.000000
   165  O     c     2.253894    2.238486   -6.804613    0.000000    0.183000
   166  O     c     6.772003    6.767988   -2.258231    0.000000    0.183000
   167  O     c    -2.264216    6.767988   -2.258231    0.000000    0.183000
   168  Na    c    11.106673    0.003006    2.198518    0.000000    1.000000
   169  Na    c    -6.598886    0.003006    2.198518    0.000000    1.000000
   170  O     c     2.253894   -2.233571   -6.754928    0.000000    0.183000
   171  Na    c     2.253894    6.969328   -4.470221    0.000000    1.000000
   172  Cl    c     4.525467    9.074278   -0.007664    0.000000    1.485000
   173  Cl    c    -0.017680    9.074278   -0.007664    0.000000    1.485000
   174  Na    c     4.489687    2.301743   -6.899850    0.000000    1.000000
   175  Na    c     0.018101    2.301743   -6.899850    0.000000    1.000000
   176  O     c     6.765385    6.765474    6.760187    0.000000    0.183000
   177  O     c    -2.257598    6.765474    6.760187    0.000000    0.183000
   178  O     c    11.226337    2.253398    2.244153    0.000000    0.183000
   179  O     c    -6.718549    2.253398    2.244153    0.000000    0.183000
   180  Na    c     2.253894    0.000906   10.936240    0.000000    1.000000
   181  Na    c     2.253894   -8.996345    1.939225    0.000000    1.000000
   182  Cl    c     9.075066   -0.025991   -4.512319    0.000000    1.485000
   183  Cl    c    -4.567279   -0.025991   -4.512319    0.000000    1.485000
   184  Na    c     9.014596    6.725188    2.441039    0.000000    1.000000
   185  Na    c    -4.506809    6.725188    2.441039    0.000000    1.000000
   186  Cl    c     4.526212    9.034093    4.520768    0.000000    1.485000
   187  Cl    c    -0.018425    9.034093    4.520768    0.000000    1.485000
   188  Na    c     4.514864   -2.254456   -6.685642    0.000000    1.000000
   189  Na    c    -0.007077   -2.254456   -6.685642    0.000000    1.000000
   190  O     c     6.762598   -6.762955   -2.248573    0.000000    0.183000
   191  O     c    -2.254810   -6.762955   -2.248573    0.000000    0.183000
   192  O     c    11.261373   -2.252539    2.256765    0.000000    0.183000
   193  O     c    -6.753586   -2.252539    2.256765    0.000000    0.183000
   194  Na    c    10.994140    2.244596   -0.015241    0.000000    1.000000
   195  Na    c    -6.486353    2.244596   -0.015241    0.000000    1.000000
   196  O     c     2.253894    2.251777   11.248865    0.000000    0.183000
   197  Na    c     2.253894    6.505092    9.011225    0.000000    1.000000
   198  Na    c     2.253894   -7.000698   -4.491551    0.000000    1.000000
   199  Na    c    11.492496    2.296722    4.480124    0.000000    1.000000
   200  Na    c    -6.984709    2.296722    4.480124    0.000000    1.000000
   201  Na    c    11.364780   -2.356724    0.008841    0.000000    1.000000
   202  Na    c    -6.856993   -2.356724    0.008841    0.000000    1.000000
   203  Na    c     2.253894    4.499876   -6.477277    0.000000    1.000000
   204  Na    c     2.253894    8.975562   -2.001665    0.000000    1.000000
   205  O     c     2.253894   -2.254579   11.240345    0.000000    0.183000
   206  O     c     6.763337   -6.755660    6.766020    0.000000    0.183000
   207  O     c    -2.255550   -6.755660    6.766020    0.000000    0.183000
   208  Na    c    11.158016   -2.163945    4.511902    0.000000    1.000000
   209  Na    c    -6.650229   -2.163945    4.511902    0.000000    1.000000
   210  Cl    c     4.505374   -9.048680   -0.006871    0.000000    1.485000
   211  Cl    c     0.002414   -9.048680   -0.006871    0.000000    1.485000
   212  Na    c     4.522272    2.192839   11.184809    0.000000    1.000000
   213  Na    c    -0.014485    2.192839   11.184809    0.000000    1.000000
   214  Cl    c     9.019138   -0.029180    9.039209    0.000000    1.485000
   215  Cl    c    -4.511351   -0.029180    9.039209    0.000000    1.485000
   216  Na    c     9.019204   -6.663841    2.208432    0.000000    1.000000
   217  Na    c    -4.511417   -6.663841    2.208432    0.000000    1.000000
   218  Na    c     6.710162   -0.000131   -6.738659    0.000000    1.000000
   219  Na    c    -2.202375   -0.000131   -6.738659    0.000000    1.000000
[...]
    247 y         -2.253894     -2.255228    -0.001335    Cartesian    0.06
    247 z          6.761681      6.750828    -0.010853    Cartesian   -0.16
    248 x          4.507787      4.548254     0.040467    Cartesian    0.90
    248 y         -4.507787     -4.537375    -0.029588    Cartesian    0.66
    248 z          0.000000      0.002531     0.002531    Cartesian    0.00
    249 x          4.507787      4.537971     0.030184    Cartesian    0.67
    249 y         -4.507787     -4.542896    -0.035109    Cartesian    0.78
    249 z          4.507787      4.515337     0.007549    Cartesian    0.17
    250 x          2.253894      2.253894     0.000000    Cartesian    0.00
    250 y          6.761681      6.704702    -0.056979    Cartesian   -0.84
    250 z          2.253894      2.220069    -0.033825    Cartesian   -1.50
    251 x         -2.253894     -2.191427     0.062467    Cartesian   -2.77
    251 y          2.253894      2.262031     0.008138    Cartesian    0.36
    251 z         -2.253894     -2.234405     0.019488    Cartesian   -0.86
    252 x          6.761681      6.761812     0.000131    Cartesian    0.00
    252 y         -2.253894     -2.243469     0.010424    Cartesian   -0.46
    252 z         -2.253894     -2.247887     0.006007    Cartesian   -0.27
    253 x          4.507787      4.608619     0.100832    Cartesian    2.24
    253 y          0.000000     -0.124712    -0.124712    Cartesian    0.00
    253 z         -4.507787     -4.612848    -0.105061    Cartesian    2.33
    254 x         -2.253894     -2.239759     0.014135    Cartesian   -0.63
    254 y          2.253894      2.254538     0.000644    Cartesian    0.03
    254 z          6.761681      6.712003    -0.049678    Cartesian   -0.73
    255 x          9.015574      9.026555     0.010980    Cartesian    0.12
    255 y          0.000000     -0.022451    -0.022451    Cartesian    0.00
    255 z          0.000000      0.005833     0.005833    Cartesian    0.00
    256 x          2.253894      2.253894     0.000000    Cartesian    0.00
    256 y         -6.761681     -6.745883     0.015798    Cartesian   -0.23
    256 z          2.253894      2.259172     0.005278    Cartesian    0.23
    257 x          6.761681      6.773531     0.011850    Cartesian    0.18
    257 y         -2.253894     -2.264384    -0.010490    Cartesian    0.47
    257 z          6.761681      6.771568     0.009887    Cartesian    0.15
    258 x          9.015574      9.046363     0.030788    Cartesian    0.34
    258 y          0.000000     -0.019608    -0.019608    Cartesian    0.00
    258 z          4.507787      4.509968     0.002181    Cartesian    0.05
    259 x          4.507787      4.541900     0.034113    Cartesian    0.76
    259 y          0.000000      0.004193     0.004193    Cartesian    0.00
    259 z          9.015574      9.056271     0.040696    Cartesian    0.45
    260 x          2.253894      2.253894     0.000000    Cartesian    0.00
    260 y          6.761681      6.695562    -0.066119    Cartesian   -0.98
    260 z         -2.253894     -2.220356     0.033538    Cartesian   -1.49
    261 x          6.761681      6.770947     0.009266    Cartesian    0.14
    261 y          6.761681      6.777367     0.015686    Cartesian    0.23
    261 z          2.253894      2.261538     0.007644    Cartesian    0.34
    262 x          4.507787      4.577745     0.069958    Cartesian    1.55
    262 y          4.507787      4.619073     0.111286    Cartesian    2.47
    262 z         -4.507787     -4.608095    -0.100308    Cartesian    2.23
    263 x          2.253894      2.253894     0.000000    Cartesian    0.00
    263 y          6.761681      6.723616    -0.038065    Cartesian   -0.56
    263 z          6.761681      6.748987    -0.012694    Cartesian   -0.19
    264 x          9.015574      9.063861     0.048286    Cartesian    0.54
    264 y          4.507787      4.521972     0.014185    Cartesian    0.31
    264 z          0.000000     -0.001360    -0.001360    Cartesian    0.00
    265 x          2.253894      2.253894     0.000000    Cartesian    0.00
    265 y         -6.761681     -6.717570     0.044111    Cartesian   -0.65
    265 z         -2.253894     -2.252564     0.001330    Cartesian   -0.06
    266 x          4.507787      4.516723     0.008935    Cartesian    0.20
    266 y         -4.507787     -4.551414    -0.043627    Cartesian    0.97
    266 z         -4.507787     -4.514421    -0.006634    Cartesian    0.15
    267 x          9.015574      9.076876     0.061302    Cartesian    0.68
    267 y          4.507787      4.534605     0.026818    Cartesian    0.59
    267 z          4.507787      4.534678     0.026891    Cartesian    0.60
    268 x          6.761681      6.763316     0.001635    Cartesian    0.02
    268 y         -6.761681     -6.755771     0.005910    Cartesian   -0.09
    268 z          2.253894      2.250683    -0.003210    Cartesian   -0.14
    269 x          4.507787      4.506805    -0.000982    Cartesian   -0.02
    269 y          4.507787      4.511906     0.004119    Cartesian    0.09
    269 z          9.015574      9.064508     0.048933    Cartesian    0.54
    270 x          9.015574      9.022183     0.006608    Cartesian    0.07
    270 y         -4.507787     -4.530163    -0.022376    Cartesian    0.50
    270 z          0.000000      0.010028     0.010028    Cartesian    0.00
    271 x          2.253894      2.253894     0.000000    Cartesian    0.00
    271 y         -6.761681     -6.761688    -0.000007    Cartesian    0.00
    271 z          6.761681      6.732805    -0.028875    Cartesian   -0.43
    272 x          9.015574      9.060262     0.044688    Cartesian    0.50
    272 y         -4.507787     -4.548993    -0.041206    Cartesian    0.91
    272 z          4.507787      4.519500     0.011713    Cartesian    0.26
    273 x          4.507787      4.532285     0.024498    Cartesian    0.54
    273 y         -4.507787     -4.549286    -0.041499    Cartesian    0.92
    273 z          9.015574      9.043796     0.028221    Cartesian    0.31
    274 x          2.253894      2.253894     0.000000    Cartesian    0.00
    274 y          2.253894      2.238469    -0.015425    Cartesian   -0.68
    274 z         -6.761681     -6.804696    -0.043016    Cartesian    0.64
    275 x          6.761681      6.772017     0.010337    Cartesian    0.15
    275 y          6.761681      6.767990     0.006309    Cartesian    0.09
    275 z         -2.253894     -2.258240    -0.004346    Cartesian    0.19
    276 x          2.253894      2.253894     0.000000    Cartesian    0.00
    276 y         -2.253894     -2.233544     0.020350    Cartesian   -0.90
    276 z         -6.761681     -6.754973     0.006708    Cartesian   -0.10
    277 x          4.507787      4.519357     0.011570    Cartesian    0.26
    277 y          9.015574      9.079005     0.063430    Cartesian    0.70
    277 z          0.000000     -0.007398    -0.007398    Cartesian    0.00
    278 x          6.761681      6.765383     0.003702    Cartesian    0.05
    278 y          6.761681      6.765487     0.003807    Cartesian    0.06
    278 z          6.761681      6.760180    -0.001501    Cartesian   -0.02
    279 x         11.269468     11.226354    -0.043114    Cartesian   -0.38
    279 y          2.253894      2.253406    -0.000487    Cartesian   -0.02
    279 z          2.253894      2.244179    -0.009714    Cartesian   -0.43
    280 x          9.015574      9.082705     0.067131    Cartesian    0.74
    280 y          0.000000     -0.026840    -0.026840    Cartesian    0.00
    280 z         -4.507787     -4.511556    -0.003769    Cartesian    0.08
    281 x          4.507787      4.528869     0.021082    Cartesian    0.47
    281 y          9.015574      9.032135     0.016561    Cartesian    0.18
    281 z          4.507787      4.522646     0.014859    Cartesian    0.33
    282 x          6.761681      6.762608     0.000927    Cartesian    0.01
    282 y         -6.761681     -6.762972    -0.001291    Cartesian    0.02
    282 z         -2.253894     -2.248559     0.005335    Cartesian   -0.24
    283 x         11.269468     11.261371    -0.008097    Cartesian   -0.07
    283 y         -2.253894     -2.252555     0.001338    Cartesian   -0.06
    283 z          2.253894      2.256752     0.002859    Cartesian    0.13
    284 x          2.253894      2.253894     0.000000    Cartesian    0.00
    284 y          2.253894      2.251824    -0.002070    Cartesian   -0.09
    284 z         11.269468     11.248841    -0.020627    Cartesian   -0.18
    285 x          2.253894      2.253894     0.000000    Cartesian    0.00
    285 y         -2.253894     -2.254625    -0.000731    Cartesian    0.03
    285 z         11.269468     11.240373    -0.029095    Cartesian   -0.26
    286 x          6.761681      6.763343     0.001662    Cartesian    0.02
    286 y         -6.761681     -6.755643     0.006038    Cartesian   -0.09
    286 z          6.761681      6.766040     0.004359    Cartesian    0.06
    287 x          4.507787      4.499772    -0.008016    Cartesian   -0.18
    287 y         -9.015574     -9.052812    -0.037238    Cartesian    0.41
    287 z          0.000000     -0.005448    -0.005448    Cartesian    0.00
    288 x          9.015574      9.017422     0.001847    Cartesian    0.02
    288 y          0.000000     -0.031987    -0.031987    Cartesian    0.00
    288 z          9.015574      9.043202     0.027628    Cartesian    0.31
    289 x          4.507787      4.527469     0.019682    Cartesian    0.44
    289 y         -9.015574     -9.028434    -0.012860    Cartesian    0.14
    289 z          4.507787      4.513993     0.006206    Cartesian    0.14
    290 x          6.761681      6.728420    -0.033261    Cartesian   -0.49
    290 y          2.253894      2.258208     0.004314    Cartesian    0.19
    290 z         -6.761681     -6.738740     0.022941    Cartesian   -0.34
    291 x         11.269468     11.238612    -0.030856    Cartesian   -0.27
    291 y          2.253894      2.252271    -0.001622    Cartesian   -0.07
    291 z         -2.253894     -2.267829    -0.013935    Cartesian    0.62
    292 x          6.761681      6.778558     0.016877    Cartesian    0.25
    292 y         -2.253894     -2.263268    -0.009374    Cartesian    0.42
    292 z         -6.761681     -6.763145    -0.001465    Cartesian    0.02
    293 x          9.015574      9.077511     0.061936    Cartesian    0.69
    293 y          4.507787      4.517767     0.009979    Cartesian    0.22
    293 z         -4.507787     -4.516615    -0.008828    Cartesian    0.20
    294 x         11.269468     11.269686     0.000218    Cartesian    0.00
    294 y         -2.253894     -2.251007     0.002887    Cartesian   -0.13
    294 z         -2.253894     -2.237881     0.016013    Cartesian   -0.71
    295 x         11.269468     11.259900    -0.009568    Cartesian   -0.08
    295 y          2.253894      2.251923    -0.001971    Cartesian   -0.09
    295 z          6.761681      6.728643    -0.033038    Cartesian   -0.49
    296 x          9.015574      9.038034     0.022460    Cartesian    0.25
    296 y         -4.507787     -4.549647    -0.041859    Cartesian    0.93
    296 z         -4.507787     -4.512773    -0.004986    Cartesian    0.11
    297 x          6.761681      6.780982     0.019301    Cartesian    0.29
    297 y          2.253894      2.253048    -0.000845    Cartesian   -0.04
    297 z         11.269468     11.258786    -0.010682    Cartesian   -0.09
    298 x         11.269468     11.268005    -0.001463    Cartesian   -0.01
    298 y         -2.253894     -2.248085     0.005809    Cartesian   -0.26
    298 z          6.761681      6.769125     0.007444    Cartesian    0.11
    299 x          9.015574      9.034802     0.019228    Cartesian    0.21
    299 y          4.507787      4.495739    -0.012049    Cartesian   -0.27
    299 z          9.015574      9.082751     0.067176    Cartesian    0.75
    300 x          6.761681      6.755059    -0.006622    Cartesian   -0.10
    300 y         -2.253894     -2.240757     0.013137    Cartesian   -0.58
    300 z         11.269468     11.268487    -0.000981    Cartesian   -0.01
    301 x          2.253894      2.253894     0.000000    Cartesian    0.00
    301 y          6.761681      6.760491    -0.001190    Cartesian   -0.02
    301 z         -6.761681     -6.742841     0.018839    Cartesian   -0.28
    302 x          9.015574      9.030752     0.015177    Cartesian    0.17
    302 y         -4.507787     -4.522239    -0.014452    Cartesian    0.32
    302 z          9.015574      9.024406     0.008831    Cartesian    0.10
    303 x          2.253894      2.253894     0.000000    Cartesian    0.00
    303 y         11.269468     11.244304    -0.025164    Cartesian   -0.22
    303 z          2.253894      2.232019    -0.021875    Cartesian   -0.97
    304 x          4.507787      4.513498     0.005711    Cartesian    0.13
    304 y          9.015574      9.031437     0.015862    Cartesian    0.18
    304 z         -4.507787     -4.530192    -0.022405    Cartesian    0.50
    305 x         11.269468     11.269851     0.000383    Cartesian    0.00
    305 y          6.761681      6.760725    -0.000956    Cartesian   -0.01
    305 z          2.253894      2.258495     0.004601    Cartesian    0.20
    306 x          4.507787      4.539072     0.031285    Cartesian    0.69
    306 y          0.000000      0.022433     0.022433    Cartesian    0.00
    306 z         -9.015574     -9.038565    -0.022991    Cartesian    0.26
    307 x          9.015574      9.027750     0.012175    Cartesian    0.14
    307 y          9.015574      9.075632     0.060057    Cartesian    0.67
    307 z          0.000000     -0.002872    -0.002872    Cartesian    0.00
    308 x          2.253894      2.253894     0.000000    Cartesian    0.00
    308 y         -6.761681     -6.767395    -0.005715    Cartesian    0.08
    308 z         -6.761681     -6.741743     0.019938    Cartesian   -0.29
    309 x          9.015574      9.047584     0.032010    Cartesian    0.36
    309 y          9.015574      9.028908     0.013334    Cartesian    0.15
    309 z          4.507787      4.522157     0.014370    Cartesian    0.32
    310 x          2.253894      2.253894     0.000000    Cartesian    0.00
    310 y          6.761681      6.741518    -0.020163    Cartesian   -0.30
    310 z         11.269468     11.274036     0.004568    Cartesian    0.04
    311 x         13.523362     13.595672     0.072310    Cartesian    0.53
    311 y          0.000000     -0.012690    -0.012690    Cartesian    0.00
    311 z          0.000000      0.005072     0.005072    Cartesian    0.00
    312 x          4.507787      4.514579     0.006792    Cartesian    0.15
    312 y          9.015574      9.060626     0.045052    Cartesian    0.50
    312 z          9.015574      9.036591     0.021017    Cartesian    0.23
    313 x         11.269468     11.275216     0.005748    Cartesian    0.05
    313 y         -6.761681     -6.756459     0.005222    Cartesian   -0.08
    313 z          2.253894      2.261986     0.008092    Cartesian    0.36
    314 x          4.507787      4.506350    -0.001438    Cartesian   -0.03
    314 y         -9.015574     -9.042362    -0.026787    Cartesian    0.30
    314 z         -4.507787     -4.530219    -0.022432    Cartesian    0.50
    315 x         13.523362     13.564257     0.040895    Cartesian    0.30
    315 y          0.000000      0.014812     0.014812    Cartesian    0.00
    315 z          4.507787      4.526818     0.019031    Cartesian    0.42
    316 x          2.253894      2.253894     0.000000    Cartesian    0.00
    316 y        -11.269468    -11.253512     0.015956    Cartesian   -0.14
    316 z          2.253894      2.226612    -0.027282    Cartesian   -1.21
    317 x          9.015574      9.009633    -0.005942    Cartesian   -0.07
    317 y         -9.015574     -9.034222    -0.018648    Cartesian    0.21
    317 z          0.000000     -0.008376    -0.008376    Cartesian    0.00
    318 x          2.253894      2.253894     0.000000    Cartesian    0.00
    318 y         -6.761681     -6.740049     0.021632    Cartesian   -0.32
    318 z         11.269468     11.273668     0.004200    Cartesian    0.04
    319 x          2.253894      2.253894     0.000000    Cartesian    0.00
    319 y         11.269468     11.257393    -0.012075    Cartesian   -0.11
    319 z         -2.253894     -2.243053     0.010841    Cartesian   -0.48
    320 x          6.761681      6.765796     0.004115    Cartesian    0.06
    320 y          6.761681      6.766413     0.004732    Cartesian    0.07
    320 z         -6.761681     -6.770278    -0.008597    Cartesian    0.13
    321 x          9.015574      9.037487     0.021912    Cartesian    0.24
    321 y         -9.015574     -9.060031    -0.044457    Cartesian    0.49
    321 z          4.507787      4.519851     0.012063    Cartesian    0.27
    322 x          4.507787      4.491964    -0.015823    Cartesian   -0.35
    322 y          0.000000     -0.017258    -0.017258    Cartesian    0.00
    322 z         13.523362     13.596015     0.072654    Cartesian    0.54
    323 x          6.761681      6.767808     0.006128    Cartesian    0.09
    323 y         11.269468     11.273970     0.004502    Cartesian    0.04
    323 z          2.253894      2.255676     0.001782    Cartesian    0.08
    324 x         11.269468     11.265897    -0.003571    Cartesian   -0.03
    324 y          6.761681      6.767830     0.006149    Cartesian    0.09
    324 z         -2.253894     -2.258948    -0.005054    Cartesian    0.22
    325 x          4.507787      4.504735    -0.003052    Cartesian   -0.07
    325 y         -9.015574     -9.057461    -0.041887    Cartesian    0.46
    325 z          9.015574      9.028892     0.013318    Cartesian    0.15
    326 x          4.507787      4.494380    -0.013407    Cartesian   -0.30
    326 y          4.507787      4.478723    -0.029065    Cartesian   -0.64
    326 z         -9.015574     -9.095512    -0.079938    Cartesian    0.89
    327 x          2.253894      2.253894     0.000000    Cartesian    0.00
    327 y         11.269468     11.250688    -0.018780    Cartesian   -0.17
    327 z          6.761681      6.773061     0.011380    Cartesian    0.17
--------------------------------------------------------------------------------


  Time to end of optimisation  =      123.8379 seconds


  Peak dynamic memory used =      97.52 MB 


  Timing analysis for GULP :

--------------------------------------------------------------------------------
  Task / Subroutine                                          Time (Seconds)
--------------------------------------------------------------------------------
  Calculation of reciprocal space energy and derivatives          0.0007
  Calculation of reciprocal space energy using symmetry           0.0010
  Calculation of real space energy and derivatives                0.0039
  Calculation of real space energy using symmetry                 0.0094
  Calculation for region 1 energy and derivatives (2-b)          68.5185
  Calculation for region 2a energy                               50.3728
  Calculation for region 2b energy                                0.0200
  Calculation and manipulation of Hessian matrix                  0.1772
  Calculation of matrix inversion                                 4.2647
  Symmetry generation of equivalent positions                     0.0048
--------------------------------------------------------------------------------
  Total CPU time                                                123.8380
--------------------------------------------------------------------------------


  Dump file written as Na3OCl.grs


  Job Finished at 23:02.56 30th November   2020                               

