********************************************************************************
*                       GENERAL UTILITY LATTICE PROGRAM                        *
*                                 Julian Gale                                  *
*                       Curtin Institute for Computation                       *
*                    School of Molecular and Life Sciences                     *
*                    Curtin University, Western Australia                      *
********************************************************************************
* Version = 5.2.0 * Last modified =  10th September 2020                       *
********************************************************************************
*  optimise     - perform optimisation run                                     *
*  conp         - constant pressure calculation                                *
*  property     - calculate properties for final geometry                      *
*  defect       - perform defect calculation after bulk run                    *
*  compare      - compare initial and final structures                         *
********************************************************************************

  Job Started  at 15:19.12 19th January    2021                               

  Number of CPUs =     1


  Total number of configurations input =      1

********************************************************************************
*  Input for Configuration =   1                                               *
********************************************************************************

  Formula = OClNa3                                                      

  Number of irreducible atoms/shells =       5


  Total number atoms/shells =       7

  Dimensionality = 3               :  Bulk   


  Symmetry :

  Crystal family                   :  Cubic       
  Crystal class  (Groth - 1921)    :  Cubic Hexakisoctahedral              

  Space group (centrosymmetric)    :  P M 3 M         

  Patterson group                  :  P m -3 m 

  Cartesian lattice vectors (Angstroms) :

        4.504000    0.000000    0.000000
        0.000000    4.504000    0.000000
        0.000000    0.000000    4.504000

  Cell parameters (Angstroms/Degrees):

  a =       4.5040    alpha =  90.0000
  b =       4.5040    beta  =  90.0000
  c =       4.5040    gamma =  90.0000

  Initial cell volume =          91.368216 Angs**3

  Temperature of configuration =   0.00     K 

  Pressure of configuration =         0.000 GPa 

  Fractional coordinates of asymmetric unit :

--------------------------------------------------------------------------------
   No.  Atomic       x           y          z         Charge      Occupancy
        Label      (Frac)      (Frac)     (Frac)        (e)         (Frac)  
--------------------------------------------------------------------------------
      1 O     c    0.000000    0.000000    0.000000     0.18300    1.000000    
      2 Cl    c    0.500000    0.500000    0.500000     1.48500    1.000000    
      3 Na    c    0.500000    0.000000    0.000000     1.00000    1.000000    
      4 O     s    0.000000    0.000000    0.000000    -2.18300    1.000000    
      5 Cl    s    0.500000    0.500000    0.500000    -2.48500    1.000000    
--------------------------------------------------------------------------------


  Constraints : 

--------------------------------------------------------------------------------
  Constraint no.      Unconstrained     Constrained    Coefficient    Offset
                         Variable         Variable
--------------------------------------------------------------------------------
           1              Strain 1        Strain 2       1.00000      0.0000
           2              Strain 1        Strain 3       1.00000      0.0000
--------------------------------------------------------------------------------


********************************************************************************
*  General input information                                                   *
********************************************************************************

  Species output for all configurations : 

--------------------------------------------------------------------------------
  Species    Type    Atomic    Atomic    Charge       Radii (Angs)     Library
                     Number     Mass       (e)     Cova   Ionic  VDW   Symbol
--------------------------------------------------------------------------------
    Na       Core       11      22.99   1.000000   0.970  0.000  2.300          
    O        Core        8      16.00   0.183000   0.730  0.000  1.360          
    O        Shell       8       0.00  -2.183000   0.730  0.000  1.360          
    Cl       Core       17      35.45   1.485000   0.990  0.000  1.650          
    Cl       Shell      17       0.00  -2.485000   0.990  0.000  1.650          
    Mg       Core       12      24.31   0.415000   1.100  0.000  0.000          
    Mg       Shell      12       0.00   1.585000   1.100  0.000  0.000          
    Ca       Core       20      40.08  -1.135000   0.990  0.000  0.000          
    Ca       Shell      20       0.00   3.135000   0.990  0.000  0.000          
    Sr       Core       38      87.62  -1.251000   1.120  0.000  0.000          
    Sr       Shell      38       0.00   3.251000   1.120  0.000  0.000          
    Ba       Core       56     137.33  -7.203000   1.340  0.000  0.000          
    Ba       Shell      56       0.00   9.203000   1.340  0.000  0.000          
--------------------------------------------------------------------------------


  Lattice summation method               =    Ewald          (3-D)
                                         =    Parry          (2-D)
                                         =    Saunders et al (1-D)
  Accuracy factor for lattice sums       =   12.000


  Analytic derivatives to be used

  Time limit = Infinity

  Maximum range for interatomic potentials =    100000.000000 Angstroms

  General interatomic potentials :

--------------------------------------------------------------------------------
Atom  Types   Potential      Parameter       Value         Units   Cutoffs(Ang)
  1     2                                                            Min /  Max 
--------------------------------------------------------------------------------
O    c O    s Spring (c-s)  Spring k 2       593.71600    eV*Ang^-2 0.000  0.800
                            Spring k 4       0.0000000    eV*Ang^-4 
--------------------------------------------------------------------------------
Cl   c Cl   s Spring (c-s)  Spring k 2       29.380000    eV*Ang^-2 0.000  0.800
                            Spring k 4       0.0000000    eV*Ang^-4 
--------------------------------------------------------------------------------
Mg   c Mg   s Spring (c-s)  Spring k 2       361.60000    eV*Ang^-2 0.000  0.800
                            Spring k 4       0.0000000    eV*Ang^-4 
--------------------------------------------------------------------------------
Ca   c Ca   s Spring (c-s)  Spring k 2       110.20000    eV*Ang^-2 0.000  0.800
                            Spring k 4       0.0000000    eV*Ang^-4 
--------------------------------------------------------------------------------
Sr   c Sr   s Spring (c-s)  Spring k 2       71.700000    eV*Ang^-2 0.000  0.800
                            Spring k 4       0.0000000    eV*Ang^-4 
--------------------------------------------------------------------------------
Ba   c Ba   s Spring (c-s)  Spring k 2       495.20000    eV*Ang^-2 0.000  0.800
                            Spring k 4       0.0000000    eV*Ang^-4 
--------------------------------------------------------------------------------
Na   c Na   c Buckingham    Buckingham A     1788.1900    eV        0.000 12.000
                            Buckingham rho  0.15900000    Ang       
                            Buckingham C     0.0000000    eV*Ang^6  
--------------------------------------------------------------------------------
Na   c O    s Buckingham    Buckingham A     588.38000    eV        0.000 12.000
                            Buckingham rho  0.33800000    Ang       
                            Buckingham C     0.0000000    eV*Ang^6  
--------------------------------------------------------------------------------
Na   c Cl   s Buckingham    Buckingham A     1170.4100    eV        0.000 12.000
                            Buckingham rho  0.31500000    Ang       
                            Buckingham C     0.0000000    eV*Ang^6  
--------------------------------------------------------------------------------
O    s O    s Buckingham    Buckingham A     22764.300    eV        0.000 12.000
                            Buckingham rho  0.14900000    Ang       
                            Buckingham C     13.190000    eV*Ang^6  
--------------------------------------------------------------------------------
O    s Cl   s Buckingham    Buckingham A     8286.9100    eV        0.000 12.000
                            Buckingham rho  0.25900000    Ang       
                            Buckingham C     62.200000    eV*Ang^6  
--------------------------------------------------------------------------------
Cl   s Cl   s Buckingham    Buckingham A     1227.2000    eV        0.000 12.000
                            Buckingham rho  0.32100000    Ang       
                            Buckingham C     14.530000    eV*Ang^6  
--------------------------------------------------------------------------------
O    s Mg   s Buckingham    Buckingham A     1428.5000    eV        0.000 12.000
                            Buckingham rho  0.29450000    Ang       
                            Buckingham C     0.0000000    eV*Ang^6  
--------------------------------------------------------------------------------
Mg   s Cl   s Buckingham    Buckingham A     4914.5400    eV        0.000 12.000
                            Buckingham rho  0.25700000    Ang       
                            Buckingham C     0.0000000    eV*Ang^6  
--------------------------------------------------------------------------------
O    s Ca   s Buckingham    Buckingham A     1090.4000    eV        0.000 12.000
                            Buckingham rho  0.34370000    Ang       
                            Buckingham C     0.0000000    eV*Ang^6  
--------------------------------------------------------------------------------
Cl   s Ca   s Buckingham    Buckingham A     2302.0000    eV        0.000 12.000
                            Buckingham rho  0.34020000    Ang       
                            Buckingham C     0.0000000    eV*Ang^6  
--------------------------------------------------------------------------------
O    s Sr   s Buckingham    Buckingham A     959.10000    eV        0.000 12.000
                            Buckingham rho  0.37210000    Ang       
                            Buckingham C     0.0000000    eV*Ang^6  
--------------------------------------------------------------------------------
Cl   s Sr   s Buckingham    Buckingham A     2191.0900    eV        0.000 12.000
                            Buckingham rho  0.34570000    Ang       
                            Buckingham C     0.0000000    eV*Ang^6  
--------------------------------------------------------------------------------
O    s Ba   s Buckingham    Buckingham A     905.70000    eV        0.000 12.000
                            Buckingham rho  0.39760000    Ang       
                            Buckingham C     0.0000000    eV*Ang^6  
--------------------------------------------------------------------------------
Cl   s Ba   s Buckingham    Buckingham A     2704.5500    eV        0.000 12.000
                            Buckingham rho  0.35280000    Ang       
                            Buckingham C     0.0000000    eV*Ang^6  
--------------------------------------------------------------------------------

********************************************************************************
*  Output for configuration   1                                                *
********************************************************************************


  Components of energy : 

--------------------------------------------------------------------------------
  Interatomic potentials     =           4.94315381 eV    
  Monopole - monopole (real) =         -10.03624526 eV    
  Monopole - monopole (recip)=         -29.53581274 eV    
  Monopole - monopole (total)=         -39.57205800 eV    
--------------------------------------------------------------------------------
  Total lattice energy       =         -34.62890419 eV    
--------------------------------------------------------------------------------
  Total lattice energy       =           -3341.1599 kJ/(mole unit cells)
--------------------------------------------------------------------------------


  Number of variables =        1

  Maximum number of calculations  =          1000
  Maximum Hessian update interval =            10
  Maximum step size               =   1.000000000
  Maximum parameter tolerance     =   0.000010000
  Maximum function  tolerance     =   0.000010000
  Maximum gradient  tolerance     =   0.001000000
  Maximum gradient  component     =   0.010000000

  Symmetry constrained optimisation

  Symmetry used for second derivatives

  Cell parameters to be optimised using strains

  Newton-Raphson optimiser to be used

  BFGS hessian update to be used

  Lower half triangular hessian to be used

  Start of bulk optimisation :

  Cycle:      0 Energy:       -34.628904  Gnorm:      4.328237  CPU:    0.023
  ** Hessian calculated **
  Cycle:      1 Energy:       -34.677667  Gnorm:      0.044008  CPU:    0.029
  Cycle:      2 Energy:       -34.677671  Gnorm:      0.003653  CPU:    0.034


  **** Optimisation achieved ****


  Final energy =     -34.67767136 eV
  Final Gnorm  =       0.00000010

  Components of energy : 

--------------------------------------------------------------------------------
  Interatomic potentials     =           5.77546103 eV    
  Monopole - monopole (real) =         -10.25970290 eV    
  Monopole - monopole (recip)=         -30.19342950 eV    
  Monopole - monopole (total)=         -40.45313239 eV    
--------------------------------------------------------------------------------
  Total lattice energy       =         -34.67767136 eV    
--------------------------------------------------------------------------------
  Total lattice energy       =           -3345.8652 kJ/(mole unit cells)
--------------------------------------------------------------------------------

  Final asymmetric unit coordinates :

--------------------------------------------------------------------------------
   No.  Atomic        x           y           z         Radius
        Label       (Frac)      (Frac)      (Frac)       (Angs) 
--------------------------------------------------------------------------------
     1  O     c     0.000000    0.000000    0.000000    0.000000
     2  Cl    c     0.500000    0.500000    0.500000    0.000000
     3  Na    c     0.500000    0.000000    0.000000    0.000000
     4  O     s     0.000000    0.000000    0.000000    0.000000
     5  Cl    s     0.500000    0.500000    0.500000    0.000000
--------------------------------------------------------------------------------

  Final Cartesian lattice vectors (Angstroms) :

        4.405902    0.000000    0.000000
        0.000000    4.405902    0.000000
        0.000000    0.000000    4.405902


  Final cell parameters and derivatives :

--------------------------------------------------------------------------------
       a            4.405902 Angstrom     dE/de1(xx)     0.000000 eV/strain
       b            4.405902 Angstrom     dE/de2(yy)     0.000000 eV/strain
       c            4.405902 Angstrom     dE/de3(zz)     0.000000 eV/strain
       alpha       90.000000 Degrees      dE/de4(yz)     0.000000 eV/strain
       beta        90.000000 Degrees      dE/de5(xz)     0.000000 eV/strain
       gamma       90.000000 Degrees      dE/de6(xy)     0.000000 eV/strain
--------------------------------------------------------------------------------

  Primitive cell volume =            85.527266 Angs**3

  Density of cell =      2.338030 g/cm**3

  Non-primitive cell volume =            85.527266 Angs**3


  Final internal derivatives :

--------------------------------------------------------------------------------
   No.  Atomic          a             b             c           Radius
        Label          (eV)          (eV)          (eV)        (eV/Angs)
--------------------------------------------------------------------------------
      1 O     c       0.000000      0.000000      0.000000      0.000000
      2 Cl    c       0.000000      0.000000      0.000000      0.000000
      3 Na    c       0.000000      0.000000      0.000000      0.000000
      4 O     s       0.000000      0.000000      0.000000      0.000000
      5 Cl    s       0.000000      0.000000      0.000000      0.000000
--------------------------------------------------------------------------------
  Maximum abs         0.000000      0.000000      0.000000      0.000000
--------------------------------------------------------------------------------

  Comparison of initial and final structures : 

--------------------------------------------------------------------------------
  Parameter   Initial value   Final value   Difference    Units      Percent
--------------------------------------------------------------------------------
    Volume        91.368216     85.527266    -5.840950    Angs**3     -6.39
    a              4.504000      4.405902    -0.098098    Angstroms   -2.18
    b              4.504000      4.405902    -0.098098    Angstroms   -2.18
    c              4.504000      4.405902    -0.098098    Angstroms   -2.18
    alpha         90.000000     90.000000     0.000000    Degrees      0.00
    beta          90.000000     90.000000     0.000000    Degrees      0.00
    gamma         90.000000     90.000000     0.000000    Degrees      0.00
      1 x          0.000000      0.000000     0.000000    Fractional   0.00
      1 y          0.000000      0.000000     0.000000    Fractional   0.00
      1 z          0.000000      0.000000     0.000000    Fractional   0.00
      2 x          0.500000      0.500000     0.000000    Fractional   0.00
      2 y          0.500000      0.500000     0.000000    Fractional   0.00
      2 z          0.500000      0.500000     0.000000    Fractional   0.00
      3 x          0.500000      0.500000     0.000000    Fractional   0.00
      3 y          0.000000      0.000000     0.000000    Fractional   0.00
      3 z          0.000000      0.000000     0.000000    Fractional   0.00
      4 x          0.000000      0.000000     0.000000    Fractional   0.00
      4 y          0.000000      0.000000     0.000000    Fractional   0.00
      4 z          0.000000      0.000000     0.000000    Fractional   0.00
      5 x          0.500000      0.500000     0.000000    Fractional   0.00
      5 y          0.500000      0.500000     0.000000    Fractional   0.00
      5 z          0.500000      0.500000     0.000000    Fractional   0.00
--------------------------------------------------------------------------------


  Born effective charge tensors : 

-------------------------------------------------------------------------------
  Atom             x           y             z
-------------------------------------------------------------------------------
    1 O     x      -2.2939      0.0000      0.0000
            y       0.0000     -2.2939      0.0000
            z       0.0000      0.0000     -2.2939
-------------------------------------------------------------------------------
    2 Cl    x      -0.9918     -0.0000      0.0000
            y      -0.0000     -0.9918      0.0000
            z       0.0000      0.0000     -0.9918
-------------------------------------------------------------------------------
    3 Na    x       0.8372     -0.0000     -0.0000
            y      -0.0000      1.2243     -0.0000
            z       0.0000     -0.0000      1.2243
-------------------------------------------------------------------------------




  Elastic Constant Matrix: (Units=GPa)

-------------------------------------------------------------------------------
  Indices      1         2         3         4         5         6    
-------------------------------------------------------------------------------
       1     82.7680   24.3534   24.3534   -0.0000    0.0000   -0.0000
       2     24.3534   82.7680   24.3534   -0.0000   -0.0000   -0.0000
       3     24.3534   24.3534   82.7680    0.0000   -0.0000    0.0000
       4     -0.0000   -0.0000    0.0000   24.3534   -0.0000   -0.0000
       5      0.0000   -0.0000   -0.0000   -0.0000   24.3534   -0.0000
       6     -0.0000   -0.0000    0.0000   -0.0000   -0.0000   24.3534
-------------------------------------------------------------------------------


  Elastic Compliance Matrix: (Units=1/GPa)

-------------------------------------------------------------------------------
  Indices      1         2         3         4         5         6    
-------------------------------------------------------------------------------
       1    0.013948 -0.003171 -0.003171 -0.000000 -0.000000  0.000000
       2   -0.003171  0.013948 -0.003171  0.000000 -0.000000  0.000000
       3   -0.003171 -0.003171  0.013948 -0.000000  0.000000 -0.000000
       4   -0.000000  0.000000 -0.000000  0.041062  0.000000  0.000000
       5   -0.000000 -0.000000  0.000000  0.000000  0.041062  0.000000
       6    0.000000  0.000000 -0.000000  0.000000  0.000000  0.041062
-------------------------------------------------------------------------------

  Mechanical properties :

-------------------------------------------------------------------------------
  Convention :                    Reuss         Voigt         Hill
-------------------------------------------------------------------------------
  Bulk  Modulus (GPa)     =      43.82493      43.82493      43.82493
  Shear Modulus (GPa)     =      26.08758      26.29496      26.19127
-------------------------------------------------------------------------------
  Velocity S-wave (km/s)  =       3.34035       3.35360       3.34698
  Velocity P-wave (km/s)  =       5.79842       5.80861       5.80351
-------------------------------------------------------------------------------
  Compressibility (1/GPa) =    0.02281806
-------------------------------------------------------------------------------
  Stress axis :                     x             y             z
-------------------------------------------------------------------------------
  Youngs Moduli (GPa)     =      71.69479      71.69479      71.69479
-------------------------------------------------------------------------------
  Poissons Ratio (x)      =                     0.22734       0.22734
  Poissons Ratio (y)      =       0.22734                     0.22734
  Poissons Ratio (z)      =       0.22734       0.22734
-------------------------------------------------------------------------------


  Piezoelectric Strain Matrix: (Units=C/m**2)

-------------------------------------------------------------------------------
  Indices      1         2         3         4         5         6    
-------------------------------------------------------------------------------
       x    -0.00000  -0.00000  -0.00000  -0.00000   0.00000   0.00000
       y    -0.00000   0.00000  -0.00000   0.00000  -0.00000   0.00000
       z     0.00000   0.00000   0.00000  -0.00000   0.00000  -0.00000
-------------------------------------------------------------------------------


  Piezoelectric Stress Matrix: (Units=10**-11 C/N)

-------------------------------------------------------------------------------
  Indices      1         2         3         4         5         6    
-------------------------------------------------------------------------------
       x    -0.00000  -0.00000  -0.00000  -0.00000   0.00000   0.00000
       y    -0.00000   0.00000  -0.00000   0.00000  -0.00000   0.00000
       z     0.00000   0.00000  -0.00000  -0.00000   0.00000  -0.00000
-------------------------------------------------------------------------------


  Static dielectric constant tensor : 

-------------------------------------------------------------------------------
              x         y         z
-------------------------------------------------------------------------------
       x    11.08357  -0.00000  -0.00000
       y    -0.00000  11.08357  -0.00000
       z    -0.00000  -0.00000  11.08357
--------------------------------------------------------------------------------

  High frequency dielectric constant tensor : 

-------------------------------------------------------------------------------
              x         y         z
-------------------------------------------------------------------------------
       x     1.50771  -0.00000  -0.00000
       y    -0.00000   1.50771  -0.00000
       z    -0.00000  -0.00000   1.50771
-------------------------------------------------------------------------------

  Static refractive indices : 

-------------------------------------------------------------------------------
    1 =    3.32920      2 =    3.32920      3 =    3.32920
-------------------------------------------------------------------------------

  High frequency refractive indices : 

-------------------------------------------------------------------------------
    1 =    1.22789      2 =    1.22789      3 =    1.22789
-------------------------------------------------------------------------------


  Time to end of optimisation =       0.0477 seconds

********************************************************************************
*  Defect calculation for configuration   1 :                                  *
********************************************************************************

  Total number of defects =      3

  Total charge on defect  =   2.00

  Defect centre is at   2.2520   2.2520   0.0000  Angs

  Region 1 radius =  12.0000      Number of ions =    622

  Number of symmetry inequivalent region 1 ions  =    201

  Region 2 radius =  16.0000      Number of ions =    762

  Number of symmetry inequivalent region 2a ions =    224

  Region 2a mode = 4 : screened electrostatics due to region 1 
                       neglect correction to region 1 forces from 2a
                       region 2a displacements based on defects only

  Region 2a ions will only interact with defects in region 1

  Vacancies:

--------------------------------------------------------------------------------
    Specification type     Symbol/Number         x          y          z
--------------------------------------------------------------------------------
    Cartesian                                0.000000   0.000000   0.000000
    Cartesian                                4.504000   4.504000   0.000000
--------------------------------------------------------------------------------

  Interstitials:

--------------------------------------------------------------------------------
    Specification type     Symbol/Number         x          y          z
--------------------------------------------------------------------------------
    Atom/Cartesian          O                0.810720   0.810720   0.000000
--------------------------------------------------------------------------------


  Symmetry reduced region 1 (Relative to defect centre) :

--------------------------------------------------------------------------------
   No.   Atomic       x            y             z       Radius  Multiplicity   
         Label      (Angs)       (Angs)        (Angs)    (Angs)     
--------------------------------------------------------------------------------
     1  O     c     -1.4413      -1.4413       0.0000    0.0000     1    Defect
     2  Na    c     -0.0490 *     2.1539 *     0.0000    0.0000     2          
     3  Cl    c     -0.0490 *    -0.0490      -2.2030 *  0.0000     2          
     4  Na    c     -0.0490 *    -2.2520 *     0.0000    0.0000     2          
     5  O     c      2.1539 *    -2.2520 *     0.0000    0.0000     2          
     6  Na    c      2.1539 *     2.1539      -2.2030 *  0.0000     2          
     7  Na    c      2.1539 *    -2.2520 *    -2.2030 *  0.0000     4          
     8  Na    c     -2.2520 *    -2.2520      -2.2030 *  0.0000     2          
     9  Na    c      4.3569 *     2.1539 *     0.0000    0.0000     2          
    10  Cl    c     -0.0490 *     4.3569 *    -2.2030 *  0.0000     4          
    11  Na    c     -0.0490 *     2.1539 *     4.4059 *  0.0000     4          
    12  Na    c      4.3569 *    -2.2520 *     0.0000    0.0000     2          
    13  Na    c     -0.0490 *    -2.2520 *     4.4059 *  0.0000     4          
    14  Na    c     -4.4550 *     2.1539 *     0.0000    0.0000     2          
    15  Cl    c     -0.0490 *    -4.4550 *    -2.2030 *  0.0000     4          
    16  Na    c     -4.4550 *    -2.2520 *     0.0000    0.0000     2          
    17  O     c      2.1539 *     2.1539       4.4059 *  0.0000     2          
    18  O     c      2.1539 *    -2.2520 *     4.4059 *  0.0000     4          
    19  O     c     -2.2520 *    -2.2520       4.4059 *  0.0000     2          
    20  Cl    c      4.3569 *     4.3569      -2.2030 *  0.0000     2          
    21  Na    c     -0.0490 *     6.5598 *     0.0000    0.0000     2          
    22  Na    c      4.3569 *     2.1539 *     4.4059 *  0.0000     4          
    23  Na    c      4.3569 *    -2.2520 *     4.4059 *  0.0000     4          
    24  Cl    c     -0.0490 *    -0.0490       6.6089 *  0.0000     2          
    25  Cl    c      4.3569 *    -4.4550 *    -2.2030 *  0.0000     4          
    26  Na    c     -4.4550 *     2.1539 *     4.4059 *  0.0000     4          
    27  Na    c     -0.0490 *    -6.6579 *     0.0000    0.0000     2          
    28  Na    c     -4.4550 *    -2.2520 *     4.4059 *  0.0000     4          
    29  Cl    c     -4.4550 *    -4.4550      -2.2030 *  0.0000     2          
    30  O     c      2.1539 *     6.5598 *     0.0000    0.0000     2          
    31  O     c      6.5598 *    -2.2520 *     0.0000    0.0000     2          
    32  O     c      2.1539 *    -6.6579 *     0.0000    0.0000     2          
    33  O     c     -2.2520 *    -6.6579 *     0.0000    0.0000     2          
    34  Na    c      2.1539 *     6.5598 *    -2.2030 *  0.0000     4          
    35  Na    c      2.1539 *     2.1539       6.6089 *  0.0000     2          
    36  Na    c      6.5598 *    -2.2520 *    -2.2030 *  0.0000     4          
    37  Na    c      2.1539 *    -2.2520 *     6.6089 *  0.0000     4          
    38  Na    c      2.1539 *    -6.6579 *    -2.2030 *  0.0000     4          
    39  Na    c     -2.2520 *    -2.2520       6.6089 *  0.0000     2          
    40  Na    c     -2.2520 *    -6.6579 *    -2.2030 *  0.0000     4          
    41  Na    c      4.3569 *     6.5598 *     0.0000    0.0000     2          
    42  Na    c     -0.0490 *     6.5598 *     4.4059 *  0.0000     4          
    43  Cl    c     -0.0490 *     4.3569 *     6.6089 *  0.0000     4          
    44  Na    c     -4.4550 *     6.5598 *     0.0000    0.0000     2          
    45  Na    c      4.3569 *    -6.6579 *     0.0000    0.0000     2          
    46  Cl    c     -0.0490 *    -4.4550 *     6.6089 *  0.0000     4          
    47  Na    c     -0.0490 *    -6.6579 *     4.4059 *  0.0000     4          
    48  Na    c     -4.4550 *    -6.6579 *     0.0000    0.0000     2          
    49  O     c      2.1539 *     6.5598 *     4.4059 *  0.0000     4          
    50  O     c      6.5598 *    -2.2520 *     4.4059 *  0.0000     4          
    51  O     c      2.1539 *    -6.6579 *     4.4059 *  0.0000     4          
    52  O     c     -2.2520 *    -6.6579 *     4.4059 *  0.0000     4          
    53  Na    c      4.3569 *     6.5598 *     4.4059 *  0.0000     4          
    54  Na    c      8.7628 *     2.1539 *     0.0000    0.0000     2          
    55  Cl    c     -0.0490 *     8.7628 *    -2.2030 *  0.0000     4          
    56  Cl    c      4.3569 *     4.3569       6.6089 *  0.0000     2          
    57  Na    c      8.7628 *    -2.2520 *     0.0000    0.0000     2          
    58  Na    c     -0.0490 *     2.1539 *     8.8118 *  0.0000     4          
    59  Na    c     -4.4550 *     6.5598 *     4.4059 *  0.0000     4          
    60  Cl    c      4.3569 *    -4.4550 *     6.6089 *  0.0000     4          
    61  Na    c     -0.0490 *    -2.2520 *     8.8118 *  0.0000     4          
    62  Na    c      4.3569 *    -6.6579 *     4.4059 *  0.0000     4          
    63  Na    c     -8.8609 *     2.1539 *     0.0000    0.0000     2          
    64  Cl    c     -0.0490 *    -8.8609 *    -2.2030 *  0.0000     4          
    65  Cl    c     -4.4550 *    -4.4550       6.6089 *  0.0000     2          
    66  Na    c     -8.8609 *    -2.2520 *     0.0000    0.0000     2          
    67  Na    c     -4.4550 *    -6.6579 *     4.4059 *  0.0000     4          
    68  O     c      6.5598 *     6.5598       0.0000    0.0000     1          
    69  O     c      2.1539 *     2.1539       8.8118 *  0.0000     2          
    70  O     c      2.1539 *    -2.2520 *     8.8118 *  0.0000     4          
    71  O     c      6.5598 *    -6.6579 *     0.0000    0.0000     2          
    72  O     c     -2.2520 *    -2.2520       8.8118 *  0.0000     2          
    73  O     c     -6.6579 *    -6.6579       0.0000    0.0000     1          
    74  Na    c      6.5598 *     6.5598      -2.2030 *  0.0000     2          
    75  Na    c      2.1539 *     6.5598 *     6.6089 *  0.0000     4          
    76  Na    c      6.5598 *    -2.2520 *     6.6089 *  0.0000     4          
    77  Na    c      6.5598 *    -6.6579 *    -2.2030 *  0.0000     4          
    78  Na    c      2.1539 *    -6.6579 *     6.6089 *  0.0000     4          
    79  Na    c     -2.2520 *    -6.6579 *     6.6089 *  0.0000     4          
    80  Na    c     -6.6579 *    -6.6579      -2.2030 *  0.0000     2          
    81  Cl    c      4.3569 *     8.7628 *    -2.2030 *  0.0000     4          
    82  Na    c      8.7628 *     2.1539 *     4.4059 *  0.0000     4          
    83  Na    c      4.3569 *     2.1539 *     8.8118 *  0.0000     4          
    84  Na    c      8.7628 *    -2.2520 *     4.4059 *  0.0000     4          
    85  Cl    c      8.7628 *    -4.4550 *    -2.2030 *  0.0000     4          
    86  Na    c      4.3569 *    -2.2520 *     8.8118 *  0.0000     4          
    87  Na    c     -4.4550 *     2.1539 *     8.8118 *  0.0000     4          
    88  Cl    c      4.3569 *    -8.8609 *    -2.2030 *  0.0000     4          
    89  Na    c     -8.8609 *     2.1539 *     4.4059 *  0.0000     4          
    90  Na    c     -4.4550 *    -2.2520 *     8.8118 *  0.0000     4          
    91  Na    c     -8.8609 *    -2.2520 *     4.4059 *  0.0000     4          
    92  Cl    c     -4.4550 *    -8.8609 *    -2.2030 *  0.0000     4          
    93  O     c      6.5598 *     6.5598       4.4059 *  0.0000     2          
    94  O     c      6.5598 *    -6.6579 *     4.4059 *  0.0000     4          
    95  O     c     -6.6579 *    -6.6579       4.4059 *  0.0000     2          
    96  Na    c      8.7628 *     6.5598 *     0.0000    0.0000     2          
    97  Na    c     -0.0490 *    10.9657 *     0.0000    0.0000     2          
    98  Cl    c     -0.0490 *     8.7628 *     6.6089 *  0.0000     4          
    99  Na    c     -0.0490 *     6.5598 *     8.8118 *  0.0000     4          
   100  Na    c      8.7628 *    -6.6579 *     0.0000    0.0000     2          
   101  Cl    c     -0.0490 *    -0.0490      11.0148 *  0.0000     2          
   102  Na    c     -8.8609 *     6.5598 *     0.0000    0.0000     2          
   103  Na    c     -0.0490 *    -6.6579 *     8.8118 *  0.0000     4          
   104  Cl    c     -0.0490 *    -8.8609 *     6.6089 *  0.0000     4          
   105  Na    c     -0.0490 *   -11.0638 *     0.0000    0.0000     2          
   106  Na    c     -8.8609 *    -6.6579 *     0.0000    0.0000     2          
   107  O     c      2.1539 *    10.9657 *     0.0000    0.0000     2          
   108  O     c      2.1539 *     6.5598 *     8.8118 *  0.0000     4          
   109  O     c     10.9657 *    -2.2520 *     0.0000    0.0000     2          
   110  O     c      6.5598 *    -2.2520 *     8.8118 *  0.0000     4          
   111  O     c      2.1539 *    -6.6579 *     8.8118 *  0.0000     4          
   112  O     c      2.1539 *   -11.0638 *     0.0000    0.0000     2          
   113  O     c     -2.2520 *    -6.6579 *     8.8118 *  0.0000     4          
   114  O     c     -2.2520 *   -11.0638 *     0.0000    0.0000     2          
   115  Na    c      6.5598 *     6.5598       6.6089 *  0.0000     2          
   116  Na    c      2.1539 *    10.9657 *    -2.2030 *  0.0000     4          
   117  Na    c     10.9657 *    -2.2520 *    -2.2030 *  0.0000     4          
   118  Na    c      2.1539 *     2.1539      11.0148 *  0.0000     2          
   119  Na    c      2.1539 *    -2.2520 *    11.0148 *  0.0000     4          
   120  Na    c      6.5598 *    -6.6579 *     6.6089 *  0.0000     4          
   121  Na    c     -2.2520 *    -2.2520      11.0148 *  0.0000     2          
   122  Na    c      2.1539 *   -11.0638 *    -2.2030 *  0.0000     4          
   123  Na    c     -2.2520 *   -11.0638 *    -2.2030 *  0.0000     4          
   124  Na    c     -6.6579 *    -6.6579       6.6089 *  0.0000     2          
   125  Na    c      4.3569 *    10.9657 *     0.0000    0.0000     2          
   126  Na    c      8.7628 *     6.5598 *     4.4059 *  0.0000     4          
   127  Cl    c      4.3569 *     8.7628 *     6.6089 *  0.0000     4          
   128  Na    c     -0.0490 *    10.9657 *     4.4059 *  0.0000     4          
   129  Na    c      4.3569 *     6.5598 *     8.8118 *  0.0000     4          
   130  Na    c     -4.4550 *    10.9657 *     0.0000    0.0000     2          
   131  Cl    c     -0.0490 *     4.3569 *    11.0148 *  0.0000     4          
   132  Cl    c      8.7628 *    -4.4550 *     6.6089 *  0.0000     4          
   133  Na    c     -4.4550 *     6.5598 *     8.8118 *  0.0000     4          
   134  Na    c      8.7628 *    -6.6579 *     4.4059 *  0.0000     4          
   135  Na    c      4.3569 *    -6.6579 *     8.8118 *  0.0000     4          
   136  Na    c     -8.8609 *     6.5598 *     4.4059 *  0.0000     4          
   137  Cl    c     -0.0490 *    -4.4550 *    11.0148 *  0.0000     4          
   138  Cl    c      4.3569 *    -8.8609 *     6.6089 *  0.0000     4          
   139  Na    c      4.3569 *   -11.0638 *     0.0000    0.0000     2          
   140  Na    c     -0.0490 *   -11.0638 *     4.4059 *  0.0000     4          
   141  Na    c     -4.4550 *    -6.6579 *     8.8118 *  0.0000     4          
   142  Cl    c     -4.4550 *    -8.8609 *     6.6089 *  0.0000     4          
   143  Na    c     -4.4550 *   -11.0638 *     0.0000    0.0000     2          
   144  Na    c     -8.8609 *    -6.6579 *     4.4059 *  0.0000     4          
   145  O     s     -1.4413      -1.4413       0.0000    0.0000     1    Defect
   146  Cl    s     -0.0490 *    -0.0490      -2.2030 *  0.0000     2          
   147  O     s      2.1539 *    -2.2520 *     0.0000    0.0000     2          
   148  Cl    s     -0.0490 *     4.3569 *    -2.2030 *  0.0000     4          
   149  Cl    s     -0.0490 *    -4.4550 *    -2.2030 *  0.0000     4          
   150  O     s      2.1539 *     2.1539       4.4059 *  0.0000     2          
   151  O     s      2.1539 *    -2.2520 *     4.4059 *  0.0000     4          
   152  O     s     -2.2520 *    -2.2520       4.4059 *  0.0000     2          
   153  Cl    s      4.3569 *     4.3569      -2.2030 *  0.0000     2          
   154  Cl    s     -0.0490 *    -0.0490       6.6089 *  0.0000     2          
   155  Cl    s      4.3569 *    -4.4550 *    -2.2030 *  0.0000     4          
   156  Cl    s     -4.4550 *    -4.4550      -2.2030 *  0.0000     2          
   157  O     s      2.1539 *     6.5598 *     0.0000    0.0000     2          
   158  O     s      6.5598 *    -2.2520 *     0.0000    0.0000     2          
   159  O     s      2.1539 *    -6.6579 *     0.0000    0.0000     2          
   160  O     s     -2.2520 *    -6.6579 *     0.0000    0.0000     2          
   161  Cl    s     -0.0490 *     4.3569 *     6.6089 *  0.0000     4          
   162  Cl    s     -0.0490 *    -4.4550 *     6.6089 *  0.0000     4          
   163  O     s      2.1539 *     6.5598 *     4.4059 *  0.0000     4          
   164  O     s      6.5598 *    -2.2520 *     4.4059 *  0.0000     4          
   165  O     s      2.1539 *    -6.6579 *     4.4059 *  0.0000     4          
   166  O     s     -2.2520 *    -6.6579 *     4.4059 *  0.0000     4          
   167  Cl    s     -0.0490 *     8.7628 *    -2.2030 *  0.0000     4          
   168  Cl    s      4.3569 *     4.3569       6.6089 *  0.0000     2          
   169  Cl    s      4.3569 *    -4.4550 *     6.6089 *  0.0000     4          
   170  Cl    s     -0.0490 *    -8.8609 *    -2.2030 *  0.0000     4          
   171  Cl    s     -4.4550 *    -4.4550       6.6089 *  0.0000     2          
   172  O     s      6.5598 *     6.5598       0.0000    0.0000     1          
   173  O     s      2.1539 *     2.1539       8.8118 *  0.0000     2          
   174  O     s      2.1539 *    -2.2520 *     8.8118 *  0.0000     4          
   175  O     s      6.5598 *    -6.6579 *     0.0000    0.0000     2          
   176  O     s     -2.2520 *    -2.2520       8.8118 *  0.0000     2          
   177  O     s     -6.6579 *    -6.6579       0.0000    0.0000     1          
   178  Cl    s      4.3569 *     8.7628 *    -2.2030 *  0.0000     4          
   179  Cl    s      8.7628 *    -4.4550 *    -2.2030 *  0.0000     4          
   180  Cl    s      4.3569 *    -8.8609 *    -2.2030 *  0.0000     4          
   181  Cl    s     -4.4550 *    -8.8609 *    -2.2030 *  0.0000     4          
   182  O     s      6.5598 *     6.5598       4.4059 *  0.0000     2          
   183  O     s      6.5598 *    -6.6579 *     4.4059 *  0.0000     4          
   184  O     s     -6.6579 *    -6.6579       4.4059 *  0.0000     2          
   185  Cl    s     -0.0490 *     8.7628 *     6.6089 *  0.0000     4          
   186  Cl    s     -0.0490 *    -0.0490      11.0148 *  0.0000     2          
   187  Cl    s     -0.0490 *    -8.8609 *     6.6089 *  0.0000     4          
   188  O     s      2.1539 *    10.9657 *     0.0000    0.0000     2          
   189  O     s      2.1539 *     6.5598 *     8.8118 *  0.0000     4          
   190  O     s     10.9657 *    -2.2520 *     0.0000    0.0000     2          
   191  O     s      6.5598 *    -2.2520 *     8.8118 *  0.0000     4          
   192  O     s      2.1539 *    -6.6579 *     8.8118 *  0.0000     4          
   193  O     s      2.1539 *   -11.0638 *     0.0000    0.0000     2          
   194  O     s     -2.2520 *    -6.6579 *     8.8118 *  0.0000     4          
   195  O     s     -2.2520 *   -11.0638 *     0.0000    0.0000     2          
   196  Cl    s      4.3569 *     8.7628 *     6.6089 *  0.0000     4          
   197  Cl    s     -0.0490 *     4.3569 *    11.0148 *  0.0000     4          
   198  Cl    s      8.7628 *    -4.4550 *     6.6089 *  0.0000     4          
   199  Cl    s     -0.0490 *    -4.4550 *    11.0148 *  0.0000     4          
   200  Cl    s      4.3569 *    -8.8609 *     6.6089 *  0.0000     4          
   201  Cl    s     -4.4550 *    -8.8609 *     6.6089 *  0.0000     4          
--------------------------------------------------------------------------------


  Constraints on symmetry reduced coordinates :

--------------------------------------------------------------------------------
  Constraint no.      Unconstrained     Constrained    Coefficient    
                         Variable         Variable
--------------------------------------------------------------------------------
           1                 3 x             3 y         1.00000
           2                 6 x             6 y         1.00000
           3                 8 x             8 y         1.00000
           4                17 x            17 y         1.00000
           5                19 x            19 y         1.00000
           6                20 x            20 y         1.00000
           7                24 x            24 y         1.00000
           8                29 x            29 y         1.00000
           9                35 x            35 y         1.00000
          10                39 x            39 y         1.00000
          11                56 x            56 y         1.00000
          12                65 x            65 y         1.00000
          13                68 x            68 y         1.00000
          14                69 x            69 y         1.00000
          15                72 x            72 y         1.00000
          16                73 x            73 y         1.00000
          17                74 x            74 y         1.00000
          18                80 x            80 y         1.00000
          19                93 x            93 y         1.00000
          20                95 x            95 y         1.00000
          21               101 x           101 y         1.00000
          22               115 x           115 y         1.00000
          23               118 x           118 y         1.00000
          24               121 x           121 y         1.00000
          25               124 x           124 y         1.00000
          26               146 x           146 y         1.00000
          27               150 x           150 y         1.00000
          28               152 x           152 y         1.00000
          29               153 x           153 y         1.00000
          30               154 x           154 y         1.00000
          31               156 x           156 y         1.00000
          32               168 x           168 y         1.00000
          33               171 x           171 y         1.00000
          34               172 x           172 y         1.00000
          35               173 x           173 y         1.00000
          36               176 x           176 y         1.00000
          37               177 x           177 y         1.00000
          38               182 x           182 y         1.00000
          39               184 x           184 y         1.00000
          40               186 x           186 y         1.00000
--------------------------------------------------------------------------------


  Components of defect energy : 

--------------------------------------------------------------------------------
  Region 1 - region 1                   =     94.79233022 eV
  Region 1 - region 2a (unrelaxed)      =    -54.70721372 eV
  Region 1 - 2a (relaxed - correction)  =     -1.03862512 eV
  Region 1 (Total)                      =     39.04649138 eV
  Region 2a                             =      0.51974888 eV
  Region 2b                             =     -1.65762761 eV
--------------------------------------------------------------------------------
  Total defect energy                   =     37.90861264 eV
--------------------------------------------------------------------------------

  Largest displacement in region 2 =   0.0481 Angstroms


  Number of variables =      507

  Maximum number of calculations  =        1000
  Maximum Hessian update interval =          10
  Maximum step size               =   1.0000000
  Maximum parameter tolerance     =   0.0000100
  Maximum function  tolerance     =   0.0000100
  Maximum gradient  tolerance     =   0.0010000

  Symmetry adapted optimisation

  Symmetry to be used for second derivatives

  Newton-Raphson optimiser to be used

  BFGS hessian update to be used

  Lower half triangular hessian to be used

  Start of defect optimisation :

  Cycle:      0 Defect Energy:  37.908613  Gnorm:     0.090333  CPU:    2.564
  ** Hessian calculated **
  Cycle:      1 Defect Energy:  32.562017  Gnorm:     0.072779  CPU:    8.843
  Cycle:      2 Defect Energy:  26.554889  Gnorm:     0.026514  CPU:   12.941
  Cycle:      3 Defect Energy:  26.421145  Gnorm:     0.024509  CPU:   15.176
  ** Hessian calculated **
  Cycle:      4 Defect Energy:  24.620879  Gnorm:     0.009353  CPU:   18.998
  ** Hessian calculated **
  Cycle:      5 Defect Energy:  24.477591  Gnorm:     0.006347  CPU:   21.152
  Cycle:      6 Defect Energy:  24.439194  Gnorm:     0.004319  CPU:   21.466
  Cycle:      7 Defect Energy:  24.396257  Gnorm:     0.003685  CPU:   21.769
  Cycle:      8 Defect Energy:  24.348258  Gnorm:     0.003048  CPU:   22.096
  Cycle:      9 Defect Energy:  24.309155  Gnorm:     0.002823  CPU:   22.405
  Cycle:     10 Defect Energy:  24.274177  Gnorm:     0.002817  CPU:   22.715
  Cycle:     11 Defect Energy:  24.243997  Gnorm:     0.003001  CPU:   23.035
  Cycle:     12 Defect Energy:  24.214152  Gnorm:     0.003247  CPU:   23.352
  Cycle:     13 Defect Energy:  24.185324  Gnorm:     0.003215  CPU:   23.668
  Cycle:     14 Defect Energy:  24.154047  Gnorm:     0.003422  CPU:   23.968
  ** Hessian calculated **
  Cycle:     15 Defect Energy:  24.102740  Gnorm:     0.003379  CPU:   25.375
  Cycle:     16 Defect Energy:  24.027408  Gnorm:     0.003294  CPU:   25.575
  Cycle:     17 Defect Energy:  23.872071  Gnorm:     0.002810  CPU:   25.746
  Cycle:     18 Defect Energy:  23.786929  Gnorm:     0.001433  CPU:   25.915
  Cycle:     19 Defect Energy:  23.758143  Gnorm:     0.000906  CPU:   26.085
  Cycle:     20 Defect Energy:  23.750279  Gnorm:     0.000639  CPU:   26.254
  Cycle:     21 Defect Energy:  23.746970  Gnorm:     0.000365  CPU:   26.425
  Cycle:     22 Defect Energy:  23.745886  Gnorm:     0.000258  CPU:   26.595
  Cycle:     23 Defect Energy:  23.745359  Gnorm:     0.000187  CPU:   26.767
  Cycle:     24 Defect Energy:  23.745104  Gnorm:     0.000126  CPU:   26.937
  ** Hessian calculated **
  Cycle:     25 Defect Energy:  23.745091  Gnorm:     0.000080  CPU:   27.724
  Cycle:     26 Defect Energy:  23.745073  Gnorm:     0.000069  CPU:   27.896
  Cycle:     27 Defect Energy:  23.745067  Gnorm:     0.000065  CPU:   28.069
  Cycle:     28 Defect Energy:  23.745049  Gnorm:     0.000064  CPU:   28.241
  Cycle:     29 Defect Energy:  23.745046  Gnorm:     0.000067  CPU:   28.418
  Cycle:     30 Defect Energy:  23.745028  Gnorm:     0.000070  CPU:   28.630
  Cycle:     31 Defect Energy:  23.745033  Gnorm:     0.000074  CPU:   28.860
  Cycle:     32 Defect Energy:  23.745009  Gnorm:     0.000075  CPU:   29.093
  Cycle:     33 Defect Energy:  23.745024  Gnorm:     0.000077  CPU:   29.353
  Cycle:     34 Defect Energy:  23.745004  Gnorm:     0.000076  CPU:   29.637
  ** Hessian calculated **
  Cycle:     35 Defect Energy:  23.745009  Gnorm:     0.000069  CPU:   30.794


  **** Optimisation achieved ****


  Final defect energy  =       23.74500549
  Final defect Gnorm   =        0.00006667

  Components of defect energy : 

--------------------------------------------------------------------------------
  Region 1 - region 1                   =     72.87777574 eV
  Region 1 - region 2a (unrelaxed)      =    -47.11156276 eV
  Region 1 - 2a (relaxed - correction)  =     -0.75032535 eV
  Region 1 (Total)                      =     25.01588763 eV
  Region 2a                             =      0.37457055 eV
  Region 2b                             =     -1.64545268 eV
--------------------------------------------------------------------------------
  Total defect energy                   =     23.74500549 eV
--------------------------------------------------------------------------------

  Largest displacement in region 2 =   0.0481 Angstroms

  Final coordinates of region 1 :

--------------------------------------------------------------------------------
   No.  Atomic        x           y           z          Radius      Charge
        Label       (Angs)      (Angs)      (Angs)       (Angs)       (e) 
--------------------------------------------------------------------------------
     1  O     c     0.810720    0.810720    0.000000    0.000000    0.183000
     2  Na    c     1.766723    3.873453    0.000000    0.000000    1.000000
     3  Na    c     3.873453    1.766723    0.000000    0.000000    1.000000
     4  Cl    c     2.621088    2.621088   -2.206207    0.000000    1.485000
     5  Cl    c     2.621088    2.621088    2.206207    0.000000    1.485000
     6  Na    c     2.426830   -0.489878    0.000000    0.000000    1.000000
     7  Na    c    -0.489878    2.426830    0.000000    0.000000    1.000000
     8  O     c     4.567316   -0.182891    0.000000    0.000000    0.183000
     9  O     c    -0.182891    4.567316    0.000000    0.000000    0.183000
    10  Na    c     4.497904    4.497904   -2.521392    0.000000    1.000000
    11  Na    c     4.497904    4.497904    2.521392    0.000000    1.000000
    12  Na    c     4.575061   -0.135041   -2.236248    0.000000    1.000000
    13  Na    c     4.575061   -0.135041    2.236248    0.000000    1.000000
    14  Na    c    -0.135041    4.575061   -2.236248    0.000000    1.000000
    15  Na    c    -0.135041    4.575061    2.236248    0.000000    1.000000
    16  Na    c     0.469522    0.469522   -2.128091    0.000000    1.000000
    17  Na    c     0.469522    0.469522    2.128091    0.000000    1.000000
    18  Na    c     6.890738    4.277827    0.000000    0.000000    1.000000
    19  Na    c     4.277827    6.890738    0.000000    0.000000    1.000000
    20  Cl    c     2.462470    6.341098   -1.954301    0.000000    1.485000
    21  Cl    c     2.462470    6.341098    1.954301    0.000000    1.485000
    22  Cl    c     6.341098    2.462470   -1.954301    0.000000    1.485000
    23  Cl    c     6.341098    2.462470    1.954301    0.000000    1.485000
    24  Na    c     2.211330    4.432387    4.452192    0.000000    1.000000
    25  Na    c     2.211330    4.432387   -4.452192    0.000000    1.000000
    26  Na    c     4.432387    2.211330    4.452192    0.000000    1.000000
    27  Na    c     4.432387    2.211330   -4.452192    0.000000    1.000000
    28  Na    c     6.688265    0.274196    0.000000    0.000000    1.000000
    29  Na    c     0.274196    6.688265    0.000000    0.000000    1.000000
    30  Na    c     2.262309   -0.032818    4.565703    0.000000    1.000000
    31  Na    c     2.262309   -0.032818   -4.565703    0.000000    1.000000
    32  Na    c    -0.032818    2.262309    4.565703    0.000000    1.000000
    33  Na    c    -0.032818    2.262309   -4.565703    0.000000    1.000000
    34  Na    c    -2.321934    4.824274    0.000000    0.000000    1.000000
    35  Na    c     4.824274   -2.321934    0.000000    0.000000    1.000000
    36  Cl    c     2.180381   -2.196762   -2.141730    0.000000    1.485000
    37  Cl    c     2.180381   -2.196762    2.141730    0.000000    1.485000
    38  Cl    c    -2.196762    2.180381   -2.141730    0.000000    1.485000
    39  Cl    c    -2.196762    2.180381    2.141730    0.000000    1.485000
    40  Na    c    -2.300878    0.005850    0.000000    0.000000    1.000000
    41  Na    c     0.005850   -2.300878    0.000000    0.000000    1.000000
    42  O     c     4.449601    4.449601    4.596931    0.000000    0.183000
    43  O     c     4.449601    4.449601   -4.596931    0.000000    0.183000
    44  O     c     4.453342   -0.002877    4.419663    0.000000    0.183000
    45  O     c     4.453342   -0.002877   -4.419663    0.000000    0.183000
    46  O     c    -0.002877    4.453342    4.419663    0.000000    0.183000
    47  O     c    -0.002877    4.453342   -4.419663    0.000000    0.183000
    48  O     c     0.098250    0.098250    4.325109    0.000000    0.183000
    49  O     c     0.098250    0.098250   -4.325109    0.000000    0.183000
    50  Cl    c     6.345496    6.345496   -1.861873    0.000000    1.485000
    51  Cl    c     6.345496    6.345496    1.861873    0.000000    1.485000
    52  Na    c     2.195035    9.159931    0.000000    0.000000    1.000000
    53  Na    c     9.159931    2.195035    0.000000    0.000000    1.000000
    54  Na    c     6.645034    4.417586    4.626467    0.000000    1.000000
    55  Na    c     6.645034    4.417586   -4.626467    0.000000    1.000000
    56  Na    c     4.417586    6.645034    4.626467    0.000000    1.000000
    57  Na    c     4.417586    6.645034   -4.626467    0.000000    1.000000
    58  Na    c     6.646536   -0.059892    4.511728    0.000000    1.000000
    59  Na    c     6.646536   -0.059892   -4.511728    0.000000    1.000000
    60  Na    c    -0.059892    6.646536    4.511728    0.000000    1.000000
    61  Na    c    -0.059892    6.646536   -4.511728    0.000000    1.000000
    62  Cl    c     2.212954    2.212954    6.599033    0.000000    1.485000
    63  Cl    c     2.212954    2.212954   -6.599033    0.000000    1.485000
    64  Cl    c     6.674670   -2.200541   -2.266631    0.000000    1.485000
    65  Cl    c     6.674670   -2.200541    2.266631    0.000000    1.485000
    66  Cl    c    -2.200541    6.674670   -2.266631    0.000000    1.485000
    67  Cl    c    -2.200541    6.674670    2.266631    0.000000    1.485000
    68  Na    c    -2.222895    4.449391    4.485248    0.000000    1.000000
    69  Na    c    -2.222895    4.449391   -4.485248    0.000000    1.000000
    70  Na    c     4.449391   -2.222895    4.485248    0.000000    1.000000
    71  Na    c     4.449391   -2.222895   -4.485248    0.000000    1.000000
    72  Na    c     2.258514   -4.410428    0.000000    0.000000    1.000000
    73  Na    c    -4.410428    2.258514    0.000000    0.000000    1.000000
    74  Na    c    -2.136134    0.026692    4.168828    0.000000    1.000000
    75  Na    c    -2.136134    0.026692   -4.168828    0.000000    1.000000
    76  Na    c     0.026692   -2.136134    4.168828    0.000000    1.000000
    77  Na    c     0.026692   -2.136134   -4.168828    0.000000    1.000000
    78  Cl    c    -1.989284   -1.989284   -1.962118    0.000000    1.485000
    79  Cl    c    -1.989284   -1.989284    1.962118    0.000000    1.485000
    80  O     c     4.399677    8.967002    0.000000    0.000000    0.183000
    81  O     c     8.967002    4.399677    0.000000    0.000000    0.183000
    82  O     c     8.853654    0.019504    0.000000    0.000000    0.183000
    83  O     c     0.019504    8.853654    0.000000    0.000000    0.183000
    84  O     c     4.467998   -4.461607    0.000000    0.000000    0.183000
    85  O     c    -4.461607    4.467998    0.000000    0.000000    0.183000
    86  O     c     0.037461   -4.439136    0.000000    0.000000    0.183000
    87  O     c    -4.439136    0.037461    0.000000    0.000000    0.183000
    88  Na    c     4.398188    8.892072   -2.224649    0.000000    1.000000
    89  Na    c     4.398188    8.892072    2.224649    0.000000    1.000000
    90  Na    c     8.892072    4.398188   -2.224649    0.000000    1.000000
    91  Na    c     8.892072    4.398188    2.224649    0.000000    1.000000
    92  Na    c     4.335102    4.335102    6.719783    0.000000    1.000000
    93  Na    c     4.335102    4.335102   -6.719783    0.000000    1.000000
    94  Na    c     8.894390   -0.080554   -2.207000    0.000000    1.000000
    95  Na    c     8.894390   -0.080554    2.207000    0.000000    1.000000
    96  Na    c    -0.080554    8.894390   -2.207000    0.000000    1.000000
    97  Na    c    -0.080554    8.894390    2.207000    0.000000    1.000000
    98  Na    c     4.467949    0.024343    6.642479    0.000000    1.000000
    99  Na    c     4.467949    0.024343   -6.642479    0.000000    1.000000
   100  Na    c     0.024343    4.467949    6.642479    0.000000    1.000000
   101  Na    c     0.024343    4.467949   -6.642479    0.000000    1.000000
   102  Na    c     4.412465   -4.453377   -2.210456    0.000000    1.000000
   103  Na    c     4.412465   -4.453377    2.210456    0.000000    1.000000
   104  Na    c    -4.453377    4.412465   -2.210456    0.000000    1.000000
   105  Na    c    -4.453377    4.412465    2.210456    0.000000    1.000000
   106  Na    c    -0.072115   -0.072115    6.566759    0.000000    1.000000
   107  Na    c    -0.072115   -0.072115   -6.566759    0.000000    1.000000
   108  Na    c     0.036350   -4.507507   -2.194695    0.000000    1.000000
   109  Na    c     0.036350   -4.507507    2.194695    0.000000    1.000000
   110  Na    c    -4.507507    0.036350   -2.194695    0.000000    1.000000
   111  Na    c    -4.507507    0.036350    2.194695    0.000000    1.000000
   112  Na    c     6.616980    8.850900    0.000000    0.000000    1.000000
   113  Na    c     8.850900    6.616980    0.000000    0.000000    1.000000
   114  Na    c     2.203093    8.875165    4.465693    0.000000    1.000000
   115  Na    c     2.203093    8.875165   -4.465693    0.000000    1.000000
   116  Na    c     8.875165    2.203093    4.465693    0.000000    1.000000
   117  Na    c     8.875165    2.203093   -4.465693    0.000000    1.000000
   118  Cl    c     2.185788    6.642839    6.587731    0.000000    1.485000
   119  Cl    c     2.185788    6.642839   -6.587731    0.000000    1.485000
   120  Cl    c     6.642839    2.185788    6.587731    0.000000    1.485000
   121  Cl    c     6.642839    2.185788   -6.587731    0.000000    1.485000
   122  Na    c    -2.217709    8.679200    0.000000    0.000000    1.000000
   123  Na    c     8.679200   -2.217709    0.000000    0.000000    1.000000
   124  Na    c     6.652727   -4.689748    0.000000    0.000000    1.000000
   125  Na    c    -4.689748    6.652727    0.000000    0.000000    1.000000
   126  Cl    c     2.231538   -2.163295    6.570510    0.000000    1.485000
   127  Cl    c     2.231538   -2.163295   -6.570510    0.000000    1.485000
   128  Cl    c    -2.163295    2.231538    6.570510    0.000000    1.485000
   129  Cl    c    -2.163295    2.231538   -6.570510    0.000000    1.485000
   130  Na    c     2.204083   -4.395672    4.440895    0.000000    1.000000
   131  Na    c     2.204083   -4.395672   -4.440895    0.000000    1.000000
   132  Na    c    -4.395672    2.204083    4.440895    0.000000    1.000000
   133  Na    c    -4.395672    2.204083   -4.440895    0.000000    1.000000
   134  Na    c    -2.192292   -4.432361    0.000000    0.000000    1.000000
   135  Na    c    -4.432361   -2.192292    0.000000    0.000000    1.000000
   136  O     c     4.412495    8.821633    4.414685    0.000000    0.183000
   137  O     c     4.412495    8.821633   -4.414685    0.000000    0.183000
   138  O     c     8.821633    4.412495    4.414685    0.000000    0.183000
   139  O     c     8.821633    4.412495   -4.414685    0.000000    0.183000
   140  O     c     8.819258    0.014776    4.396658    0.000000    0.183000
   141  O     c     8.819258    0.014776   -4.396658    0.000000    0.183000
   142  O     c     0.014776    8.819258    4.396658    0.000000    0.183000
   143  O     c     0.014776    8.819258   -4.396658    0.000000    0.183000
   144  O     c     4.409330   -4.405109    4.405351    0.000000    0.183000
   145  O     c     4.409330   -4.405109   -4.405351    0.000000    0.183000
   146  O     c    -4.405109    4.409330    4.405351    0.000000    0.183000
   147  O     c    -4.405109    4.409330   -4.405351    0.000000    0.183000
   148  O     c     0.005292   -4.368486    4.374769    0.000000    0.183000
   149  O     c     0.005292   -4.368486   -4.374769    0.000000    0.183000
   150  O     c    -4.368486    0.005292    4.374769    0.000000    0.183000
   151  O     c    -4.368486    0.005292   -4.374769    0.000000    0.183000
   152  Na    c     6.617655    8.894876    4.469937    0.000000    1.000000
   153  Na    c     6.617655    8.894876   -4.469937    0.000000    1.000000
   154  Na    c     8.894876    6.617655    4.469937    0.000000    1.000000
   155  Na    c     8.894876    6.617655   -4.469937    0.000000    1.000000
   156  Na    c    11.103791    4.531653    0.000000    0.000000    1.000000
   157  Na    c     4.531653   11.103791    0.000000    0.000000    1.000000
   158  Cl    c     2.207039   11.014885   -2.232374    0.000000    1.485000
   159  Cl    c     2.207039   11.014885    2.232374    0.000000    1.485000
   160  Cl    c    11.014885    2.207039   -2.232374    0.000000    1.485000
   161  Cl    c    11.014885    2.207039    2.232374    0.000000    1.485000
   162  Cl    c     6.652105    6.652105    6.596119    0.000000    1.485000
   163  Cl    c     6.652105    6.652105   -6.596119    0.000000    1.485000
   164  Na    c    11.050965   -0.174614    0.000000    0.000000    1.000000
   165  Na    c    -0.174614   11.050965    0.000000    0.000000    1.000000
   166  Na    c     2.194536    4.406966    8.930762    0.000000    1.000000
   167  Na    c     2.194536    4.406966   -8.930762    0.000000    1.000000
   168  Na    c     4.406966    2.194536    8.930762    0.000000    1.000000
   169  Na    c     4.406966    2.194536   -8.930762    0.000000    1.000000
   170  Na    c    -2.217960    8.838228    4.430426    0.000000    1.000000
   171  Na    c    -2.217960    8.838228   -4.430426    0.000000    1.000000
   172  Na    c     8.838228   -2.217960    4.430426    0.000000    1.000000
   173  Na    c     8.838228   -2.217960   -4.430426    0.000000    1.000000
   174  Cl    c     6.612792   -2.174528    6.594011    0.000000    1.485000
   175  Cl    c     6.612792   -2.174528   -6.594011    0.000000    1.485000
   176  Cl    c    -2.174528    6.612792    6.594011    0.000000    1.485000
   177  Cl    c    -2.174528    6.612792   -6.594011    0.000000    1.485000
   178  Na    c     2.198168   -0.001084    8.784205    0.000000    1.000000
   179  Na    c     2.198168   -0.001084   -8.784205    0.000000    1.000000
   180  Na    c    -0.001084    2.198168    8.784205    0.000000    1.000000
   181  Na    c    -0.001084    2.198168   -8.784205    0.000000    1.000000
   182  Na    c     6.622795   -4.443430    4.397034    0.000000    1.000000
   183  Na    c     6.622795   -4.443430   -4.397034    0.000000    1.000000
   184  Na    c    -4.443430    6.622795    4.397034    0.000000    1.000000
   185  Na    c    -4.443430    6.622795   -4.397034    0.000000    1.000000
   186  Na    c    -6.653522    4.351019    0.000000    0.000000    1.000000
   187  Na    c     4.351019   -6.653522    0.000000    0.000000    1.000000
   188  Cl    c     2.215463   -6.593523   -2.200492    0.000000    1.485000
   189  Cl    c     2.215463   -6.593523    2.200492    0.000000    1.485000
   190  Cl    c    -6.593523    2.215463   -2.200492    0.000000    1.485000
   191  Cl    c    -6.593523    2.215463    2.200492    0.000000    1.485000
   192  Cl    c    -2.172710   -2.172710    6.546929    0.000000    1.485000
   193  Cl    c    -2.172710   -2.172710   -6.546929    0.000000    1.485000
   194  Na    c    -6.636936    0.022872    0.000000    0.000000    1.000000
   195  Na    c     0.022872   -6.636936    0.000000    0.000000    1.000000
   196  Na    c    -2.190946   -4.429693    4.443344    0.000000    1.000000
   197  Na    c    -2.190946   -4.429693   -4.443344    0.000000    1.000000
   198  Na    c    -4.429693   -2.190946    4.443344    0.000000    1.000000
   199  Na    c    -4.429693   -2.190946   -4.443344    0.000000    1.000000
   200  O     c     8.812480    8.812480    0.000000    0.000000    0.183000
   201  O     c     4.405881    4.405881    8.866397    0.000000    0.183000
   202  O     c     4.405881    4.405881   -8.866397    0.000000    0.183000
   203  O     c     4.412396    0.000750    8.821483    0.000000    0.183000
   204  O     c     4.412396    0.000750   -8.821483    0.000000    0.183000
   205  O     c     0.000750    4.412396    8.821483    0.000000    0.183000
   206  O     c     0.000750    4.412396   -8.821483    0.000000    0.183000
   207  O     c     8.819093   -4.421523    0.000000    0.000000    0.183000
   208  O     c    -4.421523    8.819093    0.000000    0.000000    0.183000
   209  O     c    -0.004301   -0.004301    8.787377    0.000000    0.183000
   210  O     c    -0.004301   -0.004301   -8.787377    0.000000    0.183000
   211  O     c    -4.398632   -4.398632    0.000000    0.000000    0.183000
   212  Na    c     8.883099    8.883099   -2.203757    0.000000    1.000000
   213  Na    c     8.883099    8.883099    2.203757    0.000000    1.000000
   214  Na    c     4.412105    8.879738    6.632839    0.000000    1.000000
   215  Na    c     4.412105    8.879738   -6.632839    0.000000    1.000000
   216  Na    c     8.879738    4.412105    6.632839    0.000000    1.000000
   217  Na    c     8.879738    4.412105   -6.632839    0.000000    1.000000
   218  Na    c     8.840185   -0.016378    6.621837    0.000000    1.000000
   219  Na    c     8.840185   -0.016378   -6.621837    0.000000    1.000000
   220  Na    c    -0.016378    8.840185    6.621837    0.000000    1.000000
   221  Na    c    -0.016378    8.840185   -6.621837    0.000000    1.000000
   222  Na    c     8.838077   -4.412149   -2.210514    0.000000    1.000000
   223  Na    c     8.838077   -4.412149    2.210514    0.000000    1.000000
   224  Na    c    -4.412149    8.838077   -2.210514    0.000000    1.000000
   225  Na    c    -4.412149    8.838077    2.210514    0.000000    1.000000
   226  Na    c     4.432693   -4.450313    6.612928    0.000000    1.000000
   227  Na    c     4.432693   -4.450313   -6.612928    0.000000    1.000000
   228  Na    c    -4.450313    4.432693    6.612928    0.000000    1.000000
   229  Na    c    -4.450313    4.432693   -6.612928    0.000000    1.000000
   230  Na    c    -0.015213   -4.307483    6.590029    0.000000    1.000000
   231  Na    c    -0.015213   -4.307483   -6.590029    0.000000    1.000000
   232  Na    c    -4.307483   -0.015213    6.590029    0.000000    1.000000
   233  Na    c    -4.307483   -0.015213   -6.590029    0.000000    1.000000
   234  Na    c    -4.443467   -4.443467   -2.200433    0.000000    1.000000
   235  Na    c    -4.443467   -4.443467    2.200433    0.000000    1.000000
   236  Cl    c     6.631754   10.983840   -2.211726    0.000000    1.485000
   237  Cl    c     6.631754   10.983840    2.211726    0.000000    1.485000
   238  Cl    c    10.983840    6.631754   -2.211726    0.000000    1.485000
   239  Cl    c    10.983840    6.631754    2.211726    0.000000    1.485000
   240  Na    c    11.036946    4.391698    4.408477    0.000000    1.000000
   241  Na    c    11.036946    4.391698   -4.408477    0.000000    1.000000
   242  Na    c     4.391698   11.036946    4.408477    0.000000    1.000000
   243  Na    c     4.391698   11.036946   -4.408477    0.000000    1.000000
   244  Na    c     6.613498    4.403781    8.837809    0.000000    1.000000
   245  Na    c     6.613498    4.403781   -8.837809    0.000000    1.000000
   246  Na    c     4.403781    6.613498    8.837809    0.000000    1.000000
   247  Na    c     4.403781    6.613498   -8.837809    0.000000    1.000000
   248  Na    c    11.029361   -0.007674    4.415113    0.000000    1.000000
   249  Na    c    11.029361   -0.007674   -4.415113    0.000000    1.000000
   250  Na    c    -0.007674   11.029361    4.415113    0.000000    1.000000
   251  Na    c    -0.007674   11.029361   -4.415113    0.000000    1.000000
   252  Cl    c    11.005606   -2.185090   -2.196787    0.000000    1.485000
   253  Cl    c    11.005606   -2.185090    2.196787    0.000000    1.485000
   254  Cl    c    -2.185090   11.005606   -2.196787    0.000000    1.485000
   255  Cl    c    -2.185090   11.005606    2.196787    0.000000    1.485000
   256  Na    c     6.616942   -0.018577    8.848942    0.000000    1.000000
   257  Na    c     6.616942   -0.018577   -8.848942    0.000000    1.000000
   258  Na    c    -0.018577    6.616942    8.848942    0.000000    1.000000
   259  Na    c    -0.018577    6.616942   -8.848942    0.000000    1.000000
   260  Na    c    -2.208260    4.389962    8.809899    0.000000    1.000000
   261  Na    c    -2.208260    4.389962   -8.809899    0.000000    1.000000
   262  Na    c     4.389962   -2.208260    8.809899    0.000000    1.000000
   263  Na    c     4.389962   -2.208260   -8.809899    0.000000    1.000000
   264  Cl    c     6.616536   -6.605895   -2.208766    0.000000    1.485000
   265  Cl    c     6.616536   -6.605895    2.208766    0.000000    1.485000
   266  Cl    c    -6.605895    6.616536   -2.208766    0.000000    1.485000
   267  Cl    c    -6.605895    6.616536    2.208766    0.000000    1.485000
   268  Na    c    -6.618171    4.385984    4.408497    0.000000    1.000000
   269  Na    c    -6.618171    4.385984   -4.408497    0.000000    1.000000
   270  Na    c     4.385984   -6.618171    4.408497    0.000000    1.000000
   271  Na    c     4.385984   -6.618171   -4.408497    0.000000    1.000000
   272  Na    c    -2.199338    0.000775    8.847451    0.000000    1.000000
   273  Na    c    -2.199338    0.000775   -8.847451    0.000000    1.000000
   274  Na    c     0.000775   -2.199338    8.847451    0.000000    1.000000
   275  Na    c     0.000775   -2.199338   -8.847451    0.000000    1.000000
   276  Na    c    -6.601870    0.014549    4.447289    0.000000    1.000000
   277  Na    c    -6.601870    0.014549   -4.447289    0.000000    1.000000
   278  Na    c     0.014549   -6.601870    4.447289    0.000000    1.000000
   279  Na    c     0.014549   -6.601870   -4.447289    0.000000    1.000000
   280  Cl    c    -2.195279   -6.573354   -2.198251    0.000000    1.485000
   281  Cl    c    -2.195279   -6.573354    2.198251    0.000000    1.485000
   282  Cl    c    -6.573354   -2.195279   -2.198251    0.000000    1.485000
   283  Cl    c    -6.573354   -2.195279    2.198251    0.000000    1.485000
   284  O     c     8.809250    8.809250    4.391623    0.000000    0.183000
   285  O     c     8.809250    8.809250   -4.391623    0.000000    0.183000
   286  O     c     8.825886   -4.415165    4.411983    0.000000    0.183000
   287  O     c     8.825886   -4.415165   -4.411983    0.000000    0.183000
   288  O     c    -4.415165    8.825886    4.411983    0.000000    0.183000
   289  O     c    -4.415165    8.825886   -4.411983    0.000000    0.183000
   290  O     c    -4.390913   -4.390913    4.391929    0.000000    0.183000
   291  O     c    -4.390913   -4.390913   -4.391929    0.000000    0.183000
   292  Na    c    11.031426    8.812121    0.000000    0.000000    1.000000
   293  Na    c     8.812121   11.031426    0.000000    0.000000    1.000000
   294  Na    c     2.194822   13.211500    0.000000    0.000000    1.000000
   295  Na    c    13.211500    2.194822    0.000000    0.000000    1.000000
   296  Cl    c     2.219965   10.999156    6.589814    0.000000    1.485000
   297  Cl    c     2.219965   10.999156   -6.589814    0.000000    1.485000
   298  Cl    c    10.999156    2.219965    6.589814    0.000000    1.485000
   299  Cl    c    10.999156    2.219965   -6.589814    0.000000    1.485000
   300  Na    c     2.199729    8.807083    8.835316    0.000000    1.000000
   301  Na    c     2.199729    8.807083   -8.835316    0.000000    1.000000
   302  Na    c     8.807083    2.199729    8.835316    0.000000    1.000000
   303  Na    c     8.807083    2.199729   -8.835316    0.000000    1.000000
   304  Na    c    11.023121   -4.361227    0.000000    0.000000    1.000000
   305  Na    c    -4.361227   11.023121    0.000000    0.000000    1.000000
   306  Cl    c     2.198523    2.198523   10.991561    0.000000    1.485000
   307  Cl    c     2.198523    2.198523  -10.991561    0.000000    1.485000
   308  Na    c    -6.629476    8.921199    0.000000    0.000000    1.000000
   309  Na    c     8.921199   -6.629476    0.000000    0.000000    1.000000
   310  Na    c     2.200703   -4.427202    8.812452    0.000000    1.000000
   311  Na    c     2.200703   -4.427202   -8.812452    0.000000    1.000000
   312  Na    c    -4.427202    2.200703    8.812452    0.000000    1.000000
   313  Na    c    -4.427202    2.200703   -8.812452    0.000000    1.000000
   314  Cl    c     2.204649   -6.581386    6.586568    0.000000    1.485000
   315  Cl    c     2.204649   -6.581386   -6.586568    0.000000    1.485000
   316  Cl    c    -6.581386    2.204649    6.586568    0.000000    1.485000
   317  Cl    c    -6.581386    2.204649   -6.586568    0.000000    1.485000
   318  Na    c     2.199825   -8.866117    0.000000    0.000000    1.000000
   319  Na    c    -8.866117    2.199825    0.000000    0.000000    1.000000
   320  Na    c    -6.617289   -4.406969    0.000000    0.000000    1.000000
   321  Na    c    -4.406969   -6.617289    0.000000    0.000000    1.000000
   322  O     c     4.416981   13.248374    0.000000    0.000000    0.183000
   323  O     c    13.248374    4.416981    0.000000    0.000000    0.183000
   324  O     c     4.408659    8.811954    8.810086    0.000000    0.183000
   325  O     c     4.408659    8.811954   -8.810086    0.000000    0.183000
   326  O     c     8.811954    4.408659    8.810086    0.000000    0.183000
   327  O     c     8.811954    4.408659   -8.810086    0.000000    0.183000
   328  O     c    13.224915   -0.011778    0.000000    0.000000    0.183000
   329  O     c    -0.011778   13.224915    0.000000    0.000000    0.183000
   330  O     c     8.813862   -0.001417    8.811753    0.000000    0.183000
   331  O     c     8.813862   -0.001417   -8.811753    0.000000    0.183000
   332  O     c    -0.001417    8.813862    8.811753    0.000000    0.183000
   333  O     c    -0.001417    8.813862   -8.811753    0.000000    0.183000
   334  O     c     4.405378   -4.404093    8.805643    0.000000    0.183000
   335  O     c     4.405378   -4.404093   -8.805643    0.000000    0.183000
   336  O     c    -4.404093    4.405378    8.805643    0.000000    0.183000
   337  O     c    -4.404093    4.405378   -8.805643    0.000000    0.183000
   338  O     c     4.401715   -8.824421    0.000000    0.000000    0.183000
   339  O     c    -8.824421    4.401715    0.000000    0.000000    0.183000
   340  O     c     0.001364   -4.391920    8.801072    0.000000    0.183000
   341  O     c     0.001364   -4.391920   -8.801072    0.000000    0.183000
   342  O     c    -4.391920    0.001364    8.801072    0.000000    0.183000
   343  O     c    -4.391920    0.001364   -8.801072    0.000000    0.183000
   344  O     c     0.001063   -8.818543    0.000000    0.000000    0.183000
   345  O     c    -8.818543    0.001063    0.000000    0.000000    0.183000
   346  Na    c     8.807450    8.807450    6.620144    0.000000    1.000000
   347  Na    c     8.807450    8.807450   -6.620144    0.000000    1.000000
   348  Na    c     4.388726   13.270255   -2.209446    0.000000    1.000000
   349  Na    c     4.388726   13.270255    2.209446    0.000000    1.000000
   350  Na    c    13.270255    4.388726   -2.209446    0.000000    1.000000
   351  Na    c    13.270255    4.388726    2.209446    0.000000    1.000000
   352  Na    c    13.244856   -0.000817   -2.207763    0.000000    1.000000
   353  Na    c    13.244856   -0.000817    2.207763    0.000000    1.000000
[...]
    121 y          0.000000      0.011502     0.011502    Cartesian    0.00
    121 z         11.014756     11.012981    -0.001774    Cartesian   -0.02
    122 x          4.405902      4.417546     0.011643    Cartesian    0.26
    122 y         -8.811805     -8.845884    -0.034079    Cartesian    0.39
    122 z         -2.202951     -2.206803    -0.003852    Cartesian    0.17
    123 x          0.000000     -0.008114    -0.008114    Cartesian    0.00
    123 y         -8.811805     -8.832067    -0.020262    Cartesian    0.23
    123 z         -2.202951     -2.208584    -0.005633    Cartesian    0.26
    124 x         -4.405902     -4.410295    -0.004393    Cartesian    0.10
    124 y         -4.405902     -4.410295    -0.004393    Cartesian    0.10
    124 z          6.608853      6.611104     0.002250    Cartesian    0.03
    125 x          6.608853      6.623250     0.014396    Cartesian    0.22
    125 y         13.217707     13.311962     0.094255    Cartesian    0.71
    125 z          0.000000      0.000000     0.000000    Cartesian    0.00
    126 x         11.014756     11.028109     0.013353    Cartesian    0.12
    126 y          8.811805      8.835374     0.023569    Cartesian    0.27
    126 z          4.405902      4.427537     0.021634    Cartesian    0.49
    127 x          6.608853      6.600576    -0.008278    Cartesian   -0.13
    127 y         11.014756     10.990299    -0.024457    Cartesian   -0.22
    127 z          6.608853      6.581411    -0.027443    Cartesian   -0.42
    128 x          2.202951      2.199249    -0.003702    Cartesian   -0.17
    128 y         13.217707     13.251504     0.033797    Cartesian    0.26
    128 z          4.405902      4.426175     0.020272    Cartesian    0.46
    129 x          6.608853      6.613926     0.005073    Cartesian    0.08
    129 y          8.811805      8.817411     0.005606    Cartesian    0.06
    129 z          8.811805      8.844845     0.033041    Cartesian    0.37
    130 x         -2.202951     -2.216770    -0.013819    Cartesian    0.63
    130 y         13.217707     13.306561     0.088854    Cartesian    0.67
    130 z          0.000000      0.000000     0.000000    Cartesian    0.00
    131 x          2.202951      2.206666     0.003715    Cartesian    0.17
    131 y          6.608853      6.609845     0.000992    Cartesian    0.02
    131 z         11.014756     10.981573    -0.033183    Cartesian   -0.30
    132 x         11.014756     10.989375    -0.025381    Cartesian   -0.23
    132 y         -2.202951     -2.173463     0.029488    Cartesian   -1.34
    132 z          6.608853      6.587041    -0.021812    Cartesian   -0.33
    133 x         -2.202951     -2.209193    -0.006242    Cartesian    0.28
    133 y          8.811805      8.830776     0.018972    Cartesian    0.22
    133 z          8.811805      8.836460     0.024656    Cartesian    0.28
    134 x         11.014756     11.025754     0.010998    Cartesian    0.10
    134 y         -4.405902     -4.440879    -0.034977    Cartesian    0.79
    134 z          4.405902      4.428678     0.022775    Cartesian    0.52
    135 x          6.608853      6.611468     0.002615    Cartesian    0.04
    135 y         -4.405902     -4.419846    -0.013944    Cartesian    0.32
    135 z          8.811805      8.845105     0.033300    Cartesian    0.38
    136 x         -6.608853     -6.621309    -0.012456    Cartesian    0.19
    136 y          8.811805      8.831655     0.019851    Cartesian    0.23
    136 z          4.405902      4.413714     0.007812    Cartesian    0.18
    137 x          2.202951      2.203252     0.000301    Cartesian    0.01
    137 y         -2.202951     -2.186107     0.016844    Cartesian   -0.76
    137 z         11.014756     10.979162    -0.035594    Cartesian   -0.32
    138 x          6.608853      6.596673    -0.012180    Cartesian   -0.18
    138 y         -6.608853     -6.577003     0.031850    Cartesian   -0.48
    138 z          6.608853      6.596232    -0.012622    Cartesian   -0.19
    139 x          6.608853      6.615254     0.006401    Cartesian    0.10
    139 y         -8.811805     -8.833493    -0.021689    Cartesian    0.25
    139 z          0.000000      0.000000     0.000000    Cartesian    0.00
    140 x          2.202951      2.202640    -0.000311    Cartesian   -0.01
    140 y         -8.811805     -8.848323    -0.036518    Cartesian    0.41
    140 z          4.405902      4.412730     0.006828    Cartesian    0.15
    141 x         -2.202951     -2.203660    -0.000709    Cartesian    0.03
    141 y         -4.405902     -4.423669    -0.017767    Cartesian    0.40
    141 z          8.811805      8.830522     0.018718    Cartesian    0.21
    142 x         -2.202951     -2.193454     0.009497    Cartesian   -0.43
    142 y         -6.608853     -6.570692     0.038162    Cartesian   -0.58
    142 z          6.608853      6.578078    -0.030776    Cartesian   -0.47
    143 x         -2.202951     -2.206267    -0.003316    Cartesian    0.15
    143 y         -8.811805     -8.846601    -0.034797    Cartesian    0.39
    143 z          0.000000      0.000000     0.000000    Cartesian    0.00
    144 x         -6.608853     -6.613032    -0.004179    Cartesian    0.06
    144 y         -4.405902     -4.413042    -0.007140    Cartesian    0.16
    144 z          4.405902      4.418370     0.012468    Cartesian    0.28
    145 x          0.810720      0.810720     0.000000    Cartesian    0.00
    145 y          0.810720      0.810720     0.000000    Cartesian    0.00
    145 z          0.000000      0.000000     0.000000    Cartesian    0.00
    146 x          2.202951      2.656786     0.453835    Cartesian   20.60
    146 y          2.202951      2.656786     0.453835    Cartesian   20.60
    146 z         -2.202951     -2.177582     0.025369    Cartesian   -1.15
    147 x          4.405902      4.567152     0.161250    Cartesian    3.66
    147 y          0.000000     -0.182757    -0.182757    Cartesian    0.00
    147 z          0.000000      0.000000     0.000000    Cartesian    0.00
    148 x          2.202951      2.489245     0.286294    Cartesian   13.00
    148 y          6.608853      6.327417    -0.281437    Cartesian   -4.26
    148 z         -2.202951     -1.931684     0.271267    Cartesian  -12.31
    149 x          2.202951      2.171548    -0.031403    Cartesian   -1.43
    149 y         -2.202951     -2.185685     0.017266    Cartesian   -0.78
    149 z         -2.202951     -2.124235     0.078716    Cartesian   -3.57
    150 x          4.405902      4.449636     0.043733    Cartesian    0.99
    150 y          4.405902      4.449636     0.043733    Cartesian    0.99
    150 z          4.405902      4.596819     0.190917    Cartesian    4.33
    151 x          4.405902      4.453364     0.047462    Cartesian    1.08
    151 y          0.000000     -0.002905    -0.002905    Cartesian    0.00
    151 z          4.405902      4.419685     0.013783    Cartesian    0.31
    152 x          0.000000      0.098306     0.098306    Cartesian    0.00
    152 y          0.000000      0.098306     0.098306    Cartesian    0.00
    152 z          4.405902      4.325165    -0.080737    Cartesian   -1.83
    153 x          6.608853      6.315013    -0.293841    Cartesian   -4.45
    153 y          6.608853      6.315013    -0.293841    Cartesian   -4.45
    153 z         -2.202951     -1.836779     0.366172    Cartesian  -16.62
    154 x          2.202951      2.214625     0.011674    Cartesian    0.53
    154 y          2.202951      2.214625     0.011674    Cartesian    0.53
    154 z          6.608853      6.591934    -0.016920    Cartesian   -0.26
    155 x          6.608853      6.671645     0.062792    Cartesian    0.95
    155 y         -2.202951     -2.194861     0.008090    Cartesian   -0.37
    155 z         -2.202951     -2.265618    -0.062667    Cartesian    2.84
    156 x         -2.202951     -1.974876     0.228075    Cartesian  -10.35
    156 y         -2.202951     -1.974876     0.228075    Cartesian  -10.35
    156 z         -2.202951     -1.940457     0.262494    Cartesian  -11.92
    157 x          4.405902      4.399664    -0.006239    Cartesian   -0.14
    157 y          8.811805      8.966897     0.155092    Cartesian    1.76
    157 z          0.000000      0.000000     0.000000    Cartesian    0.00
    158 x          8.811805      8.853667     0.041862    Cartesian    0.48
    158 y          0.000000      0.019535     0.019535    Cartesian    0.00
    158 z          0.000000      0.000000     0.000000    Cartesian    0.00
    159 x          4.405902      4.468046     0.062143    Cartesian    1.41
    159 y         -4.405902     -4.461608    -0.055705    Cartesian    1.26
    159 z          0.000000      0.000000     0.000000    Cartesian    0.00
    160 x          0.000000      0.037459     0.037459    Cartesian    0.00
    160 y         -4.405902     -4.439082    -0.033180    Cartesian    0.75
    160 z          0.000000      0.000000     0.000000    Cartesian    0.00
    161 x          2.202951      2.185809    -0.017143    Cartesian   -0.78
    161 y          6.608853      6.643470     0.034617    Cartesian    0.52
    161 z          6.608853      6.578319    -0.030535    Cartesian   -0.46
    162 x          2.202951      2.235569     0.032618    Cartesian    1.48
    162 y         -2.202951     -2.155795     0.047156    Cartesian   -2.14
    162 z          6.608853      6.563453    -0.045400    Cartesian   -0.69
    163 x          4.405902      4.412494     0.006591    Cartesian    0.15
    163 y          8.811805      8.821647     0.009842    Cartesian    0.11
    163 z          4.405902      4.414712     0.008810    Cartesian    0.20
    164 x          8.811805      8.819249     0.007445    Cartesian    0.08
    164 y          0.000000      0.014783     0.014783    Cartesian    0.00
    164 z          4.405902      4.396666    -0.009236    Cartesian   -0.21
    165 x          4.405902      4.409329     0.003426    Cartesian    0.08
    165 y         -4.405902     -4.405096     0.000806    Cartesian   -0.02
    165 z          4.405902      4.405357    -0.000546    Cartesian   -0.01
    166 x          0.000000      0.005297     0.005297    Cartesian    0.00
    166 y         -4.405902     -4.368528     0.037374    Cartesian   -0.85
    166 z          4.405902      4.374738    -0.031165    Cartesian   -0.71
    167 x          2.202951      2.209697     0.006746    Cartesian    0.31
    167 y         11.014756     11.006377    -0.008379    Cartesian   -0.08
    167 z         -2.202951     -2.230329    -0.027377    Cartesian    1.24
    168 x          6.608853      6.653587     0.044734    Cartesian    0.68
    168 y          6.608853      6.653587     0.044734    Cartesian    0.68
    168 z          6.608853      6.586760    -0.022094    Cartesian   -0.33
    169 x          6.608853      6.609916     0.001062    Cartesian    0.02
    169 y         -2.202951     -2.165903     0.037048    Cartesian   -1.68
    169 z          6.608853      6.585730    -0.023124    Cartesian   -0.35
    170 x          2.202951      2.215954     0.013003    Cartesian    0.59
    170 y         -6.608853     -6.587190     0.021664    Cartesian   -0.33
    170 z         -2.202951     -2.198161     0.004790    Cartesian   -0.22
    171 x         -2.202951     -2.170325     0.032626    Cartesian   -1.48
    171 y         -2.202951     -2.170325     0.032626    Cartesian   -1.48
    171 z          6.608853      6.545659    -0.063195    Cartesian   -0.96
    172 x          8.811805      8.812486     0.000682    Cartesian    0.01
    172 y          8.811805      8.812486     0.000682    Cartesian    0.01
    172 z          0.000000      0.000000     0.000000    Cartesian    0.00
    173 x          4.405902      4.405875    -0.000027    Cartesian   -0.00
    173 y          4.405902      4.405875    -0.000027    Cartesian   -0.00
    173 z          8.811805      8.866367     0.054563    Cartesian    0.62
    174 x          4.405902      4.412409     0.006506    Cartesian    0.15
    174 y          0.000000      0.000758     0.000758    Cartesian    0.00
    174 z          8.811805      8.821469     0.009664    Cartesian    0.11
    175 x          8.811805      8.819068     0.007264    Cartesian    0.08
    175 y         -4.405902     -4.421559    -0.015657    Cartesian    0.36
    175 z          0.000000      0.000000     0.000000    Cartesian    0.00
    176 x          0.000000     -0.004316    -0.004316    Cartesian    0.00
    176 y          0.000000     -0.004316    -0.004316    Cartesian    0.00
    176 z          8.811805      8.787395    -0.024410    Cartesian   -0.28
    177 x         -4.405902     -4.398643     0.007260    Cartesian   -0.16
    177 y         -4.405902     -4.398643     0.007260    Cartesian   -0.16
    177 z          0.000000      0.000000     0.000000    Cartesian    0.00
    178 x          6.608853      6.631626     0.022772    Cartesian    0.34
    178 y         11.014756     10.977621    -0.037135    Cartesian   -0.34
    178 z         -2.202951     -2.210529    -0.007578    Cartesian    0.34
    179 x         11.014756     11.001402    -0.013353    Cartesian   -0.12
    179 y         -2.202951     -2.177384     0.025567    Cartesian   -1.16
    179 z         -2.202951     -2.194121     0.008830    Cartesian   -0.40
    180 x          6.608853      6.615952     0.007098    Cartesian    0.11
    180 y         -6.608853     -6.598686     0.010168    Cartesian   -0.15
    180 z         -2.202951     -2.205428    -0.002476    Cartesian    0.11
    181 x         -2.202951     -2.194160     0.008791    Cartesian   -0.40
    181 y         -6.608853     -6.568235     0.040619    Cartesian   -0.61
    181 z         -2.202951     -2.196913     0.006038    Cartesian   -0.27
    182 x          8.811805      8.809255    -0.002549    Cartesian   -0.03
    182 y          8.811805      8.809255    -0.002549    Cartesian   -0.03
    182 z          4.405902      4.391620    -0.014282    Cartesian   -0.32
    183 x          8.811805      8.825892     0.014088    Cartesian    0.16
    183 y         -4.405902     -4.415166    -0.009264    Cartesian    0.21
    183 z          4.405902      4.411983     0.006081    Cartesian    0.14
    184 x         -4.405902     -4.390912     0.014990    Cartesian   -0.34
    184 y         -4.405902     -4.390912     0.014990    Cartesian   -0.34
    184 z          4.405902      4.391926    -0.013977    Cartesian   -0.32
    185 x          2.202951      2.223038     0.020087    Cartesian    0.91
    185 y         11.014756     10.994215    -0.020541    Cartesian   -0.19
    185 z          6.608853      6.584894    -0.023960    Cartesian   -0.36
    186 x          2.202951      2.199661    -0.003290    Cartesian   -0.15
    186 y          2.202951      2.199661    -0.003290    Cartesian   -0.15
    186 z         11.014756     10.986082    -0.028674    Cartesian   -0.26
    187 x          2.202951      2.206421     0.003470    Cartesian    0.16
    187 y         -6.608853     -6.578661     0.030192    Cartesian   -0.46
    187 z          6.608853      6.583248    -0.025606    Cartesian   -0.39
    188 x          4.405902      4.417011     0.011108    Cartesian    0.25
    188 y         13.217707     13.248355     0.030648    Cartesian    0.23
    188 z          0.000000      0.000000     0.000000    Cartesian    0.00
    189 x          4.405902      4.408662     0.002760    Cartesian    0.06
    189 y          8.811805      8.811963     0.000158    Cartesian    0.00
    189 z          8.811805      8.810070    -0.001735    Cartesian   -0.02
    190 x         13.217707     13.224916     0.007209    Cartesian    0.05
    190 y          0.000000     -0.011804    -0.011804    Cartesian    0.00
    190 z          0.000000      0.000000     0.000000    Cartesian    0.00
    191 x          8.811805      8.813864     0.002059    Cartesian    0.02
    191 y          0.000000     -0.001414    -0.001414    Cartesian    0.00
    191 z          8.811805      8.811753    -0.000051    Cartesian   -0.00
    192 x          4.405902      4.405378    -0.000524    Cartesian   -0.01
    192 y         -4.405902     -4.404098     0.001804    Cartesian   -0.04
    192 z          8.811805      8.805634    -0.006170    Cartesian   -0.07
    193 x          4.405902      4.401698    -0.004204    Cartesian   -0.10
    193 y         -8.811805     -8.824414    -0.012609    Cartesian    0.14
    193 z          0.000000      0.000000     0.000000    Cartesian    0.00
    194 x          0.000000      0.001367     0.001367    Cartesian    0.00
    194 y         -4.405902     -4.391892     0.014010    Cartesian   -0.32
    194 z          8.811805      8.801089    -0.010715    Cartesian   -0.12
    195 x          0.000000      0.001074     0.001074    Cartesian    0.00
    195 y         -8.811805     -8.818545    -0.006740    Cartesian    0.08
    195 z          0.000000      0.000000     0.000000    Cartesian    0.00
    196 x          6.608853      6.598358    -0.010495    Cartesian   -0.16
    196 y         11.014756     10.983696    -0.031060    Cartesian   -0.28
    196 z          6.608853      6.575238    -0.033616    Cartesian   -0.51
    197 x          2.202951      2.208105     0.005153    Cartesian    0.23
    197 y          6.608853      6.608914     0.000061    Cartesian    0.00
    197 z         11.014756     10.974834    -0.039921    Cartesian   -0.36
    198 x         11.014756     10.985471    -0.029285    Cartesian   -0.27
    198 y         -2.202951     -2.168630     0.034321    Cartesian   -1.56
    198 z          6.608853      6.583729    -0.025125    Cartesian   -0.38
    199 x          2.202951      2.203925     0.000973    Cartesian    0.04
    199 y         -2.202951     -2.183427     0.019524    Cartesian   -0.89
    199 z         11.014756     10.975310    -0.039445    Cartesian   -0.36
    200 x          6.608853      6.594530    -0.014324    Cartesian   -0.22
    200 y         -6.608853     -6.571825     0.037029    Cartesian   -0.56
    200 z          6.608853      6.594613    -0.014241    Cartesian   -0.22
    201 x         -2.202951     -2.193511     0.009440    Cartesian   -0.43
    201 y         -6.608853     -6.566612     0.042241    Cartesian   -0.64
    201 z          6.608853      6.573026    -0.035828    Cartesian   -0.54
--------------------------------------------------------------------------------


  Time to end of optimisation  =       31.0389 seconds


  Peak dynamic memory used =      90.31 MB 


  Timing analysis for GULP :

--------------------------------------------------------------------------------
  Task / Subroutine                                          Time (Seconds)
--------------------------------------------------------------------------------
  Calculation of reciprocal space energy and derivatives          0.0010
  Calculation of reciprocal space energy using symmetry           0.0015
  Calculation of real space energy and derivatives                0.0054
  Calculation of real space energy using symmetry                 0.0169
  Calculation for region 1 energy and derivatives (2-b)          15.8497
  Calculation for region 2a energy                               10.4450
  Calculation for region 2b energy                                0.0068
  Calculation and manipulation of Hessian matrix                  4.1885
  Calculation of matrix inversion                                 0.3470
  Symmetry generation of equivalent positions                     0.0062
--------------------------------------------------------------------------------
  Total CPU time                                                 31.0390
--------------------------------------------------------------------------------


  Dump file written as Na3OCl.grs


  Job Finished at 15:19.44 19th January    2021                               

