********************************************************************************
*                       GENERAL UTILITY LATTICE PROGRAM                        *
*                                 Julian Gale                                  *
*                       Curtin Institute for Computation                       *
*                    School of Molecular and Life Sciences                     *
*                    Curtin University, Western Australia                      *
********************************************************************************
* Version = 5.2.0 * Last modified =  10th September 2020                       *
********************************************************************************
*  optimise     - perform optimisation run                                     *
*  conp         - constant pressure calculation                                *
*  property     - calculate properties for final geometry                      *
*  defect       - perform defect calculation after bulk run                    *
*  compare      - compare initial and final structures                         *
********************************************************************************

  Job Started  at 12:37.02  2nd February   2021                               

  Number of CPUs =     1


  Total number of configurations input =      1

********************************************************************************
*  Input for Configuration =   1                                               *
********************************************************************************

  Formula = O8Cl8Na24                                                   

  Number of irreducible atoms/shells =      56


  Total number atoms/shells =      56

  Dimensionality = 3               :  Bulk   



  Supercell dimensions :  x =   2  y =   2  z =   2

  Cartesian lattice vectors (Angstroms) :

        9.008000    0.000000    0.000000
        0.000000    9.008000    0.000000
        0.000000    0.000000    9.008000

  Cell parameters (Angstroms/Degrees):

  a =       9.0080    alpha =  90.0000
  b =       9.0080    beta  =  90.0000
  c =       9.0080    gamma =  90.0000

  Initial cell volume =         730.945729 Angs**3

  Temperature of configuration =   0.00     K 

  Pressure of configuration =         0.000 GPa 

  Fractional coordinates of asymmetric unit :

--------------------------------------------------------------------------------
   No.  Atomic       x           y          z         Charge      Occupancy
        Label      (Frac)      (Frac)     (Frac)        (e)         (Frac)  
--------------------------------------------------------------------------------
      1 O     c    0.000000    0.000000    0.000000     0.18300    1.000000    
      2 O     c    0.000000 *  0.000000 *  0.500000 *   0.18300    1.000000    
      3 O     c    0.000000 *  0.500000 *  0.000000 *   0.18300    1.000000    
      4 O     c    0.000000 *  0.500000 *  0.500000 *   0.18300    1.000000    
      5 O     c    0.500000 *  0.000000 *  0.000000 *   0.18300    1.000000    
      6 O     c    0.500000 *  0.000000 *  0.500000 *   0.18300    1.000000    
      7 O     c    0.500000 *  0.500000 *  0.000000 *   0.18300    1.000000    
      8 O     c    0.500000 *  0.500000 *  0.500000 *   0.18300    1.000000    
      9 Cl    c    0.250000 *  0.250000 *  0.250000 *   1.48500    1.000000    
     10 Cl    c    0.250000 *  0.250000 *  0.750000 *   1.48500    1.000000    
     11 Cl    c    0.250000 *  0.750000 *  0.250000 *   1.48500    1.000000    
     12 Cl    c    0.250000 *  0.750000 *  0.750000 *   1.48500    1.000000    
     13 Cl    c    0.750000 *  0.250000 *  0.250000 *   1.48500    1.000000    
     14 Cl    c    0.750000 *  0.250000 *  0.750000 *   1.48500    1.000000    
     15 Cl    c    0.750000 *  0.750000 *  0.250000 *   1.48500    1.000000    
     16 Cl    c    0.750000 *  0.750000 *  0.750000 *   1.48500    1.000000    
     17 Na    c    0.250000 *  0.000000 *  0.000000 *   1.00000    1.000000    
     18 Na    c    0.250000 *  0.000000 *  0.500000 *   1.00000    1.000000    
     19 Na    c    0.250000 *  0.500000 *  0.000000 *   1.00000    1.000000    
     20 Na    c    0.250000 *  0.500000 *  0.500000 *   1.00000    1.000000    
     21 Na    c    0.750000 *  0.000000 *  0.000000 *   1.00000    1.000000    
     22 Na    c    0.750000 *  0.000000 *  0.500000 *   1.00000    1.000000    
     23 Na    c    0.750000 *  0.500000 *  0.000000 *   1.00000    1.000000    
     24 Na    c    0.750000 *  0.500000 *  0.500000 *   1.00000    1.000000    
     25 Na    c    0.000000 *  0.250000 *  0.000000 *   1.00000    1.000000    
     26 Na    c    0.000000 *  0.250000 *  0.500000 *   1.00000    1.000000    
     27 Na    c    0.000000 *  0.750000 *  0.000000 *   1.00000    1.000000    
     28 Na    c    0.000000 *  0.750000 *  0.500000 *   1.00000    1.000000    
     29 Na    c    0.500000 *  0.250000 *  0.000000 *   1.00000    1.000000    
     30 Na    c    0.500000 *  0.250000 *  0.500000 *   1.00000    1.000000    
     31 Na    c    0.500000 *  0.750000 *  0.000000 *   1.00000    1.000000    
     32 Na    c    0.500000 *  0.750000 *  0.500000 *   1.00000    1.000000    
     33 Na    c    0.000000 *  0.000000 *  0.250000 *   1.00000    1.000000    
     34 Na    c    0.000000 *  0.000000 *  0.750000 *   1.00000    1.000000    
     35 Na    c    0.000000 *  0.500000 *  0.250000 *   1.00000    1.000000    
     36 Na    c    0.000000 *  0.500000 *  0.750000 *   1.00000    1.000000    
     37 Na    c    0.500000 *  0.000000 *  0.250000 *   1.00000    1.000000    
     38 Na    c    0.500000 *  0.000000 *  0.750000 *   1.00000    1.000000    
     39 Na    c    0.500000 *  0.500000 *  0.250000 *   1.00000    1.000000    
     40 Na    c    0.500000 *  0.500000 *  0.750000 *   1.00000    1.000000    
     41 O     s    0.000000 *  0.000000 *  0.000000 *  -2.18300    1.000000    
     42 O     s    0.000000 *  0.000000 *  0.500000 *  -2.18300    1.000000    
     43 O     s    0.000000 *  0.500000 *  0.000000 *  -2.18300    1.000000    
     44 O     s    0.000000 *  0.500000 *  0.500000 *  -2.18300    1.000000    
     45 O     s    0.500000 *  0.000000 *  0.000000 *  -2.18300    1.000000    
     46 O     s    0.500000 *  0.000000 *  0.500000 *  -2.18300    1.000000    
     47 O     s    0.500000 *  0.500000 *  0.000000 *  -2.18300    1.000000    
     48 O     s    0.500000 *  0.500000 *  0.500000 *  -2.18300    1.000000    
     49 Cl    s    0.250000 *  0.250000 *  0.250000 *  -2.48500    1.000000    
     50 Cl    s    0.250000 *  0.250000 *  0.750000 *  -2.48500    1.000000    
     51 Cl    s    0.250000 *  0.750000 *  0.250000 *  -2.48500    1.000000    
     52 Cl    s    0.250000 *  0.750000 *  0.750000 *  -2.48500    1.000000    
     53 Cl    s    0.750000 *  0.250000 *  0.250000 *  -2.48500    1.000000    
     54 Cl    s    0.750000 *  0.250000 *  0.750000 *  -2.48500    1.000000    
     55 Cl    s    0.750000 *  0.750000 *  0.250000 *  -2.48500    1.000000    
     56 Cl    s    0.750000 *  0.750000 *  0.750000 *  -2.48500    1.000000    
--------------------------------------------------------------------------------



********************************************************************************
*  General input information                                                   *
********************************************************************************

  Species output for all configurations : 

--------------------------------------------------------------------------------
  Species    Type    Atomic    Atomic    Charge       Radii (Angs)     Library
                     Number     Mass       (e)     Cova   Ionic  VDW   Symbol
--------------------------------------------------------------------------------
    Na       Core       11      22.99   1.000000   0.970  0.000  2.300          
    O        Core        8      16.00   0.183000   0.730  0.000  1.360          
    O        Shell       8       0.00  -2.183000   0.730  0.000  1.360          
    Cl       Core       17      35.45   1.485000   0.990  0.000  1.650          
    Cl       Shell      17       0.00  -2.485000   0.990  0.000  1.650          
    Mg       Core       12      24.31   0.415000   1.100  0.000  0.000          
    Mg       Shell      12       0.00   1.585000   1.100  0.000  0.000          
    Ca       Core       20      40.08  -1.135000   0.990  0.000  0.000          
    Ca       Shell      20       0.00   3.135000   0.990  0.000  0.000          
    Sr       Core       38      87.62  -1.251000   1.120  0.000  0.000          
    Sr       Shell      38       0.00   3.251000   1.120  0.000  0.000          
    Ba       Core       56     137.33  -7.203000   1.340  0.000  0.000          
    Ba       Shell      56       0.00   9.203000   1.340  0.000  0.000          
--------------------------------------------------------------------------------


  Lattice summation method               =    Ewald          (3-D)
                                         =    Parry          (2-D)
                                         =    Saunders et al (1-D)
  Accuracy factor for lattice sums       =   12.000


  Analytic derivatives to be used

  Time limit = Infinity

  Maximum range for interatomic potentials =    100000.000000 Angstroms

  General interatomic potentials :

--------------------------------------------------------------------------------
Atom  Types   Potential      Parameter       Value         Units   Cutoffs(Ang)
  1     2                                                            Min /  Max 
--------------------------------------------------------------------------------
O    c O    s Spring (c-s)  Spring k 2       593.71600    eV*Ang^-2 0.000  0.800
                            Spring k 4       0.0000000    eV*Ang^-4 
--------------------------------------------------------------------------------
Cl   c Cl   s Spring (c-s)  Spring k 2       29.380000    eV*Ang^-2 0.000  0.800
                            Spring k 4       0.0000000    eV*Ang^-4 
--------------------------------------------------------------------------------
Mg   c Mg   s Spring (c-s)  Spring k 2       361.60000    eV*Ang^-2 0.000  0.800
                            Spring k 4       0.0000000    eV*Ang^-4 
--------------------------------------------------------------------------------
Ca   c Ca   s Spring (c-s)  Spring k 2       110.20000    eV*Ang^-2 0.000  0.800
                            Spring k 4       0.0000000    eV*Ang^-4 
--------------------------------------------------------------------------------
Sr   c Sr   s Spring (c-s)  Spring k 2       71.700000    eV*Ang^-2 0.000  0.800
                            Spring k 4       0.0000000    eV*Ang^-4 
--------------------------------------------------------------------------------
Ba   c Ba   s Spring (c-s)  Spring k 2       495.20000    eV*Ang^-2 0.000  0.800
                            Spring k 4       0.0000000    eV*Ang^-4 
--------------------------------------------------------------------------------
Na   c Na   c Buckingham    Buckingham A     1788.1900    eV        0.000 12.000
                            Buckingham rho  0.15900000    Ang       
                            Buckingham C     0.0000000    eV*Ang^6  
--------------------------------------------------------------------------------
Na   c O    s Buckingham    Buckingham A     588.38000    eV        0.000 12.000
                            Buckingham rho  0.33800000    Ang       
                            Buckingham C     0.0000000    eV*Ang^6  
--------------------------------------------------------------------------------
Na   c Cl   s Buckingham    Buckingham A     1170.4100    eV        0.000 12.000
                            Buckingham rho  0.31500000    Ang       
                            Buckingham C     0.0000000    eV*Ang^6  
--------------------------------------------------------------------------------
O    s O    s Buckingham    Buckingham A     22764.300    eV        0.000 12.000
                            Buckingham rho  0.14900000    Ang       
                            Buckingham C     13.190000    eV*Ang^6  
--------------------------------------------------------------------------------
O    s Cl   s Buckingham    Buckingham A     8286.9100    eV        0.000 12.000
                            Buckingham rho  0.25900000    Ang       
                            Buckingham C     62.200000    eV*Ang^6  
--------------------------------------------------------------------------------
Cl   s Cl   s Buckingham    Buckingham A     1227.2000    eV        0.000 12.000
                            Buckingham rho  0.32100000    Ang       
                            Buckingham C     14.530000    eV*Ang^6  
--------------------------------------------------------------------------------
O    s Mg   s Buckingham    Buckingham A     1428.5000    eV        0.000 12.000
                            Buckingham rho  0.29450000    Ang       
                            Buckingham C     0.0000000    eV*Ang^6  
--------------------------------------------------------------------------------
Mg   s Cl   s Buckingham    Buckingham A     4914.5400    eV        0.000 12.000
                            Buckingham rho  0.25700000    Ang       
                            Buckingham C     0.0000000    eV*Ang^6  
--------------------------------------------------------------------------------
O    s Ca   s Buckingham    Buckingham A     1090.4000    eV        0.000 12.000
                            Buckingham rho  0.34370000    Ang       
                            Buckingham C     0.0000000    eV*Ang^6  
--------------------------------------------------------------------------------
Cl   s Ca   s Buckingham    Buckingham A     2302.0000    eV        0.000 12.000
                            Buckingham rho  0.34020000    Ang       
                            Buckingham C     0.0000000    eV*Ang^6  
--------------------------------------------------------------------------------
O    s Sr   s Buckingham    Buckingham A     959.10000    eV        0.000 12.000
                            Buckingham rho  0.37210000    Ang       
                            Buckingham C     0.0000000    eV*Ang^6  
--------------------------------------------------------------------------------
Cl   s Sr   s Buckingham    Buckingham A     2191.0900    eV        0.000 12.000
                            Buckingham rho  0.34570000    Ang       
                            Buckingham C     0.0000000    eV*Ang^6  
--------------------------------------------------------------------------------
O    s Ba   s Buckingham    Buckingham A     905.70000    eV        0.000 12.000
                            Buckingham rho  0.39760000    Ang       
                            Buckingham C     0.0000000    eV*Ang^6  
--------------------------------------------------------------------------------
Cl   s Ba   s Buckingham    Buckingham A     2704.5500    eV        0.000 12.000
                            Buckingham rho  0.35280000    Ang       
                            Buckingham C     0.0000000    eV*Ang^6  
--------------------------------------------------------------------------------

********************************************************************************
*  Output for configuration   1                                                *
********************************************************************************


  Components of energy : 

--------------------------------------------------------------------------------
  Interatomic potentials     =          39.54523045 eV    
  Monopole - monopole (real) =        -173.49412932 eV    
  Monopole - monopole (recip)=        -143.08233464 eV    
  Monopole - monopole (total)=        -316.57646396 eV    
--------------------------------------------------------------------------------
  Total lattice energy       =        -277.03123351 eV    
--------------------------------------------------------------------------------
  Total lattice energy       =          -26729.2792 kJ/(mole unit cells)
--------------------------------------------------------------------------------


  Number of variables =      171

  Maximum number of calculations  =          1000
  Maximum Hessian update interval =            10
  Maximum step size               =   1.000000000
  Maximum parameter tolerance     =   0.000010000
  Maximum function  tolerance     =   0.000010000
  Maximum gradient  tolerance     =   0.001000000
  Maximum gradient  component     =   0.010000000

  Cell parameters to be optimised using strains

  Newton-Raphson optimiser to be used

  BFGS hessian update to be used

  Lower half triangular hessian to be used

  Start of bulk optimisation :

  Cycle:      0 Energy:      -277.031234  Gnorm:      0.116908  CPU:    0.056
  ** Hessian calculated **
  Cycle:      1 Energy:      -277.421334  Gnorm:      0.001189  CPU:    0.111
  Cycle:      2 Energy:      -277.421371  Gnorm:      0.000099  CPU:    0.154


  **** Optimisation achieved ****


  Final energy =    -277.42137089 eV
  Final Gnorm  =       0.00000000

  Components of energy : 

--------------------------------------------------------------------------------
  Interatomic potentials     =          46.20368827 eV    
  Monopole - monopole (real) =        -177.35698719 eV    
  Monopole - monopole (recip)=        -146.26807197 eV    
  Monopole - monopole (total)=        -323.62505916 eV    
--------------------------------------------------------------------------------
  Total lattice energy       =        -277.42137089 eV    
--------------------------------------------------------------------------------
  Total lattice energy       =          -26766.9215 kJ/(mole unit cells)
--------------------------------------------------------------------------------

  Final fractional coordinates of atoms :

--------------------------------------------------------------------------------
   No.  Atomic        x           y          z          Radius
        Label       (Frac)      (Frac)     (Frac)       (Angs) 
--------------------------------------------------------------------------------
     1  O     c     0.000000    0.000000    0.000000    0.000000
     2  O     c     0.000000    0.000000    0.500000    0.000000
     3  O     c     1.000000    0.500000    1.000000    0.000000
     4  O     c     0.000000    0.500000    0.500000    0.000000
     5  O     c     0.500000    0.000000    1.000000    0.000000
     6  O     c     0.500000    0.000000    0.500000    0.000000
     7  O     c     0.500000    0.500000    1.000000    0.000000
     8  O     c     0.500000    0.500000    0.500000    0.000000
     9  Cl    c     0.250000    0.250000    0.250000    0.000000
    10  Cl    c     0.250000    0.250000    0.750000    0.000000
    11  Cl    c     0.250000    0.750000    0.250000    0.000000
    12  Cl    c     0.250000    0.750000    0.750000    0.000000
    13  Cl    c     0.750000    0.250000    0.250000    0.000000
    14  Cl    c     0.750000    0.250000    0.750000    0.000000
    15  Cl    c     0.750000    0.750000    0.250000    0.000000
    16  Cl    c     0.750000    0.750000    0.750000    0.000000
    17  Na    c     0.250000    0.000000    1.000000    0.000000
    18  Na    c     0.250000    0.000000    0.500000    0.000000
    19  Na    c     0.250000    0.500000    1.000000    0.000000
    20  Na    c     0.250000    0.500000    0.500000    0.000000
    21  Na    c     0.750000    1.000000    0.000000    0.000000
    22  Na    c     0.750000    1.000000    0.500000    0.000000
    23  Na    c     0.750000    0.500000    0.000000    0.000000
    24  Na    c     0.750000    0.500000    0.500000    0.000000
    25  Na    c     1.000000    0.250000    0.000000    0.000000
    26  Na    c     1.000000    0.250000    0.500000    0.000000
    27  Na    c     0.000000    0.750000    1.000000    0.000000
    28  Na    c     0.000000    0.750000    0.500000    0.000000
    29  Na    c     0.500000    0.250000    1.000000    0.000000
    30  Na    c     0.500000    0.250000    0.500000    0.000000
    31  Na    c     0.500000    0.750000    0.000000    0.000000
    32  Na    c     0.500000    0.750000    0.500000    0.000000
    33  Na    c     0.000000    1.000000    0.250000    0.000000
    34  Na    c     1.000000    0.000000    0.750000    0.000000
    35  Na    c     0.000000    0.500000    0.250000    0.000000
    36  Na    c     1.000000    0.500000    0.750000    0.000000
    37  Na    c     0.500000    0.000000    0.250000    0.000000
    38  Na    c     0.500000    1.000000    0.750000    0.000000
    39  Na    c     0.500000    0.500000    0.250000    0.000000
    40  Na    c     0.500000    0.500000    0.750000    0.000000
    41  O     s     0.000000    0.000000    0.000000    0.000000
    42  O     s     0.000000    0.000000    0.500000    0.000000
    43  O     s     1.000000    0.500000    1.000000    0.000000
    44  O     s     0.000000    0.500000    0.500000    0.000000
    45  O     s     0.500000    0.000000    1.000000    0.000000
    46  O     s     0.500000    0.000000    0.500000    0.000000
    47  O     s     0.500000    0.500000    1.000000    0.000000
    48  O     s     0.500000    0.500000    0.500000    0.000000
    49  Cl    s     0.250000    0.250000    0.250000    0.000000
    50  Cl    s     0.250000    0.250000    0.750000    0.000000
    51  Cl    s     0.250000    0.750000    0.250000    0.000000
    52  Cl    s     0.250000    0.750000    0.750000    0.000000
    53  Cl    s     0.750000    0.250000    0.250000    0.000000
    54  Cl    s     0.750000    0.250000    0.750000    0.000000
    55  Cl    s     0.750000    0.750000    0.250000    0.000000
    56  Cl    s     0.750000    0.750000    0.750000    0.000000
--------------------------------------------------------------------------------

  Final Cartesian lattice vectors (Angstroms) :

        8.811805   -0.000000    0.000000
       -0.000000    8.811805   -0.000000
        0.000000   -0.000000    8.811805


  Final cell parameters and derivatives :

--------------------------------------------------------------------------------
       a            8.811805 Angstrom     dE/de1(xx)     0.000000 eV/strain
       b            8.811805 Angstrom     dE/de2(yy)     0.000000 eV/strain
       c            8.811805 Angstrom     dE/de3(zz)     0.000000 eV/strain
       alpha       90.000000 Degrees      dE/de4(yz)    -0.000000 eV/strain
       beta        90.000000 Degrees      dE/de5(xz)     0.000000 eV/strain
       gamma       90.000000 Degrees      dE/de6(xy)    -0.000000 eV/strain
--------------------------------------------------------------------------------

  Primitive cell volume =           684.218127 Angs**3

  Density of cell =      2.338030 g/cm**3

  Non-primitive cell volume =           684.218127 Angs**3


  Final internal derivatives :

--------------------------------------------------------------------------------
   No.  Atomic          a             b             c           Radius
        Label          (eV)          (eV)          (eV)        (eV/Angs)
--------------------------------------------------------------------------------
      1 O     c       0.000000      0.000000      0.000000      0.000000
      2 O     c       0.000000     -0.000000     -0.000000      0.000000
      3 O     c      -0.000000      0.000000      0.000000      0.000000
      4 O     c       0.000000      0.000000      0.000000      0.000000
      5 O     c       0.000000     -0.000000     -0.000000      0.000000
      6 O     c      -0.000000     -0.000000     -0.000000      0.000000
      7 O     c       0.000000      0.000000     -0.000000      0.000000
      8 O     c      -0.000000      0.000000     -0.000000      0.000000
      9 Cl    c      -0.000000     -0.000000     -0.000000      0.000000
     10 Cl    c      -0.000000     -0.000000      0.000000      0.000000
     11 Cl    c      -0.000000      0.000000      0.000000      0.000000
     12 Cl    c      -0.000000      0.000000     -0.000000      0.000000
     13 Cl    c       0.000000      0.000000      0.000000      0.000000
     14 Cl    c       0.000000     -0.000000     -0.000000      0.000000
     15 Cl    c      -0.000000      0.000000     -0.000000      0.000000
     16 Cl    c      -0.000000      0.000000      0.000000      0.000000
     17 Na    c       0.000000     -0.000000      0.000000      0.000000
     18 Na    c      -0.000000     -0.000000     -0.000000      0.000000
     19 Na    c      -0.000000      0.000000      0.000000      0.000000
     20 Na    c      -0.000000      0.000000     -0.000000      0.000000
     21 Na    c      -0.000000      0.000000     -0.000000      0.000000
     22 Na    c      -0.000000      0.000000     -0.000000      0.000000
     23 Na    c      -0.000000     -0.000000      0.000000      0.000000
     24 Na    c       0.000000     -0.000000     -0.000000      0.000000
     25 Na    c       0.000000     -0.000000     -0.000000      0.000000
     26 Na    c       0.000000     -0.000000     -0.000000      0.000000
     27 Na    c      -0.000000     -0.000000      0.000000      0.000000
     28 Na    c      -0.000000      0.000000     -0.000000      0.000000
     29 Na    c      -0.000000     -0.000000     -0.000000      0.000000
     30 Na    c      -0.000000     -0.000000      0.000000      0.000000
     31 Na    c       0.000000      0.000000     -0.000000      0.000000
     32 Na    c       0.000000      0.000000     -0.000000      0.000000
     33 Na    c      -0.000000     -0.000000      0.000000      0.000000
     34 Na    c      -0.000000      0.000000     -0.000000      0.000000
     35 Na    c       0.000000      0.000000     -0.000000      0.000000
     36 Na    c       0.000000     -0.000000     -0.000000      0.000000
     37 Na    c      -0.000000     -0.000000      0.000000      0.000000
     38 Na    c       0.000000      0.000000     -0.000000      0.000000
     39 Na    c      -0.000000      0.000000      0.000000      0.000000
     40 Na    c      -0.000000     -0.000000     -0.000000      0.000000
     41 O     s      -0.000000      0.000000     -0.000000      0.000000
     42 O     s      -0.000000      0.000000      0.000000      0.000000
     43 O     s       0.000000     -0.000000     -0.000000      0.000000
     44 O     s      -0.000000      0.000000      0.000000      0.000000
     45 O     s       0.000000      0.000000     -0.000000      0.000000
     46 O     s       0.000000     -0.000000      0.000000      0.000000
     47 O     s       0.000000      0.000000     -0.000000      0.000000
     48 O     s       0.000000      0.000000     -0.000000      0.000000
     49 Cl    s       0.000000      0.000000     -0.000000      0.000000
     50 Cl    s      -0.000000     -0.000000     -0.000000      0.000000
     51 Cl    s       0.000000     -0.000000     -0.000000      0.000000
     52 Cl    s       0.000000     -0.000000      0.000000      0.000000
     53 Cl    s      -0.000000      0.000000     -0.000000      0.000000
     54 Cl    s      -0.000000      0.000000      0.000000      0.000000
     55 Cl    s      -0.000000     -0.000000      0.000000      0.000000
     56 Cl    s      -0.000000     -0.000000     -0.000000      0.000000
--------------------------------------------------------------------------------
  Maximum abs         0.000000      0.000000      0.000000      0.000000
--------------------------------------------------------------------------------

  Comparison of initial and final structures : 

--------------------------------------------------------------------------------
  Parameter   Initial value   Final value   Difference    Units      Percent
--------------------------------------------------------------------------------
    Volume       730.945729    684.218127   -46.727602    Angs**3     -6.39
    a              9.008000      8.811805    -0.196195    Angstroms   -2.18
    b              9.008000      8.811805    -0.196195    Angstroms   -2.18
    c              9.008000      8.811805    -0.196195    Angstroms   -2.18
    alpha         90.000000     90.000000     0.000000    Degrees      0.00
    beta          90.000000     90.000000     0.000000    Degrees      0.00
    gamma         90.000000     90.000000     0.000000    Degrees      0.00
      1 x          0.000000      0.000000     0.000000    Fractional   0.00
      1 y          0.000000      0.000000     0.000000    Fractional   0.00
      1 z          0.000000      0.000000     0.000000    Fractional   0.00
      2 x          0.000000      0.000000     0.000000    Fractional   0.00
      2 y          0.000000      0.000000     0.000000    Fractional   0.00
      2 z          0.500000      0.500000     0.000000    Fractional   0.00
      3 x          0.000000      1.000000     1.000000    Fractional   0.00
      3 y          0.500000      0.500000     0.000000    Fractional   0.00
      3 z          0.000000      1.000000     1.000000    Fractional   0.00
      4 x          0.000000      0.000000     0.000000    Fractional   0.00
      4 y          0.500000      0.500000     0.000000    Fractional   0.00
      4 z          0.500000      0.500000     0.000000    Fractional   0.00
      5 x          0.500000      0.500000     0.000000    Fractional   0.00
      5 y          0.000000      0.000000     0.000000    Fractional   0.00
      5 z          0.000000      1.000000     1.000000    Fractional   0.00
      6 x          0.500000      0.500000     0.000000    Fractional   0.00
      6 y          0.000000      0.000000     0.000000    Fractional   0.00
      6 z          0.500000      0.500000     0.000000    Fractional   0.00
      7 x          0.500000      0.500000     0.000000    Fractional   0.00
      7 y          0.500000      0.500000     0.000000    Fractional   0.00
      7 z          0.000000      1.000000     1.000000    Fractional   0.00
      8 x          0.500000      0.500000     0.000000    Fractional   0.00
      8 y          0.500000      0.500000     0.000000    Fractional   0.00
      8 z          0.500000      0.500000     0.000000    Fractional   0.00
      9 x          0.250000      0.250000     0.000000    Fractional   0.00
      9 y          0.250000      0.250000     0.000000    Fractional   0.00
      9 z          0.250000      0.250000     0.000000    Fractional   0.00
     10 x          0.250000      0.250000     0.000000    Fractional   0.00
     10 y          0.250000      0.250000     0.000000    Fractional   0.00
     10 z          0.750000      0.750000     0.000000    Fractional   0.00
     11 x          0.250000      0.250000     0.000000    Fractional   0.00
     11 y          0.750000      0.750000     0.000000    Fractional   0.00
     11 z          0.250000      0.250000     0.000000    Fractional   0.00
     12 x          0.250000      0.250000     0.000000    Fractional   0.00
     12 y          0.750000      0.750000     0.000000    Fractional   0.00
     12 z          0.750000      0.750000     0.000000    Fractional   0.00
     13 x          0.750000      0.750000     0.000000    Fractional   0.00
     13 y          0.250000      0.250000     0.000000    Fractional   0.00
     13 z          0.250000      0.250000     0.000000    Fractional   0.00
     14 x          0.750000      0.750000     0.000000    Fractional   0.00
     14 y          0.250000      0.250000     0.000000    Fractional   0.00
     14 z          0.750000      0.750000     0.000000    Fractional   0.00
     15 x          0.750000      0.750000     0.000000    Fractional   0.00
     15 y          0.750000      0.750000     0.000000    Fractional   0.00
     15 z          0.250000      0.250000     0.000000    Fractional   0.00
     16 x          0.750000      0.750000     0.000000    Fractional   0.00
     16 y          0.750000      0.750000     0.000000    Fractional   0.00
     16 z          0.750000      0.750000     0.000000    Fractional   0.00
     17 x          0.250000      0.250000     0.000000    Fractional   0.00
     17 y          0.000000      0.000000     0.000000    Fractional   0.00
     17 z          0.000000      1.000000     1.000000    Fractional   0.00
     18 x          0.250000      0.250000     0.000000    Fractional   0.00
     18 y          0.000000      0.000000     0.000000    Fractional   0.00
     18 z          0.500000      0.500000     0.000000    Fractional   0.00
     19 x          0.250000      0.250000     0.000000    Fractional   0.00
     19 y          0.500000      0.500000     0.000000    Fractional   0.00
     19 z          0.000000      1.000000     1.000000    Fractional   0.00
     20 x          0.250000      0.250000     0.000000    Fractional   0.00
     20 y          0.500000      0.500000     0.000000    Fractional   0.00
     20 z          0.500000      0.500000     0.000000    Fractional   0.00
     21 x          0.750000      0.750000     0.000000    Fractional   0.00
     21 y          0.000000      1.000000     1.000000    Fractional   0.00
     21 z          0.000000      0.000000     0.000000    Fractional   0.00
     22 x          0.750000      0.750000     0.000000    Fractional   0.00
     22 y          0.000000      1.000000     1.000000    Fractional   0.00
     22 z          0.500000      0.500000     0.000000    Fractional   0.00
     23 x          0.750000      0.750000     0.000000    Fractional   0.00
     23 y          0.500000      0.500000     0.000000    Fractional   0.00
     23 z          0.000000      0.000000     0.000000    Fractional   0.00
     24 x          0.750000      0.750000     0.000000    Fractional   0.00
     24 y          0.500000      0.500000     0.000000    Fractional   0.00
     24 z          0.500000      0.500000     0.000000    Fractional   0.00
     25 x          0.000000      1.000000     1.000000    Fractional   0.00
     25 y          0.250000      0.250000     0.000000    Fractional   0.00
     25 z          0.000000      0.000000     0.000000    Fractional   0.00
     26 x          0.000000      1.000000     1.000000    Fractional   0.00
     26 y          0.250000      0.250000     0.000000    Fractional   0.00
     26 z          0.500000      0.500000     0.000000    Fractional   0.00
     27 x          0.000000      0.000000     0.000000    Fractional   0.00
     27 y          0.750000      0.750000     0.000000    Fractional   0.00
     27 z          0.000000      1.000000     1.000000    Fractional   0.00
     28 x          0.000000      0.000000     0.000000    Fractional   0.00
     28 y          0.750000      0.750000     0.000000    Fractional   0.00
     28 z          0.500000      0.500000     0.000000    Fractional   0.00
     29 x          0.500000      0.500000     0.000000    Fractional   0.00
     29 y          0.250000      0.250000     0.000000    Fractional   0.00
     29 z          0.000000      1.000000     1.000000    Fractional   0.00
     30 x          0.500000      0.500000     0.000000    Fractional   0.00
     30 y          0.250000      0.250000     0.000000    Fractional   0.00
     30 z          0.500000      0.500000     0.000000    Fractional   0.00
     31 x          0.500000      0.500000     0.000000    Fractional   0.00
     31 y          0.750000      0.750000     0.000000    Fractional   0.00
     31 z          0.000000      0.000000     0.000000    Fractional   0.00
     32 x          0.500000      0.500000     0.000000    Fractional   0.00
     32 y          0.750000      0.750000     0.000000    Fractional   0.00
     32 z          0.500000      0.500000     0.000000    Fractional   0.00
     33 x          0.000000      0.000000     0.000000    Fractional   0.00
     33 y          0.000000      1.000000     1.000000    Fractional   0.00
     33 z          0.250000      0.250000     0.000000    Fractional   0.00
     34 x          0.000000      1.000000     1.000000    Fractional   0.00
     34 y          0.000000      0.000000     0.000000    Fractional   0.00
     34 z          0.750000      0.750000     0.000000    Fractional   0.00
     35 x          0.000000      0.000000     0.000000    Fractional   0.00
     35 y          0.500000      0.500000     0.000000    Fractional   0.00
     35 z          0.250000      0.250000     0.000000    Fractional   0.00
     36 x          0.000000      1.000000     1.000000    Fractional   0.00
     36 y          0.500000      0.500000     0.000000    Fractional   0.00
     36 z          0.750000      0.750000     0.000000    Fractional   0.00
     37 x          0.500000      0.500000     0.000000    Fractional   0.00
     37 y          0.000000      0.000000     0.000000    Fractional   0.00
     37 z          0.250000      0.250000     0.000000    Fractional   0.00
     38 x          0.500000      0.500000     0.000000    Fractional   0.00
     38 y          0.000000      1.000000     1.000000    Fractional   0.00
     38 z          0.750000      0.750000     0.000000    Fractional   0.00
     39 x          0.500000      0.500000     0.000000    Fractional   0.00
     39 y          0.500000      0.500000     0.000000    Fractional   0.00
     39 z          0.250000      0.250000     0.000000    Fractional   0.00
     40 x          0.500000      0.500000     0.000000    Fractional   0.00
     40 y          0.500000      0.500000     0.000000    Fractional   0.00
     40 z          0.750000      0.750000     0.000000    Fractional   0.00
     41 x          0.000000      0.000000     0.000000    Fractional   0.00
     41 y          0.000000      0.000000     0.000000    Fractional   0.00
     41 z          0.000000      0.000000     0.000000    Fractional   0.00
     42 x          0.000000      0.000000     0.000000    Fractional   0.00
     42 y          0.000000      0.000000     0.000000    Fractional   0.00
     42 z          0.500000      0.500000     0.000000    Fractional   0.00
     43 x          0.000000      1.000000     1.000000    Fractional   0.00
     43 y          0.500000      0.500000     0.000000    Fractional   0.00
     43 z          0.000000      1.000000     1.000000    Fractional   0.00
     44 x          0.000000      0.000000     0.000000    Fractional   0.00
     44 y          0.500000      0.500000     0.000000    Fractional   0.00
     44 z          0.500000      0.500000     0.000000    Fractional   0.00
     45 x          0.500000      0.500000     0.000000    Fractional   0.00
     45 y          0.000000      0.000000     0.000000    Fractional   0.00
     45 z          0.000000      1.000000     1.000000    Fractional   0.00
     46 x          0.500000      0.500000     0.000000    Fractional   0.00
     46 y          0.000000      0.000000     0.000000    Fractional   0.00
     46 z          0.500000      0.500000     0.000000    Fractional   0.00
     47 x          0.500000      0.500000     0.000000    Fractional   0.00
     47 y          0.500000      0.500000     0.000000    Fractional   0.00
     47 z          0.000000      1.000000     1.000000    Fractional   0.00
     48 x          0.500000      0.500000     0.000000    Fractional   0.00
     48 y          0.500000      0.500000     0.000000    Fractional   0.00
     48 z          0.500000      0.500000     0.000000    Fractional   0.00
     49 x          0.250000      0.250000     0.000000    Fractional   0.00
     49 y          0.250000      0.250000     0.000000    Fractional   0.00
     49 z          0.250000      0.250000     0.000000    Fractional   0.00
     50 x          0.250000      0.250000     0.000000    Fractional   0.00
     50 y          0.250000      0.250000     0.000000    Fractional   0.00
     50 z          0.750000      0.750000     0.000000    Fractional   0.00
     51 x          0.250000      0.250000     0.000000    Fractional   0.00
     51 y          0.750000      0.750000     0.000000    Fractional   0.00
     51 z          0.250000      0.250000     0.000000    Fractional   0.00
     52 x          0.250000      0.250000     0.000000    Fractional   0.00
     52 y          0.750000      0.750000     0.000000    Fractional   0.00
     52 z          0.750000      0.750000     0.000000    Fractional   0.00
     53 x          0.750000      0.750000     0.000000    Fractional   0.00
     53 y          0.250000      0.250000     0.000000    Fractional   0.00
     53 z          0.250000      0.250000     0.000000    Fractional   0.00
     54 x          0.750000      0.750000     0.000000    Fractional   0.00
     54 y          0.250000      0.250000     0.000000    Fractional   0.00
     54 z          0.750000      0.750000     0.000000    Fractional   0.00
     55 x          0.750000      0.750000     0.000000    Fractional   0.00
     55 y          0.750000      0.750000     0.000000    Fractional   0.00
     55 z          0.250000      0.250000     0.000000    Fractional   0.00
     56 x          0.750000      0.750000     0.000000    Fractional   0.00
     56 y          0.750000      0.750000     0.000000    Fractional   0.00
     56 z          0.750000      0.750000     0.000000    Fractional   0.00
--------------------------------------------------------------------------------


  Born effective charge tensors : 

-------------------------------------------------------------------------------
  Atom             x           y             z
-------------------------------------------------------------------------------
    1 O     x      -2.2939      0.0000     -0.0000
            y      -0.0000     -2.2939     -0.0000
            z      -0.0000     -0.0000     -2.2939
-------------------------------------------------------------------------------
    2 O     x      -2.2939      0.0000      0.0000
            y      -0.0000     -2.2939      0.0000
            z       0.0000      0.0000     -2.2939
-------------------------------------------------------------------------------
    3 O     x      -2.2939     -0.0000      0.0000
            y       0.0000     -2.2939      0.0000
            z       0.0000      0.0000     -2.2939
-------------------------------------------------------------------------------
    4 O     x      -2.2939     -0.0000      0.0000
            y       0.0000     -2.2939     -0.0000
            z       0.0000     -0.0000     -2.2939
-------------------------------------------------------------------------------
    5 O     x      -2.2939     -0.0000      0.0000
            y       0.0000     -2.2939     -0.0000
            z       0.0000     -0.0000     -2.2939
-------------------------------------------------------------------------------
    6 O     x      -2.2939     -0.0000      0.0000
            y       0.0000     -2.2939     -0.0000
            z       0.0000      0.0000     -2.2939
-------------------------------------------------------------------------------
    7 O     x      -2.2939      0.0000      0.0000
            y      -0.0000     -2.2939      0.0000
            z       0.0000     -0.0000     -2.2939
-------------------------------------------------------------------------------
    8 O     x      -2.2939      0.0000      0.0000
            y      -0.0000     -2.2939     -0.0000
            z       0.0000     -0.0000     -2.2939
-------------------------------------------------------------------------------
    9 Cl    x      -0.9918      0.0000     -0.0000
            y       0.0000     -0.9918     -0.0000
            z      -0.0000     -0.0000     -0.9918
-------------------------------------------------------------------------------
   10 Cl    x      -0.9918      0.0000      0.0000
            y       0.0000     -0.9918      0.0000
            z       0.0000      0.0000     -0.9918
-------------------------------------------------------------------------------
   11 Cl    x      -0.9918     -0.0000     -0.0000
            y      -0.0000     -0.9918     -0.0000
            z      -0.0000     -0.0000     -0.9918
-------------------------------------------------------------------------------
   12 Cl    x      -0.9918      0.0000      0.0000
            y       0.0000     -0.9918     -0.0000
            z       0.0000     -0.0000     -0.9918
-------------------------------------------------------------------------------
   13 Cl    x      -0.9918      0.0000     -0.0000
            y      -0.0000     -0.9918      0.0000
            z       0.0000      0.0000     -0.9918
-------------------------------------------------------------------------------
   14 Cl    x      -0.9918      0.0000     -0.0000
            y       0.0000     -0.9918      0.0000
            z      -0.0000      0.0000     -0.9918
-------------------------------------------------------------------------------
   15 Cl    x      -0.9918      0.0000     -0.0000
            y       0.0000     -0.9918     -0.0000
            z      -0.0000     -0.0000     -0.9918
-------------------------------------------------------------------------------
   16 Cl    x      -0.9918      0.0000      0.0000
            y       0.0000     -0.9918      0.0000
            z       0.0000      0.0000     -0.9918
-------------------------------------------------------------------------------
   17 Na    x       0.8372     -0.0000      0.0000
            y      -0.0000      1.2243      0.0000
            z       0.0000      0.0000      1.2243
-------------------------------------------------------------------------------
   18 Na    x       0.8372     -0.0000      0.0000
            y      -0.0000      1.2243     -0.0000
            z      -0.0000      0.0000      1.2243
-------------------------------------------------------------------------------
   19 Na    x       0.8372     -0.0000      0.0000
            y      -0.0000      1.2243     -0.0000
            z       0.0000     -0.0000      1.2243
-------------------------------------------------------------------------------
   20 Na    x       0.8372     -0.0000      0.0000
            y      -0.0000      1.2243      0.0000
            z       0.0000      0.0000      1.2243
-------------------------------------------------------------------------------
   21 Na    x       0.8372     -0.0000      0.0000
            y       0.0000      1.2243     -0.0000
            z       0.0000      0.0000      1.2243
-------------------------------------------------------------------------------
   22 Na    x       0.8372      0.0000      0.0000
            y       0.0000      1.2243      0.0000
            z       0.0000      0.0000      1.2243
-------------------------------------------------------------------------------
   23 Na    x       0.8372     -0.0000     -0.0000
            y      -0.0000      1.2243      0.0000
            z      -0.0000     -0.0000      1.2243
-------------------------------------------------------------------------------
   24 Na    x       0.8372     -0.0000      0.0000
            y      -0.0000      1.2243      0.0000
            z       0.0000      0.0000      1.2243
-------------------------------------------------------------------------------
   25 Na    x       1.2243     -0.0000     -0.0000
            y      -0.0000      0.8372     -0.0000
            z      -0.0000     -0.0000      1.2243
-------------------------------------------------------------------------------
   26 Na    x       1.2243     -0.0000     -0.0000
            y      -0.0000      0.8372     -0.0000
            z      -0.0000     -0.0000      1.2243
-------------------------------------------------------------------------------
   27 Na    x       1.2243      0.0000     -0.0000
            y       0.0000      0.8372      0.0000
            z      -0.0000      0.0000      1.2243
-------------------------------------------------------------------------------
   28 Na    x       1.2243      0.0000     -0.0000
            y       0.0000      0.8372     -0.0000
            z      -0.0000     -0.0000      1.2243
-------------------------------------------------------------------------------
   29 Na    x       1.2243      0.0000     -0.0000
            y      -0.0000      0.8372     -0.0000
            z      -0.0000     -0.0000      1.2243
-------------------------------------------------------------------------------
   30 Na    x       1.2243     -0.0000     -0.0000
            y      -0.0000      0.8372     -0.0000
            z      -0.0000     -0.0000      1.2243
-------------------------------------------------------------------------------
   31 Na    x       1.2243     -0.0000     -0.0000
            y      -0.0000      0.8372      0.0000
            z      -0.0000      0.0000      1.2243
-------------------------------------------------------------------------------
   32 Na    x       1.2243     -0.0000     -0.0000
            y      -0.0000      0.8372     -0.0000
            z      -0.0000     -0.0000      1.2243
-------------------------------------------------------------------------------
   33 Na    x       1.2243     -0.0000      0.0000
            y       0.0000      1.2243     -0.0000
            z       0.0000      0.0000      0.8372
-------------------------------------------------------------------------------
   34 Na    x       1.2243     -0.0000     -0.0000
            y       0.0000      1.2243     -0.0000
            z      -0.0000     -0.0000      0.8372
-------------------------------------------------------------------------------
   35 Na    x       1.2243      0.0000      0.0000
            y      -0.0000      1.2243     -0.0000
            z       0.0000      0.0000      0.8372
-------------------------------------------------------------------------------
   36 Na    x       1.2243      0.0000      0.0000
            y      -0.0000      1.2243      0.0000
            z       0.0000      0.0000      0.8372
-------------------------------------------------------------------------------
   37 Na    x       1.2243      0.0000      0.0000
            y      -0.0000      1.2243     -0.0000
            z       0.0000     -0.0000      0.8372
-------------------------------------------------------------------------------
   38 Na    x       1.2243      0.0000      0.0000
            y      -0.0000      1.2243     -0.0000
            z       0.0000     -0.0000      0.8372
-------------------------------------------------------------------------------
   39 Na    x       1.2243     -0.0000      0.0000
            y       0.0000      1.2243     -0.0000
            z       0.0000     -0.0000      0.8372
-------------------------------------------------------------------------------
   40 Na    x       1.2243     -0.0000      0.0000
            y       0.0000      1.2243      0.0000
            z       0.0000      0.0000      0.8372
-------------------------------------------------------------------------------




  Elastic Constant Matrix: (Units=GPa)

-------------------------------------------------------------------------------
  Indices      1         2         3         4         5         6    
-------------------------------------------------------------------------------
       1     82.7680   24.3534   24.3534   -0.0000    0.0000   -0.0000
       2     24.3534   82.7680   24.3534   -0.0000   -0.0000    0.0000
       3     24.3534   24.3534   82.7680   -0.0000    0.0000    0.0000
       4     -0.0000   -0.0000   -0.0000   24.3534    0.0000   -0.0000
       5      0.0000   -0.0000    0.0000    0.0000   24.3534   -0.0000
       6     -0.0000    0.0000    0.0000   -0.0000   -0.0000   24.3534
-------------------------------------------------------------------------------


  Elastic Compliance Matrix: (Units=1/GPa)

-------------------------------------------------------------------------------
  Indices      1         2         3         4         5         6    
-------------------------------------------------------------------------------
       1    0.013948 -0.003171 -0.003171 -0.000000 -0.000000  0.000000
       2   -0.003171  0.013948 -0.003171  0.000000  0.000000 -0.000000
       3   -0.003171 -0.003171  0.013948  0.000000 -0.000000 -0.000000
       4   -0.000000  0.000000  0.000000  0.041062 -0.000000  0.000000
       5   -0.000000  0.000000 -0.000000 -0.000000  0.041062  0.000000
       6    0.000000 -0.000000 -0.000000  0.000000  0.000000  0.041062
-------------------------------------------------------------------------------

  Mechanical properties :

-------------------------------------------------------------------------------
  Convention :                    Reuss         Voigt         Hill
-------------------------------------------------------------------------------
  Bulk  Modulus (GPa)     =      43.82493      43.82493      43.82493
  Shear Modulus (GPa)     =      26.08758      26.29496      26.19127
-------------------------------------------------------------------------------
  Velocity S-wave (km/s)  =       3.34035       3.35360       3.34698
  Velocity P-wave (km/s)  =       5.79842       5.80861       5.80351
-------------------------------------------------------------------------------
  Compressibility (1/GPa) =    0.02281806
-------------------------------------------------------------------------------
  Stress axis :                     x             y             z
-------------------------------------------------------------------------------
  Youngs Moduli (GPa)     =      71.69479      71.69479      71.69479
-------------------------------------------------------------------------------
  Poissons Ratio (x)      =                     0.22734       0.22734
  Poissons Ratio (y)      =       0.22734                     0.22734
  Poissons Ratio (z)      =       0.22734       0.22734
-------------------------------------------------------------------------------


  Piezoelectric Strain Matrix: (Units=C/m**2)

-------------------------------------------------------------------------------
  Indices      1         2         3         4         5         6    
-------------------------------------------------------------------------------
       x    -0.00000   0.00000   0.00000   0.00000   0.00000   0.00000
       y     0.00000   0.00000   0.00000   0.00000   0.00000   0.00000
       z     0.00000  -0.00000   0.00000   0.00000   0.00000   0.00000
-------------------------------------------------------------------------------


  Piezoelectric Stress Matrix: (Units=10**-11 C/N)

-------------------------------------------------------------------------------
  Indices      1         2         3         4         5         6    
-------------------------------------------------------------------------------
       x    -0.00000   0.00000   0.00000   0.00000   0.00000   0.00000
       y     0.00000   0.00000   0.00000   0.00000   0.00000   0.00000
       z     0.00000  -0.00000   0.00000   0.00000   0.00000   0.00000
-------------------------------------------------------------------------------


  Static dielectric constant tensor : 

-------------------------------------------------------------------------------
              x         y         z
-------------------------------------------------------------------------------
       x    11.08357  -0.00000  -0.00000
       y    -0.00000  11.08357  -0.00000
       z    -0.00000  -0.00000  11.08357
--------------------------------------------------------------------------------

  High frequency dielectric constant tensor : 

-------------------------------------------------------------------------------
              x         y         z
-------------------------------------------------------------------------------
       x     1.50771  -0.00000   0.00000
       y    -0.00000   1.50771  -0.00000
       z     0.00000  -0.00000   1.50771
-------------------------------------------------------------------------------

  Static refractive indices : 

-------------------------------------------------------------------------------
    1 =    3.32920      2 =    3.32920      3 =    3.32920
-------------------------------------------------------------------------------

  High frequency refractive indices : 

-------------------------------------------------------------------------------
    1 =    1.22789      2 =    1.22789      3 =    1.22789
-------------------------------------------------------------------------------


  Time to end of optimisation =       0.2882 seconds

********************************************************************************
*  Defect calculation for configuration   1 :                                  *
********************************************************************************

  Total number of defects =      2

  Total charge on defect  =   0.00

  Defect centre is at   0.7500   0.5000   0.2500  Frac

  Region 1 radius =  12.0000      Number of ions =    624

  Number of symmetry inequivalent region 1 ions  =    202

  Region 2 radius =  16.0000      Number of ions =    744

  Number of symmetry inequivalent region 2a ions =    214

  Region 2a mode = 4 : screened electrostatics due to region 1 
                       neglect correction to region 1 forces from 2a
                       region 2a displacements based on defects only

  Region 2a ions will only interact with defects in region 1

  Vacancies:

--------------------------------------------------------------------------------
    Specification type     Symbol/Number         x          y          z
--------------------------------------------------------------------------------
    Fractional                               0.750000   0.500000   0.000000
--------------------------------------------------------------------------------

  Impurities:

--------------------------------------------------------------------------------
    Specification type     Symbol/Number         x          y          z
--------------------------------------------------------------------------------
    Frac/Symbol             Ba               0.750000   0.500000   0.500000
--------------------------------------------------------------------------------


  Symmetry reduced region 1 (Relative to defect centre) :

--------------------------------------------------------------------------------
   No.   Atomic       x            y             z       Radius  Multiplicity   
         Label      (Angs)       (Angs)        (Angs)    (Angs)     
--------------------------------------------------------------------------------
     1  Ba    c      0.0000       0.0000       2.2030 *  0.0000     1    Defect
     2  Cl    c     -0.0000      -2.2030 *    -0.0000 *  0.0000     2          
     3  Na    c      2.2030 *     0.0000      -0.0000 *  0.0000     2          
     4  O     c     -2.2030 *     0.0000       2.2030 *  0.0000     2          
     5  O     c      2.2030 *     0.0000      -2.2030 *  0.0000     2          
     6  Na    c      2.2030 *    -2.2030 *    -2.2030 *  0.0000     4          
     7  Na    c      2.2030 *    -2.2030 *     2.2030 *  0.0000     4          
     8  Na    c      0.0000       4.4059 *    -2.2030 *  0.0000     2          
     9  Na    c      0.0000       4.4059 *     2.2030 *  0.0000     2          
    10  Na    c      2.2030 *     4.4059 *     0.0000 *  0.0000     4          
    11  Na    c     -2.2030 *     0.0000       4.4059 *  0.0000     2          
    12  Cl    c     -0.0000       2.2030 *     4.4059 *  0.0000     2          
    13  Na    c      2.2030 *    -0.0000      -4.4059 *  0.0000     2          
    14  Cl    c      4.4059 *     2.2030 *    -0.0000 *  0.0000     4          
    15  Na    c     -4.4059 *    -0.0000       2.2030 *  0.0000     2          
    16  Na    c      4.4059 *    -0.0000      -2.2030 *  0.0000     2          
    17  Cl    c     -0.0000      -2.2030 *    -4.4059 *  0.0000     2          
    18  O     c     -2.2030 *    -4.4059 *     2.2030 *  0.0000     4          
    19  O     c     -2.2030 *    -4.4059 *    -2.2030 *  0.0000     4          
    20  Na    c     -4.4059 *    -4.4059 *    -2.2030 *  0.0000     4          
    21  Na    c     -4.4059 *    -4.4059 *     2.2030 *  0.0000     4          
    22  Na    c      6.6089 *    -0.0000      -0.0000 *  0.0000     2          
    23  Na    c      2.2030 *    -4.4059 *    -4.4059 *  0.0000     4          
    24  Na    c      2.2030 *    -4.4059 *     4.4059 *  0.0000     4          
    25  Cl    c      4.4059 *     2.2030 *    -4.4059 *  0.0000     4          
    26  Cl    c     -4.4059 *    -2.2030 *     4.4059 *  0.0000     4          
    27  Cl    c     -0.0000      -6.6089 *    -0.0000 *  0.0000     2          
    28  Na    c     -0.0000       0.0000      -6.6089 *  0.0000     1          
    29  Na    c      0.0000       0.0000       6.6089 *  0.0000     1          
    30  O     c     -2.2030 *     0.0000       6.6089 *  0.0000     2          
    31  O     c      6.6089 *     0.0000       2.2030 *  0.0000     2          
    32  O     c      2.2030 *     0.0000      -6.6089 *  0.0000     2          
    33  O     c      6.6089 *     0.0000      -2.2030 *  0.0000     2          
    34  Na    c      6.6089 *     2.2030 *    -2.2030 *  0.0000     4          
    35  Na    c      6.6089 *     2.2030 *     2.2030 *  0.0000     4          
    36  Na    c     -2.2030 *    -2.2030 *     6.6089 *  0.0000     4          
    37  Na    c     -2.2030 *    -2.2030 *    -6.6089 *  0.0000     4          
    38  Na    c      2.2030 *     6.6089 *    -2.2030 *  0.0000     4          
    39  Na    c      2.2030 *     6.6089 *     2.2030 *  0.0000     4          
    40  Na    c      0.0000       4.4059 *     6.6089 *  0.0000     2          
    41  Na    c      0.0000       4.4059 *    -6.6089 *  0.0000     2          
    42  Na    c     -6.6089 *     4.4059 *    -0.0000 *  0.0000     4          
    43  Na    c     -4.4059 *    -0.0000       6.6089 *  0.0000     2          
    44  Na    c      4.4059 *    -0.0000      -6.6089 *  0.0000     2          
    45  Cl    c     -0.0000      -6.6089 *     4.4059 *  0.0000     2          
    46  Cl    c      4.4059 *    -6.6089 *    -0.0000 *  0.0000     4          
    47  Na    c      6.6089 *     0.0000       4.4059 *  0.0000     2          
    48  Na    c      6.6089 *     0.0000      -4.4059 *  0.0000     2          
    49  Cl    c     -0.0000      -6.6089 *    -4.4059 *  0.0000     2          
    50  O     c     -6.6089 *    -4.4059 *     2.2030 *  0.0000     4          
    51  O     c     -2.2030 *    -4.4059 *     6.6089 *  0.0000     4          
    52  O     c     -6.6089 *    -4.4059 *    -2.2030 *  0.0000     4          
    53  O     c      2.2030 *    -4.4059 *    -6.6089 *  0.0000     4          
    54  Na    c     -0.0000      -8.8118 *    -2.2030 *  0.0000     2          
    55  Na    c      0.0000      -8.8118 *     2.2030 *  0.0000     2          
    56  Na    c     -4.4059 *    -4.4059 *     6.6089 *  0.0000     4          
    57  Na    c     -4.4059 *    -4.4059 *    -6.6089 *  0.0000     4          
    58  Na    c      2.2030 *    -8.8118 *    -0.0000 *  0.0000     4          
    59  Na    c      8.8118 *     0.0000      -2.2030 *  0.0000     2          
    60  Na    c     -8.8118 *     0.0000       2.2030 *  0.0000     2          
    61  Na    c     -6.6089 *    -4.4059 *     4.4059 *  0.0000     4          
    62  Na    c     -6.6089 *    -4.4059 *    -4.4059 *  0.0000     4          
    63  Cl    c      8.8118 *     2.2030 *    -0.0000 *  0.0000     4          
    64  Cl    c      0.0000      -2.2030 *     8.8118 *  0.0000     2          
    65  Na    c     -2.2030 *    -0.0000       8.8118 *  0.0000     2          
    66  Cl    c     -0.0000      -2.2030 *    -8.8118 *  0.0000     2          
    67  Na    c      2.2030 *     0.0000      -8.8118 *  0.0000     2          
    68  Cl    c      4.4059 *    -6.6089 *    -4.4059 *  0.0000     4          
    69  Cl    c      4.4059 *    -6.6089 *     4.4059 *  0.0000     4          
    70  O     c      6.6089 *     0.0000       6.6089 *  0.0000     2          
    71  O     c     -6.6089 *     0.0000      -6.6089 *  0.0000     2          
    72  O     c     -2.2030 *    -8.8118 *     2.2030 *  0.0000     4          
    73  O     c     -2.2030 *    -8.8118 *    -2.2030 *  0.0000     4          
    74  Na    c     -6.6089 *     2.2030 *     6.6089 *  0.0000     4          
    75  Na    c     -6.6089 *     2.2030 *    -6.6089 *  0.0000     4          
    76  Na    c      6.6089 *    -6.6089 *    -2.2030 *  0.0000     4          
    77  Na    c      6.6089 *    -6.6089 *     2.2030 *  0.0000     4          
    78  Na    c     -2.2030 *     6.6089 *     6.6089 *  0.0000     4          
    79  Na    c     -2.2030 *     6.6089 *    -6.6089 *  0.0000     4          
    80  Na    c      4.4059 *     8.8118 *    -2.2030 *  0.0000     4          
    81  Na    c      4.4059 *     8.8118 *     2.2030 *  0.0000     4          
    82  Na    c     -8.8118 *     4.4059 *    -2.2030 *  0.0000     4          
    83  Na    c     -8.8118 *     4.4059 *     2.2030 *  0.0000     4          
    84  Na    c      2.2030 *     8.8118 *     4.4059 *  0.0000     4          
    85  Na    c      2.2030 *     8.8118 *    -4.4059 *  0.0000     4          
    86  Cl    c      8.8118 *     2.2030 *     4.4059 *  0.0000     4          
    87  Na    c      2.2030 *     4.4059 *     8.8118 *  0.0000     4          
    88  Na    c      2.2030 *     4.4059 *    -8.8118 *  0.0000     4          
    89  Cl    c      4.4059 *     2.2030 *     8.8118 *  0.0000     4          
    90  Cl    c      8.8118 *     2.2030 *    -4.4059 *  0.0000     4          
    91  Cl    c      4.4059 *     2.2030 *    -8.8118 *  0.0000     4          
    92  O     c     -6.6089 *    -4.4059 *    -6.6089 *  0.0000     4          
    93  O     c     -6.6089 *     4.4059 *     6.6089 *  0.0000     4          
    94  Na    c      0.0000      -8.8118 *     6.6089 *  0.0000     2          
    95  Na    c     -0.0000      -8.8118 *    -6.6089 *  0.0000     2          
    96  Na    c     -6.6089 *    -8.8118 *    -0.0000 *  0.0000     4          
    97  Na    c     -0.0000       0.0000     -11.0148 *  0.0000     1          
    98  Na    c      0.0000       0.0000      11.0148 *  0.0000     1          
    99  Na    c      6.6089 *    -0.0000       8.8118 *  0.0000     2          
   100  Na    c     -6.6089 *     0.0000      -8.8118 *  0.0000     2          
   101  Cl    c     -0.0000       6.6089 *     8.8118 *  0.0000     2          
   102  Cl    c      8.8118 *    -6.6089 *    -0.0000 *  0.0000     4          
   103  Na    c      8.8118 *     0.0000      -6.6089 *  0.0000     2          
   104  Na    c     -8.8118 *     0.0000       6.6089 *  0.0000     2          
   105  Cl    c     -0.0000      -6.6089 *    -8.8118 *  0.0000     2          
   106  Na    c     11.0148 *     0.0000      -0.0000 *  0.0000     2          
   107  Cl    c     -0.0000     -11.0148 *    -0.0000 *  0.0000     2          
   108  O     c     -2.2030 *     0.0000      11.0148 *  0.0000     2          
   109  O     c     11.0148 *     0.0000      -2.2030 *  0.0000     2          
   110  O     c    -11.0148 *     0.0000       2.2030 *  0.0000     2          
   111  O     c      2.2030 *     0.0000     -11.0148 *  0.0000     2          
   112  O     c     -2.2030 *    -8.8118 *     6.6089 *  0.0000     4          
   113  O     c      6.6089 *    -8.8118 *     2.2030 *  0.0000     4          
   114  O     c      6.6089 *    -8.8118 *    -2.2030 *  0.0000     4          
   115  O     c      2.2030 *    -8.8118 *    -6.6089 *  0.0000     4          
   116  Na    c     11.0148 *    -2.2030 *    -2.2030 *  0.0000     4          
   117  Na    c     11.0148 *    -2.2030 *     2.2030 *  0.0000     4          
   118  Na    c     -6.6089 *    -6.6089 *     6.6089 *  0.0000     4          
   119  Na    c     -6.6089 *    -6.6089 *    -6.6089 *  0.0000     4          
   120  Na    c      2.2030 *    -2.2030 *   -11.0148 *  0.0000     4          
   121  Na    c      2.2030 *    -2.2030 *    11.0148 *  0.0000     4          
   122  Na    c      2.2030 *   -11.0148 *    -2.2030 *  0.0000     4          
   123  Na    c      2.2030 *   -11.0148 *     2.2030 *  0.0000     4          
   124  Na    c      4.4059 *     8.8118 *     6.6089 *  0.0000     4          
   125  Na    c      4.4059 *     8.8118 *    -6.6089 *  0.0000     4          
   126  Na    c      0.0000       4.4059 *   -11.0148 *  0.0000     2          
   127  Na    c      0.0000       4.4059 *    11.0148 *  0.0000     2          
   128  Na    c     -8.8118 *     4.4059 *     6.6089 *  0.0000     4          
   129  Na    c      8.8118 *     4.4059 *    -6.6089 *  0.0000     4          
   130  Na    c    -11.0148 *     0.0000       4.4059 *  0.0000     2          
   131  Na    c     11.0148 *    -0.0000      -4.4059 *  0.0000     2          
   132  Na    c     -6.6089 *     4.4059 *     8.8118 *  0.0000     4          
   133  Na    c     -6.6089 *     4.4059 *    -8.8118 *  0.0000     4          
   134  Cl    c      8.8118 *    -6.6089 *     4.4059 *  0.0000     4          
   135  Na    c     -6.6089 *     8.8118 *     4.4059 *  0.0000     4          
   136  Na    c     -6.6089 *     8.8118 *    -4.4059 *  0.0000     4          
   137  Cl    c      4.4059 *    -6.6089 *     8.8118 *  0.0000     4          
   138  Na    c     11.0148 *     4.4059 *     0.0000 *  0.0000     4          
   139  Cl    c      8.8118 *    -6.6089 *    -4.4059 *  0.0000     4          
   140  Cl    c      4.4059 *    -6.6089 *    -8.8118 *  0.0000     4          
   141  Cl    c     -0.0000     -11.0148 *     4.4059 *  0.0000     2          
   142  Na    c     -4.4059 *    -0.0000      11.0148 *  0.0000     2          
   143  Cl    c      4.4059 *   -11.0148 *    -0.0000 *  0.0000     4          
   144  Na    c      4.4059 *    -0.0000     -11.0148 *  0.0000     2          
   145  Cl    c     -0.0000     -11.0148 *    -4.4059 *  0.0000     2          
   146  Ba    s      0.0000       0.0000       2.2030 *  0.0000     1    Defect
   147  Cl    s     -0.0000       2.2030 *    -0.0000 *  0.0000     2          
   148  O     s     -2.2030 *     0.0000       2.2030 *  0.0000     2          
   149  O     s      2.2030 *     0.0000      -2.2030 *  0.0000     2          
   150  Cl    s     -0.0000       2.2030 *     4.4059 *  0.0000     2          
   151  Cl    s      4.4059 *     2.2030 *    -0.0000 *  0.0000     4          
   152  Cl    s     -0.0000      -2.2030 *    -4.4059 *  0.0000     2          
   153  O     s     -2.2030 *    -4.4059 *     2.2030 *  0.0000     4          
   154  O     s     -2.2030 *    -4.4059 *    -2.2030 *  0.0000     4          
   155  Cl    s      4.4059 *     2.2030 *    -4.4059 *  0.0000     4          
   156  Cl    s      4.4059 *     2.2030 *     4.4059 *  0.0000     4          
   157  Cl    s     -0.0000       6.6089 *    -0.0000 *  0.0000     2          
   158  O     s     -2.2030 *     0.0000       6.6089 *  0.0000     2          
   159  O     s      6.6089 *     0.0000       2.2030 *  0.0000     2          
   160  O     s      2.2030 *     0.0000      -6.6089 *  0.0000     2          
   161  O     s      6.6089 *     0.0000      -2.2030 *  0.0000     2          
   162  Cl    s     -0.0000      -6.6089 *     4.4059 *  0.0000     2          
   163  Cl    s      4.4059 *    -6.6089 *    -0.0000 *  0.0000     4          
   164  Cl    s     -0.0000      -6.6089 *    -4.4059 *  0.0000     2          
   165  O     s     -6.6089 *    -4.4059 *     2.2030 *  0.0000     4          
   166  O     s     -2.2030 *    -4.4059 *     6.6089 *  0.0000     4          
   167  O     s     -6.6089 *    -4.4059 *    -2.2030 *  0.0000     4          
   168  O     s      2.2030 *    -4.4059 *    -6.6089 *  0.0000     4          
   169  Cl    s      0.0000      -2.2030 *     8.8118 *  0.0000     2          
   170  Cl    s      8.8118 *     2.2030 *    -0.0000 *  0.0000     4          
   171  Cl    s     -0.0000       2.2030 *    -8.8118 *  0.0000     2          
   172  Cl    s      4.4059 *    -6.6089 *    -4.4059 *  0.0000     4          
   173  Cl    s      4.4059 *    -6.6089 *     4.4059 *  0.0000     4          
   174  O     s      6.6089 *     0.0000       6.6089 *  0.0000     2          
   175  O     s     -6.6089 *     0.0000      -6.6089 *  0.0000     2          
   176  O     s     -2.2030 *    -8.8118 *     2.2030 *  0.0000     4          
   177  O     s     -2.2030 *    -8.8118 *    -2.2030 *  0.0000     4          
   178  Cl    s      8.8118 *     2.2030 *     4.4059 *  0.0000     4          
   179  Cl    s      4.4059 *     2.2030 *     8.8118 *  0.0000     4          
   180  Cl    s      8.8118 *     2.2030 *    -4.4059 *  0.0000     4          
   181  Cl    s      4.4059 *     2.2030 *    -8.8118 *  0.0000     4          
   182  O     s     -6.6089 *    -4.4059 *    -6.6089 *  0.0000     4          
   183  O     s     -6.6089 *     4.4059 *     6.6089 *  0.0000     4          
   184  Cl    s     -0.0000       6.6089 *     8.8118 *  0.0000     2          
   185  Cl    s      8.8118 *    -6.6089 *    -0.0000 *  0.0000     4          
   186  Cl    s     -0.0000      -6.6089 *    -8.8118 *  0.0000     2          
   187  Cl    s     -0.0000     -11.0148 *    -0.0000 *  0.0000     2          
   188  O     s     -2.2030 *     0.0000      11.0148 *  0.0000     2          
   189  O     s     11.0148 *     0.0000      -2.2030 *  0.0000     2          
   190  O     s    -11.0148 *     0.0000       2.2030 *  0.0000     2          
   191  O     s      2.2030 *     0.0000     -11.0148 *  0.0000     2          
   192  O     s     -2.2030 *    -8.8118 *     6.6089 *  0.0000     4          
   193  O     s      6.6089 *    -8.8118 *     2.2030 *  0.0000     4          
   194  O     s      6.6089 *    -8.8118 *    -2.2030 *  0.0000     4          
   195  O     s      2.2030 *    -8.8118 *    -6.6089 *  0.0000     4          
   196  Cl    s      8.8118 *    -6.6089 *     4.4059 *  0.0000     4          
   197  Cl    s      4.4059 *    -6.6089 *     8.8118 *  0.0000     4          
   198  Cl    s      8.8118 *    -6.6089 *    -4.4059 *  0.0000     4          
   199  Cl    s      4.4059 *    -6.6089 *    -8.8118 *  0.0000     4          
   200  Cl    s     -0.0000     -11.0148 *     4.4059 *  0.0000     2          
   201  Cl    s      4.4059 *   -11.0148 *    -0.0000 *  0.0000     4          
   202  Cl    s     -0.0000     -11.0148 *    -4.4059 *  0.0000     2          
--------------------------------------------------------------------------------

  Components of defect energy : 

--------------------------------------------------------------------------------
  Region 1 - region 1                   =      1.50078166 eV
  Region 1 - region 2a (unrelaxed)      =      0.00000005 eV
  Region 1 - 2a (relaxed - correction)  =     -0.53780853 eV
  Region 1 (Total)                      =      0.96297318 eV
  Region 2a                             =      0.26892054 eV
  Region 2b                             =      0.00000000 eV
--------------------------------------------------------------------------------
  Total defect energy                   =      1.23189371 eV
--------------------------------------------------------------------------------

  Largest displacement in region 2 =   0.0999 Angstroms


  Number of variables =      511

  Maximum number of calculations  =        1000
  Maximum Hessian update interval =          10
  Maximum step size               =   1.0000000
  Maximum parameter tolerance     =   0.0000100
  Maximum function  tolerance     =   0.0000100
  Maximum gradient  tolerance     =   0.0010000

  Symmetry adapted optimisation

  Symmetry to be used for second derivatives

  Newton-Raphson optimiser to be used

  BFGS hessian update to be used

  Lower half triangular hessian to be used

  Start of defect optimisation :

  Cycle:      0 Defect Energy:   1.231894  Gnorm:     0.045828  CPU:    2.674
  ** Hessian calculated **
  Cycle:      1 Defect Energy:   0.094610  Gnorm:     0.038800  CPU:    7.112
  Cycle:      2 Defect Energy:  -1.426520  Gnorm:     0.026237  CPU:   14.713
  Cycle:      3 Defect Energy:  -2.396351  Gnorm:     0.012322  CPU:   18.987
  Cycle:      4 Defect Energy:  -2.616581  Gnorm:     0.007324  CPU:   22.349
  Cycle:      5 Defect Energy:  -2.695852  Gnorm:     0.004719  CPU:   23.276
  Cycle:      6 Defect Energy:  -2.736260  Gnorm:     0.002193  CPU:   24.009
  Cycle:      7 Defect Energy:  -2.745556  Gnorm:     0.001506  CPU:   24.736
  Cycle:      8 Defect Energy:  -2.746727  Gnorm:     0.001206  CPU:   25.484
  ** Hessian calculated **
  Cycle:      9 Defect Energy:  -2.747033  Gnorm:     0.000575  CPU:   27.203
  Cycle:     10 Defect Energy:  -2.747148  Gnorm:     0.000503  CPU:   28.048
  Cycle:     11 Defect Energy:  -2.747435  Gnorm:     0.000459  CPU:   28.762
  Cycle:     12 Defect Energy:  -2.748094  Gnorm:     0.000476  CPU:   29.482
  Cycle:     13 Defect Energy:  -2.748300  Gnorm:     0.000472  CPU:   30.206
  Cycle:     14 Defect Energy:  -2.748984  Gnorm:     0.000487  CPU:   30.906
  Cycle:     15 Defect Energy:  -2.749165  Gnorm:     0.000502  CPU:   31.610
  Cycle:     16 Defect Energy:  -2.749904  Gnorm:     0.000508  CPU:   32.314
  Cycle:     17 Defect Energy:  -2.750213  Gnorm:     0.000512  CPU:   33.118
  Cycle:     18 Defect Energy:  -2.750782  Gnorm:     0.000514  CPU:   33.799
  ** Hessian calculated **
  Cycle:     19 Defect Energy:  -2.750994  Gnorm:     0.000500  CPU:   35.361
  Cycle:     20 Defect Energy:  -2.751174  Gnorm:     0.000490  CPU:   36.036
  Cycle:     21 Defect Energy:  -2.751328  Gnorm:     0.000478  CPU:   36.706
  Cycle:     22 Defect Energy:  -2.751553  Gnorm:     0.000459  CPU:   37.394
  Cycle:     23 Defect Energy:  -2.751750  Gnorm:     0.000444  CPU:   38.172
  Cycle:     24 Defect Energy:  -2.751849  Gnorm:     0.000428  CPU:   38.831
  Cycle:     25 Defect Energy:  -2.752021  Gnorm:     0.000417  CPU:   39.486
  Cycle:     26 Defect Energy:  -2.752103  Gnorm:     0.000413  CPU:   40.130
  Cycle:     27 Defect Energy:  -2.752256  Gnorm:     0.000394  CPU:   40.778
  Cycle:     28 Defect Energy:  -2.752512  Gnorm:     0.000400  CPU:   41.429
  ** Hessian calculated **
  Cycle:     29 Defect Energy:  -2.752479  Gnorm:     0.000383  CPU:   43.016
  Cycle:     30 Defect Energy:  -2.752666  Gnorm:     0.000387  CPU:   43.627
  Cycle:     31 Defect Energy:  -2.752899  Gnorm:     0.000381  CPU:   46.752
  Cycle:     32 Defect Energy:  -2.753194  Gnorm:     0.000388  CPU:   49.248
  Cycle:     33 Defect Energy:  -2.753330  Gnorm:     0.000387  CPU:   50.059
  Cycle:     34 Defect Energy:  -2.753543  Gnorm:     0.000393  CPU:   50.867
  Cycle:     35 Defect Energy:  -2.753606  Gnorm:     0.000400  CPU:   51.705
  Cycle:     36 Defect Energy:  -2.753868  Gnorm:     0.000405  CPU:   52.531
  Cycle:     37 Defect Energy:  -2.754015  Gnorm:     0.000411  CPU:   53.263
  Cycle:     38 Defect Energy:  -2.754253  Gnorm:     0.000417  CPU:   53.723
  ** Hessian calculated **
  Cycle:     39 Defect Energy:  -2.754387  Gnorm:     0.000407  CPU:   55.567
  Cycle:     40 Defect Energy:  -2.754427  Gnorm:     0.000402  CPU:   56.335
  Cycle:     41 Defect Energy:  -2.754535  Gnorm:     0.000391  CPU:   57.128
  Cycle:     42 Defect Energy:  -2.754613  Gnorm:     0.000376  CPU:   57.894
  Cycle:     43 Defect Energy:  -2.754691  Gnorm:     0.000366  CPU:   58.659
  Cycle:     44 Defect Energy:  -2.754699  Gnorm:     0.000359  CPU:   59.520
  Cycle:     45 Defect Energy:  -2.754767  Gnorm:     0.000356  CPU:   60.256
  Cycle:     46 Defect Energy:  -2.754781  Gnorm:     0.000347  CPU:   60.991
[...]
    121 y          2.202951      2.202998     0.000047    Cartesian    0.00
    121 z         13.217707     13.218670     0.000963    Cartesian    0.01
    122 x          8.811805      8.777757    -0.034047    Cartesian   -0.39
    122 y         -6.608853     -6.601887     0.006966    Cartesian   -0.11
    122 z          0.000000     -0.005695    -0.005695    Cartesian *******
    123 x          8.811805      8.836800     0.024996    Cartesian    0.28
    123 y         -6.608853     -6.612028    -0.003174    Cartesian    0.05
    123 z          4.405902      4.392564    -0.013338    Cartesian   -0.30
    124 x         11.014756     11.015460     0.000704    Cartesian    0.01
    124 y         13.217707     13.217015    -0.000692    Cartesian   -0.01
    124 z          8.811805      8.811418    -0.000387    Cartesian   -0.00
    125 x         11.014756     11.012839    -0.001917    Cartesian   -0.02
    125 y         13.217707     13.211566    -0.006141    Cartesian   -0.05
    125 z         -4.405902     -4.404404     0.001499    Cartesian   -0.03
    126 x          6.608853      6.608853     0.000000    Cartesian    0.00
    126 y          8.811805      8.813053     0.001249    Cartesian    0.01
    126 z         -8.811805     -8.812919    -0.001114    Cartesian    0.01
    127 x          6.608853      6.608853     0.000000    Cartesian    0.00
    127 y          8.811805      8.817039     0.005234    Cartesian    0.06
    127 z         13.217707     13.218292     0.000585    Cartesian    0.00
    128 x         -2.202951     -2.205707    -0.002756    Cartesian    0.13
    128 y          8.811805      8.812189     0.000384    Cartesian    0.00
    128 z          8.811805      8.810933    -0.000871    Cartesian   -0.01
    129 x         15.420658     15.419869    -0.000790    Cartesian   -0.01
    129 y          8.811805      8.809531    -0.002274    Cartesian   -0.03
    129 z         -4.405902     -4.407219    -0.001317    Cartesian    0.03
    130 x         -4.405902     -4.397832     0.008071    Cartesian   -0.18
    130 y          4.405902      4.405902     0.000000    Cartesian    0.00
    130 z          6.608853      6.606770    -0.002084    Cartesian   -0.03
    131 x         17.623609     17.604689    -0.018920    Cartesian   -0.11
    131 y          4.405902      4.405902     0.000000    Cartesian    0.00
    131 z         -2.202951     -2.204718    -0.001767    Cartesian    0.08
    132 x          0.000000     -0.004041    -0.004041    Cartesian *******
    132 y          8.811805      8.819364     0.007559    Cartesian    0.09
    132 z         11.014756     11.014346    -0.000410    Cartesian   -0.00
    133 x          0.000000     -0.005917    -0.005917    Cartesian *******
    133 y          8.811805      8.813566     0.001761    Cartesian    0.02
    133 z         -6.608853     -6.612924    -0.004071    Cartesian    0.06
    134 x         15.420658     15.425356     0.004698    Cartesian    0.03
    134 y         -2.202951     -2.208519    -0.005568    Cartesian    0.25
    134 z          6.608853      6.617720     0.008867    Cartesian    0.13
    135 x         -0.000000      0.007232     0.007232    Cartesian *******
    135 y         13.217707     13.233710     0.016003    Cartesian    0.12
    135 z          6.608853      6.609170     0.000317    Cartesian    0.00
    136 x         -0.000000     -0.002867    -0.002867    Cartesian *******
    136 y         13.217707     13.210392    -0.007315    Cartesian   -0.06
    136 z         -2.202951     -2.204477    -0.001526    Cartesian    0.07
    137 x         11.014756     11.007448    -0.007307    Cartesian   -0.07
    137 y         -2.202951     -2.194764     0.008187    Cartesian   -0.37
    137 z         11.014756     11.015013     0.000257    Cartesian    0.00
    138 x         17.623609     17.622848    -0.000761    Cartesian   -0.00
    138 y          8.811805      8.805056    -0.006749    Cartesian   -0.08
    138 z          2.202951      2.198988    -0.003963    Cartesian   -0.18
    139 x         15.420658     15.427305     0.006647    Cartesian    0.04
    139 y         -2.202951     -2.204625    -0.001674    Cartesian    0.08
    139 z         -2.202951     -2.194625     0.008327    Cartesian   -0.38
    140 x         11.014756     11.018106     0.003351    Cartesian    0.03
    140 y         -2.202951     -2.209168    -0.006217    Cartesian    0.28
    140 z         -6.608853     -6.611054    -0.002201    Cartesian    0.03
    141 x          6.608853      6.608853     0.000000    Cartesian    0.00
    141 y         -6.608853     -6.602729     0.006125    Cartesian   -0.09
    141 z          6.608853      6.620615     0.011762    Cartesian    0.18
    142 x          2.202951      2.203658     0.000707    Cartesian    0.03
    142 y          4.405902      4.405902     0.000000    Cartesian    0.00
    142 z         13.217707     13.221927     0.004220    Cartesian    0.03
    143 x         11.014756     11.014574    -0.000181    Cartesian   -0.00
    143 y         -6.608853     -6.609289    -0.000436    Cartesian    0.01
    143 z          2.202951      2.206919     0.003968    Cartesian    0.18
    144 x         11.014756     11.016336     0.001580    Cartesian    0.01
    144 y          4.405902      4.405902     0.000000    Cartesian    0.00
    144 z         -8.811805     -8.840407    -0.028602    Cartesian    0.32
    145 x          6.608853      6.608853     0.000000    Cartesian    0.00
    145 y         -6.608853     -6.615158    -0.006304    Cartesian    0.10
    145 z         -2.202951     -2.194649     0.008302    Cartesian   -0.38
    146 x          6.608853      6.608853     0.000000    Cartesian    0.00
    146 y          4.405902      4.405902     0.000000    Cartesian    0.00
    146 z          4.405902      3.833772    -0.572131    Cartesian  -12.99
    147 x          6.608853      6.608853     0.000000    Cartesian    0.00
    147 y          6.608853      6.937773     0.328919    Cartesian    4.98
    147 z          2.202951      2.199862    -0.003089    Cartesian   -0.14
    148 x          4.405902      4.236296    -0.169606    Cartesian   -3.85
    148 y          4.405902      4.405902     0.000000    Cartesian    0.00
    148 z          4.405902      4.320989    -0.084913    Cartesian   -1.93
    149 x          8.811805      9.078482     0.266677    Cartesian    3.03
    149 y          4.405902      4.405902     0.000000    Cartesian    0.00
    149 z         -0.000000     -0.002828    -0.002828    Cartesian *******
    150 x          6.608853      6.608853     0.000000    Cartesian    0.00
    150 y          6.608853      6.472618    -0.136235    Cartesian   -2.06
    150 z          6.608853      6.459257    -0.149596    Cartesian   -2.26
    151 x         11.014756     11.139338     0.124582    Cartesian    1.13
    151 y          6.608853      6.670048     0.061194    Cartesian    0.93
    151 z          2.202951      2.334040     0.131088    Cartesian    5.95
    152 x          6.608853      6.608853     0.000000    Cartesian    0.00
    152 y          2.202951      2.129134    -0.073817    Cartesian   -3.35
    152 z         -2.202951     -2.273669    -0.070718    Cartesian    3.21
    153 x          4.405902      4.369238    -0.036664    Cartesian   -0.83
    153 y          0.000000     -0.018279    -0.018279    Cartesian *******
    153 z          4.405902      4.419552     0.013649    Cartesian    0.31
    154 x          4.405902      4.406425     0.000523    Cartesian    0.01
    154 y          0.000000      0.028355     0.028355    Cartesian *******
    154 z         -0.000000     -0.007006    -0.007006    Cartesian *******
    155 x         11.014756     11.124837     0.110081    Cartesian    1.00
    155 y          6.608853      6.671122     0.062268    Cartesian    0.94
    155 z         -2.202951     -2.278673    -0.075722    Cartesian    3.44
    156 x         11.014756     11.005936    -0.008820    Cartesian   -0.08
    156 y          6.608853      6.568715    -0.040138    Cartesian   -0.61
    156 z          6.608853      6.616121     0.007268    Cartesian    0.11
    157 x          6.608853      6.608853     0.000000    Cartesian    0.00
    157 y         11.014756     11.048675     0.033919    Cartesian    0.31
    157 z          2.202951      2.232152     0.029201    Cartesian    1.33
    158 x          4.405902      4.399274    -0.006628    Cartesian   -0.15
    158 y          4.405902      4.405902     0.000000    Cartesian    0.00
    158 z          8.811805      8.798515    -0.013289    Cartesian   -0.15
    159 x         13.217707     13.282130     0.064423    Cartesian    0.49
    159 y          4.405902      4.405902     0.000000    Cartesian    0.00
    159 z          4.405902      4.415559     0.009657    Cartesian    0.22
    160 x          8.811805      8.799566    -0.012239    Cartesian   -0.14
    160 y          4.405902      4.405902     0.000000    Cartesian    0.00
    160 z         -4.405902     -4.364942     0.040960    Cartesian   -0.93
    161 x         13.217707     13.288521     0.070814    Cartesian    0.54
    161 y          4.405902      4.405902     0.000000    Cartesian    0.00
    161 z         -0.000000     -0.030836    -0.030836    Cartesian *******
    162 x          6.608853      6.608853     0.000000    Cartesian    0.00
    162 y         -2.202951     -2.173601     0.029350    Cartesian   -1.33
    162 z          6.608853      6.625885     0.017031    Cartesian    0.26
    163 x         11.014756     11.017326     0.002571    Cartesian    0.02
    163 y         -2.202951     -2.216645    -0.013694    Cartesian    0.62
    163 z          2.202951      2.229667     0.026716    Cartesian    1.21
    164 x          6.608853      6.608853     0.000000    Cartesian    0.00
    164 y         -2.202951     -2.217334    -0.014383    Cartesian    0.65
    164 z         -2.202951     -2.186607     0.016344    Cartesian   -0.74
    165 x          0.000000     -0.028565    -0.028565    Cartesian *******
    165 y          0.000000     -0.030299    -0.030299    Cartesian *******
    165 z          4.405902      4.416437     0.010535    Cartesian    0.24
    166 x          4.405902      4.410550     0.004648    Cartesian    0.11
    166 y          0.000000      0.005746     0.005746    Cartesian *******
    166 z          8.811805      8.807100    -0.004705    Cartesian   -0.05
    167 x          0.000000      0.000919     0.000919    Cartesian    0.00
    167 y          0.000000      0.010633     0.010633    Cartesian    0.00
    167 z          0.000000      0.001072     0.001072    Cartesian    0.00
    168 x          8.811805      8.818409     0.006605    Cartesian    0.07
    168 y          0.000000      0.002228     0.002228    Cartesian *******
    168 z         -4.405902     -4.406629    -0.000726    Cartesian    0.02
    169 x          6.608853      6.608853     0.000000    Cartesian    0.00
    169 y          2.202951      2.204906     0.001955    Cartesian    0.09
    169 z         11.014756     10.993330    -0.021426    Cartesian   -0.19
    170 x         15.420658     15.442423     0.021765    Cartesian    0.14
    170 y          6.608853      6.606357    -0.002497    Cartesian   -0.04
    170 z          2.202951      2.213260     0.010308    Cartesian    0.47
    171 x          6.608853      6.608853     0.000000    Cartesian    0.00
    171 y          6.608853      6.602842    -0.006011    Cartesian   -0.09
    171 z         -6.608853     -6.615118    -0.006264    Cartesian    0.09
    172 x         11.014756     11.018409     0.003653    Cartesian    0.03
    172 y         -2.202951     -2.220796    -0.017845    Cartesian    0.81
    172 z         -2.202951     -2.197184     0.005767    Cartesian   -0.26
    173 x         11.014756     11.017024     0.002268    Cartesian    0.02
    173 y         -2.202951     -2.199807     0.003144    Cartesian   -0.14
    173 z          6.608853      6.632972     0.024119    Cartesian    0.36
    174 x         13.217707     13.239343     0.021636    Cartesian    0.16
    174 y          4.405902      4.405902     0.000000    Cartesian    0.00
    174 z          8.811805      8.817855     0.006051    Cartesian    0.07
    175 x          0.000000     -0.019454    -0.019454    Cartesian *******
    175 y          4.405902      4.405902     0.000000    Cartesian    0.00
    175 z         -4.405902     -4.404666     0.001236    Cartesian   -0.03
    176 x          4.405902      4.409288     0.003386    Cartesian    0.08
    176 y         -4.405902     -4.412149    -0.006247    Cartesian    0.14
    176 z          4.405902      4.407101     0.001199    Cartesian    0.03
    177 x          4.405902      4.399970    -0.005933    Cartesian   -0.13
    177 y         -4.405902     -4.393400     0.012502    Cartesian   -0.28
    177 z         -0.000000     -0.002897    -0.002897    Cartesian *******
    178 x         15.420658     15.425707     0.005049    Cartesian    0.03
    178 y          6.608853      6.614961     0.006108    Cartesian    0.09
    178 z          6.608853      6.630493     0.021639    Cartesian    0.33
    179 x         11.014756     11.009047    -0.005709    Cartesian   -0.05
    179 y          6.608853      6.605496    -0.003357    Cartesian   -0.05
    179 z         11.014756     11.010485    -0.004271    Cartesian   -0.04
    180 x         15.420658     15.453376     0.032718    Cartesian    0.21
    180 y          6.608853      6.608689    -0.000164    Cartesian   -0.00
    180 z         -2.202951     -2.191843     0.011108    Cartesian   -0.50
    181 x         11.014756     11.015307     0.000552    Cartesian    0.01
    181 y          6.608853      6.606472    -0.002382    Cartesian   -0.04
    181 z         -6.608853     -6.616447    -0.007593    Cartesian    0.11
    182 x          0.000000     -0.007529    -0.007529    Cartesian *******
    182 y          0.000000     -0.010878    -0.010878    Cartesian *******
    182 z         -4.405902     -4.416858    -0.010956    Cartesian    0.25
    183 x          0.000000      0.000183     0.000183    Cartesian *******
    183 y          8.811805      8.810607    -0.001197    Cartesian   -0.01
    183 z          8.811805      8.812544     0.000739    Cartesian    0.01
    184 x          6.608853      6.608853     0.000000    Cartesian    0.00
    184 y         11.014756     11.000610    -0.014146    Cartesian   -0.13
    184 z         11.014756     11.013136    -0.001619    Cartesian   -0.01
    185 x         15.420658     15.426363     0.005705    Cartesian    0.04
    185 y         -2.202951     -2.206447    -0.003496    Cartesian    0.16
    185 z          2.202951      2.223934     0.020983    Cartesian    0.95
    186 x          6.608853      6.608853     0.000000    Cartesian    0.00
    186 y         -2.202951     -2.208584    -0.005633    Cartesian    0.26
    186 z         -6.608853     -6.608507     0.000346    Cartesian   -0.01
    187 x          6.608853      6.608853     0.000000    Cartesian    0.00
    187 y         -6.608853     -6.613521    -0.004667    Cartesian    0.07
    187 z          2.202951      2.209819     0.006867    Cartesian    0.31
    188 x          4.405902      4.406381     0.000478    Cartesian    0.01
    188 y          4.405902      4.405902     0.000000    Cartesian    0.00
    188 z         13.217707     13.214250    -0.003457    Cartesian   -0.03
    189 x         17.623609     17.641711     0.018102    Cartesian    0.10
    189 y          4.405902      4.405902     0.000000    Cartesian    0.00
    189 z         -0.000000      0.009785     0.009785    Cartesian *******
    190 x         -4.405902     -4.422597    -0.016695    Cartesian    0.38
    190 y          4.405902      4.405902     0.000000    Cartesian    0.00
    190 z          4.405902      4.401968    -0.003934    Cartesian   -0.09
    191 x          8.811805      8.821741     0.009937    Cartesian    0.11
    191 y          4.405902      4.405902     0.000000    Cartesian    0.00
    191 z         -8.811805     -8.801967     0.009838    Cartesian   -0.11
    192 x          4.405902      4.405497    -0.000405    Cartesian   -0.01
    192 y         -4.405902     -4.404878     0.001024    Cartesian   -0.02
    192 z          8.811805      8.812687     0.000882    Cartesian    0.01
    193 x         13.217707     13.222462     0.004755    Cartesian    0.04
    193 y         -4.405902     -4.408507    -0.002605    Cartesian    0.06
    193 z          4.405902      4.409387     0.003485    Cartesian    0.08
    194 x         13.217707     13.212887    -0.004819    Cartesian   -0.04
    194 y         -4.405902     -4.406930    -0.001028    Cartesian    0.02
    194 z         -0.000000      0.000862     0.000862    Cartesian *******
    195 x          8.811805      8.808576    -0.003228    Cartesian   -0.04
    195 y         -4.405902     -4.405722     0.000180    Cartesian   -0.00
    195 z         -4.405902     -4.405893     0.000010    Cartesian   -0.00
    196 x         15.420658     15.424478     0.003820    Cartesian    0.02
    196 y         -2.202951     -2.208533    -0.005582    Cartesian    0.25
    196 z          6.608853      6.617522     0.008668    Cartesian    0.13
    197 x         11.014756     11.006273    -0.008483    Cartesian   -0.08
    197 y         -2.202951     -2.193473     0.009478    Cartesian   -0.43
    197 z         11.014756     11.015020     0.000264    Cartesian    0.00
    198 x         15.420658     15.429162     0.008504    Cartesian    0.06
    198 y         -2.202951     -2.204565    -0.001613    Cartesian    0.07
    198 z         -2.202951     -2.193540     0.009411    Cartesian   -0.43
    199 x         11.014756     11.018959     0.004203    Cartesian    0.04
    199 y         -2.202951     -2.209915    -0.006964    Cartesian    0.32
    199 z         -6.608853     -6.611062    -0.002209    Cartesian    0.03
    200 x          6.608853      6.608853     0.000000    Cartesian    0.00
    200 y         -6.608853     -6.601002     0.007851    Cartesian   -0.12
    200 z          6.608853      6.622475     0.013622    Cartesian    0.21
    201 x         11.014756     11.014726    -0.000029    Cartesian   -0.00
    201 y         -6.608853     -6.609269    -0.000415    Cartesian    0.01
    201 z          2.202951      2.207908     0.004957    Cartesian    0.23
    202 x          6.608853      6.608853     0.000000    Cartesian    0.00
    202 y         -6.608853     -6.617005    -0.008151    Cartesian    0.12
    202 z         -2.202951     -2.193423     0.009528    Cartesian   -0.43
--------------------------------------------------------------------------------


  Time to end of optimisation  =      119.9133 seconds


  Peak dynamic memory used =      91.22 MB 


  Timing analysis for GULP :

--------------------------------------------------------------------------------
  Task / Subroutine                                          Time (Seconds)
--------------------------------------------------------------------------------
  Calculation of reciprocal space energy and derivatives          0.0247
  Calculation of real space energy and derivatives                0.2488
  Calculation for region 1 energy and derivatives (2-b)          80.4824
  Calculation for region 2a energy                               37.2807
  Calculation and manipulation of Hessian matrix                  0.1787
  Calculation of matrix inversion                                 1.3834
  Symmetry generation of equivalent positions                     0.0018
--------------------------------------------------------------------------------
  Total CPU time                                                119.9133
--------------------------------------------------------------------------------


  Dump file written as Na3OCl.grs


  Job Finished at 12:39.05  2nd February   2021                               

