********************************************************************************
*                       GENERAL UTILITY LATTICE PROGRAM                        *
*                                 Julian Gale                                  *
*                       Curtin Institute for Computation                       *
*                    School of Molecular and Life Sciences                     *
*                    Curtin University, Western Australia                      *
********************************************************************************
* Version = 5.2.0 * Last modified =  10th September 2020                       *
********************************************************************************
*  optimise     - perform optimisation run                                     *
*  conp         - constant pressure calculation                                *
*  property     - calculate properties for final geometry                      *
*  defect       - perform defect calculation after bulk run                    *
*  compare      - compare initial and final structures                         *
********************************************************************************

  Job Started  at 18:22.44  1st February   2021                               

  Number of CPUs =     1


  Total number of configurations input =      1

********************************************************************************
*  Input for Configuration =   1                                               *
********************************************************************************

  Formula = O8Cl8Na24                                                   

  Number of irreducible atoms/shells =      56


  Total number atoms/shells =      56

  Dimensionality = 3               :  Bulk   



  Supercell dimensions :  x =   2  y =   2  z =   2

  Cartesian lattice vectors (Angstroms) :

        9.008000    0.000000    0.000000
        0.000000    9.008000    0.000000
        0.000000    0.000000    9.008000

  Cell parameters (Angstroms/Degrees):

  a =       9.0080    alpha =  90.0000
  b =       9.0080    beta  =  90.0000
  c =       9.0080    gamma =  90.0000

  Initial cell volume =         730.945729 Angs**3

  Temperature of configuration =   0.00     K 

  Pressure of configuration =         0.000 GPa 

  Fractional coordinates of asymmetric unit :

--------------------------------------------------------------------------------
   No.  Atomic       x           y          z         Charge      Occupancy
        Label      (Frac)      (Frac)     (Frac)        (e)         (Frac)  
--------------------------------------------------------------------------------
      1 O     c    0.000000    0.000000    0.000000     0.18300    1.000000    
      2 O     c    0.000000 *  0.000000 *  0.500000 *   0.18300    1.000000    
      3 O     c    0.000000 *  0.500000 *  0.000000 *   0.18300    1.000000    
      4 O     c    0.000000 *  0.500000 *  0.500000 *   0.18300    1.000000    
      5 O     c    0.500000 *  0.000000 *  0.000000 *   0.18300    1.000000    
      6 O     c    0.500000 *  0.000000 *  0.500000 *   0.18300    1.000000    
      7 O     c    0.500000 *  0.500000 *  0.000000 *   0.18300    1.000000    
      8 O     c    0.500000 *  0.500000 *  0.500000 *   0.18300    1.000000    
      9 Cl    c    0.250000 *  0.250000 *  0.250000 *   1.48500    1.000000    
     10 Cl    c    0.250000 *  0.250000 *  0.750000 *   1.48500    1.000000    
     11 Cl    c    0.250000 *  0.750000 *  0.250000 *   1.48500    1.000000    
     12 Cl    c    0.250000 *  0.750000 *  0.750000 *   1.48500    1.000000    
     13 Cl    c    0.750000 *  0.250000 *  0.250000 *   1.48500    1.000000    
     14 Cl    c    0.750000 *  0.250000 *  0.750000 *   1.48500    1.000000    
     15 Cl    c    0.750000 *  0.750000 *  0.250000 *   1.48500    1.000000    
     16 Cl    c    0.750000 *  0.750000 *  0.750000 *   1.48500    1.000000    
     17 Na    c    0.250000 *  0.000000 *  0.000000 *   1.00000    1.000000    
     18 Na    c    0.250000 *  0.000000 *  0.500000 *   1.00000    1.000000    
     19 Na    c    0.250000 *  0.500000 *  0.000000 *   1.00000    1.000000    
     20 Na    c    0.250000 *  0.500000 *  0.500000 *   1.00000    1.000000    
     21 Na    c    0.750000 *  0.000000 *  0.000000 *   1.00000    1.000000    
     22 Na    c    0.750000 *  0.000000 *  0.500000 *   1.00000    1.000000    
     23 Na    c    0.750000 *  0.500000 *  0.000000 *   1.00000    1.000000    
     24 Na    c    0.750000 *  0.500000 *  0.500000 *   1.00000    1.000000    
     25 Na    c    0.000000 *  0.250000 *  0.000000 *   1.00000    1.000000    
     26 Na    c    0.000000 *  0.250000 *  0.500000 *   1.00000    1.000000    
     27 Na    c    0.000000 *  0.750000 *  0.000000 *   1.00000    1.000000    
     28 Na    c    0.000000 *  0.750000 *  0.500000 *   1.00000    1.000000    
     29 Na    c    0.500000 *  0.250000 *  0.000000 *   1.00000    1.000000    
     30 Na    c    0.500000 *  0.250000 *  0.500000 *   1.00000    1.000000    
     31 Na    c    0.500000 *  0.750000 *  0.000000 *   1.00000    1.000000    
     32 Na    c    0.500000 *  0.750000 *  0.500000 *   1.00000    1.000000    
     33 Na    c    0.000000 *  0.000000 *  0.250000 *   1.00000    1.000000    
     34 Na    c    0.000000 *  0.000000 *  0.750000 *   1.00000    1.000000    
     35 Na    c    0.000000 *  0.500000 *  0.250000 *   1.00000    1.000000    
     36 Na    c    0.000000 *  0.500000 *  0.750000 *   1.00000    1.000000    
     37 Na    c    0.500000 *  0.000000 *  0.250000 *   1.00000    1.000000    
     38 Na    c    0.500000 *  0.000000 *  0.750000 *   1.00000    1.000000    
     39 Na    c    0.500000 *  0.500000 *  0.250000 *   1.00000    1.000000    
     40 Na    c    0.500000 *  0.500000 *  0.750000 *   1.00000    1.000000    
     41 O     s    0.000000 *  0.000000 *  0.000000 *  -2.18300    1.000000    
     42 O     s    0.000000 *  0.000000 *  0.500000 *  -2.18300    1.000000    
     43 O     s    0.000000 *  0.500000 *  0.000000 *  -2.18300    1.000000    
     44 O     s    0.000000 *  0.500000 *  0.500000 *  -2.18300    1.000000    
     45 O     s    0.500000 *  0.000000 *  0.000000 *  -2.18300    1.000000    
     46 O     s    0.500000 *  0.000000 *  0.500000 *  -2.18300    1.000000    
     47 O     s    0.500000 *  0.500000 *  0.000000 *  -2.18300    1.000000    
     48 O     s    0.500000 *  0.500000 *  0.500000 *  -2.18300    1.000000    
     49 Cl    s    0.250000 *  0.250000 *  0.250000 *  -2.48500    1.000000    
     50 Cl    s    0.250000 *  0.250000 *  0.750000 *  -2.48500    1.000000    
     51 Cl    s    0.250000 *  0.750000 *  0.250000 *  -2.48500    1.000000    
     52 Cl    s    0.250000 *  0.750000 *  0.750000 *  -2.48500    1.000000    
     53 Cl    s    0.750000 *  0.250000 *  0.250000 *  -2.48500    1.000000    
     54 Cl    s    0.750000 *  0.250000 *  0.750000 *  -2.48500    1.000000    
     55 Cl    s    0.750000 *  0.750000 *  0.250000 *  -2.48500    1.000000    
     56 Cl    s    0.750000 *  0.750000 *  0.750000 *  -2.48500    1.000000    
--------------------------------------------------------------------------------



********************************************************************************
*  General input information                                                   *
********************************************************************************

  Species output for all configurations : 

--------------------------------------------------------------------------------
  Species    Type    Atomic    Atomic    Charge       Radii (Angs)     Library
                     Number     Mass       (e)     Cova   Ionic  VDW   Symbol
--------------------------------------------------------------------------------
    Na       Core       11      22.99   1.000000   0.970  0.000  2.300          
    O        Core        8      16.00   0.183000   0.730  0.000  1.360          
    O        Shell       8       0.00  -2.183000   0.730  0.000  1.360          
    Cl       Core       17      35.45   1.485000   0.990  0.000  1.650          
    Cl       Shell      17       0.00  -2.485000   0.990  0.000  1.650          
    Mg       Core       12      24.31   0.415000   1.100  0.000  0.000          
    Mg       Shell      12       0.00   1.585000   1.100  0.000  0.000          
    Ca       Core       20      40.08  -1.135000   0.990  0.000  0.000          
    Ca       Shell      20       0.00   3.135000   0.990  0.000  0.000          
    Sr       Core       38      87.62  -1.251000   1.120  0.000  0.000          
    Sr       Shell      38       0.00   3.251000   1.120  0.000  0.000          
    Ba       Core       56     137.33  -7.203000   1.340  0.000  0.000          
    Ba       Shell      56       0.00   9.203000   1.340  0.000  0.000          
--------------------------------------------------------------------------------


  Lattice summation method               =    Ewald          (3-D)
                                         =    Parry          (2-D)
                                         =    Saunders et al (1-D)
  Accuracy factor for lattice sums       =   12.000


  Analytic derivatives to be used

  Time limit = Infinity

  Maximum range for interatomic potentials =    100000.000000 Angstroms

  General interatomic potentials :

--------------------------------------------------------------------------------
Atom  Types   Potential      Parameter       Value         Units   Cutoffs(Ang)
  1     2                                                            Min /  Max 
--------------------------------------------------------------------------------
O    c O    s Spring (c-s)  Spring k 2       593.71600    eV*Ang^-2 0.000  0.800
                            Spring k 4       0.0000000    eV*Ang^-4 
--------------------------------------------------------------------------------
Cl   c Cl   s Spring (c-s)  Spring k 2       29.380000    eV*Ang^-2 0.000  0.800
                            Spring k 4       0.0000000    eV*Ang^-4 
--------------------------------------------------------------------------------
Mg   c Mg   s Spring (c-s)  Spring k 2       361.60000    eV*Ang^-2 0.000  0.800
                            Spring k 4       0.0000000    eV*Ang^-4 
--------------------------------------------------------------------------------
Ca   c Ca   s Spring (c-s)  Spring k 2       110.20000    eV*Ang^-2 0.000  0.800
                            Spring k 4       0.0000000    eV*Ang^-4 
--------------------------------------------------------------------------------
Sr   c Sr   s Spring (c-s)  Spring k 2       71.700000    eV*Ang^-2 0.000  0.800
                            Spring k 4       0.0000000    eV*Ang^-4 
--------------------------------------------------------------------------------
Ba   c Ba   s Spring (c-s)  Spring k 2       495.20000    eV*Ang^-2 0.000  0.800
                            Spring k 4       0.0000000    eV*Ang^-4 
--------------------------------------------------------------------------------
Na   c Na   c Buckingham    Buckingham A     1788.1900    eV        0.000 12.000
                            Buckingham rho  0.15900000    Ang       
                            Buckingham C     0.0000000    eV*Ang^6  
--------------------------------------------------------------------------------
Na   c O    s Buckingham    Buckingham A     588.38000    eV        0.000 12.000
                            Buckingham rho  0.33800000    Ang       
                            Buckingham C     0.0000000    eV*Ang^6  
--------------------------------------------------------------------------------
Na   c Cl   s Buckingham    Buckingham A     1170.4100    eV        0.000 12.000
                            Buckingham rho  0.31500000    Ang       
                            Buckingham C     0.0000000    eV*Ang^6  
--------------------------------------------------------------------------------
O    s O    s Buckingham    Buckingham A     22764.300    eV        0.000 12.000
                            Buckingham rho  0.14900000    Ang       
                            Buckingham C     13.190000    eV*Ang^6  
--------------------------------------------------------------------------------
O    s Cl   s Buckingham    Buckingham A     8286.9100    eV        0.000 12.000
                            Buckingham rho  0.25900000    Ang       
                            Buckingham C     62.200000    eV*Ang^6  
--------------------------------------------------------------------------------
Cl   s Cl   s Buckingham    Buckingham A     1227.2000    eV        0.000 12.000
                            Buckingham rho  0.32100000    Ang       
                            Buckingham C     14.530000    eV*Ang^6  
--------------------------------------------------------------------------------
O    s Mg   s Buckingham    Buckingham A     1428.5000    eV        0.000 12.000
                            Buckingham rho  0.29450000    Ang       
                            Buckingham C     0.0000000    eV*Ang^6  
--------------------------------------------------------------------------------
Mg   s Cl   s Buckingham    Buckingham A     4914.5400    eV        0.000 12.000
                            Buckingham rho  0.25700000    Ang       
                            Buckingham C     0.0000000    eV*Ang^6  
--------------------------------------------------------------------------------
O    s Ca   s Buckingham    Buckingham A     1090.4000    eV        0.000 12.000
                            Buckingham rho  0.34370000    Ang       
                            Buckingham C     0.0000000    eV*Ang^6  
--------------------------------------------------------------------------------
Cl   s Ca   s Buckingham    Buckingham A     2302.0000    eV        0.000 12.000
                            Buckingham rho  0.34020000    Ang       
                            Buckingham C     0.0000000    eV*Ang^6  
--------------------------------------------------------------------------------
O    s Sr   s Buckingham    Buckingham A     959.10000    eV        0.000 12.000
                            Buckingham rho  0.37210000    Ang       
                            Buckingham C     0.0000000    eV*Ang^6  
--------------------------------------------------------------------------------
Cl   s Sr   s Buckingham    Buckingham A     2191.0900    eV        0.000 12.000
                            Buckingham rho  0.34570000    Ang       
                            Buckingham C     0.0000000    eV*Ang^6  
--------------------------------------------------------------------------------
O    s Ba   s Buckingham    Buckingham A     905.70000    eV        0.000 12.000
                            Buckingham rho  0.39760000    Ang       
                            Buckingham C     0.0000000    eV*Ang^6  
--------------------------------------------------------------------------------
Cl   s Ba   s Buckingham    Buckingham A     2704.5500    eV        0.000 12.000
                            Buckingham rho  0.35280000    Ang       
                            Buckingham C     0.0000000    eV*Ang^6  
--------------------------------------------------------------------------------

********************************************************************************
*  Output for configuration   1                                                *
********************************************************************************


  Components of energy : 

--------------------------------------------------------------------------------
  Interatomic potentials     =          39.54523045 eV    
  Monopole - monopole (real) =        -173.49412932 eV    
  Monopole - monopole (recip)=        -143.08233464 eV    
  Monopole - monopole (total)=        -316.57646396 eV    
--------------------------------------------------------------------------------
  Total lattice energy       =        -277.03123351 eV    
--------------------------------------------------------------------------------
  Total lattice energy       =          -26729.2792 kJ/(mole unit cells)
--------------------------------------------------------------------------------


  Number of variables =      171

  Maximum number of calculations  =          1000
  Maximum Hessian update interval =            10
  Maximum step size               =   1.000000000
  Maximum parameter tolerance     =   0.000010000
  Maximum function  tolerance     =   0.000010000
  Maximum gradient  tolerance     =   0.001000000
  Maximum gradient  component     =   0.010000000

  Cell parameters to be optimised using strains

  Newton-Raphson optimiser to be used

  BFGS hessian update to be used

  Lower half triangular hessian to be used

  Start of bulk optimisation :

  Cycle:      0 Energy:      -277.031234  Gnorm:      0.116908  CPU:    0.032
  ** Hessian calculated **
  Cycle:      1 Energy:      -277.421334  Gnorm:      0.001189  CPU:    0.063
  Cycle:      2 Energy:      -277.421371  Gnorm:      0.000099  CPU:    0.088


  **** Optimisation achieved ****


  Final energy =    -277.42137089 eV
  Final Gnorm  =       0.00000000

  Components of energy : 

--------------------------------------------------------------------------------
  Interatomic potentials     =          46.20368827 eV    
  Monopole - monopole (real) =        -177.35698719 eV    
  Monopole - monopole (recip)=        -146.26807197 eV    
  Monopole - monopole (total)=        -323.62505916 eV    
--------------------------------------------------------------------------------
  Total lattice energy       =        -277.42137089 eV    
--------------------------------------------------------------------------------
  Total lattice energy       =          -26766.9215 kJ/(mole unit cells)
--------------------------------------------------------------------------------

  Final fractional coordinates of atoms :

--------------------------------------------------------------------------------
   No.  Atomic        x           y          z          Radius
        Label       (Frac)      (Frac)     (Frac)       (Angs) 
--------------------------------------------------------------------------------
     1  O     c     0.000000    0.000000    0.000000    0.000000
     2  O     c     0.000000    0.000000    0.500000    0.000000
     3  O     c     1.000000    0.500000    1.000000    0.000000
     4  O     c     0.000000    0.500000    0.500000    0.000000
     5  O     c     0.500000    0.000000    1.000000    0.000000
     6  O     c     0.500000    0.000000    0.500000    0.000000
     7  O     c     0.500000    0.500000    1.000000    0.000000
     8  O     c     0.500000    0.500000    0.500000    0.000000
     9  Cl    c     0.250000    0.250000    0.250000    0.000000
    10  Cl    c     0.250000    0.250000    0.750000    0.000000
    11  Cl    c     0.250000    0.750000    0.250000    0.000000
    12  Cl    c     0.250000    0.750000    0.750000    0.000000
    13  Cl    c     0.750000    0.250000    0.250000    0.000000
    14  Cl    c     0.750000    0.250000    0.750000    0.000000
    15  Cl    c     0.750000    0.750000    0.250000    0.000000
    16  Cl    c     0.750000    0.750000    0.750000    0.000000
    17  Na    c     0.250000    0.000000    1.000000    0.000000
    18  Na    c     0.250000    0.000000    0.500000    0.000000
    19  Na    c     0.250000    0.500000    1.000000    0.000000
    20  Na    c     0.250000    0.500000    0.500000    0.000000
    21  Na    c     0.750000    1.000000    0.000000    0.000000
    22  Na    c     0.750000    1.000000    0.500000    0.000000
    23  Na    c     0.750000    0.500000    0.000000    0.000000
    24  Na    c     0.750000    0.500000    0.500000    0.000000
    25  Na    c     1.000000    0.250000    0.000000    0.000000
    26  Na    c     1.000000    0.250000    0.500000    0.000000
    27  Na    c     0.000000    0.750000    1.000000    0.000000
    28  Na    c     0.000000    0.750000    0.500000    0.000000
    29  Na    c     0.500000    0.250000    1.000000    0.000000
    30  Na    c     0.500000    0.250000    0.500000    0.000000
    31  Na    c     0.500000    0.750000    0.000000    0.000000
    32  Na    c     0.500000    0.750000    0.500000    0.000000
    33  Na    c     0.000000    1.000000    0.250000    0.000000
    34  Na    c     1.000000    0.000000    0.750000    0.000000
    35  Na    c     0.000000    0.500000    0.250000    0.000000
    36  Na    c     1.000000    0.500000    0.750000    0.000000
    37  Na    c     0.500000    0.000000    0.250000    0.000000
    38  Na    c     0.500000    1.000000    0.750000    0.000000
    39  Na    c     0.500000    0.500000    0.250000    0.000000
    40  Na    c     0.500000    0.500000    0.750000    0.000000
    41  O     s     0.000000    0.000000    0.000000    0.000000
    42  O     s     0.000000    0.000000    0.500000    0.000000
    43  O     s     1.000000    0.500000    1.000000    0.000000
    44  O     s     0.000000    0.500000    0.500000    0.000000
    45  O     s     0.500000    0.000000    1.000000    0.000000
    46  O     s     0.500000    0.000000    0.500000    0.000000
    47  O     s     0.500000    0.500000    1.000000    0.000000
    48  O     s     0.500000    0.500000    0.500000    0.000000
    49  Cl    s     0.250000    0.250000    0.250000    0.000000
    50  Cl    s     0.250000    0.250000    0.750000    0.000000
    51  Cl    s     0.250000    0.750000    0.250000    0.000000
    52  Cl    s     0.250000    0.750000    0.750000    0.000000
    53  Cl    s     0.750000    0.250000    0.250000    0.000000
    54  Cl    s     0.750000    0.250000    0.750000    0.000000
    55  Cl    s     0.750000    0.750000    0.250000    0.000000
    56  Cl    s     0.750000    0.750000    0.750000    0.000000
--------------------------------------------------------------------------------

  Final Cartesian lattice vectors (Angstroms) :

        8.811805   -0.000000    0.000000
       -0.000000    8.811805   -0.000000
        0.000000   -0.000000    8.811805


  Final cell parameters and derivatives :

--------------------------------------------------------------------------------
       a            8.811805 Angstrom     dE/de1(xx)     0.000000 eV/strain
       b            8.811805 Angstrom     dE/de2(yy)     0.000000 eV/strain
       c            8.811805 Angstrom     dE/de3(zz)     0.000000 eV/strain
       alpha       90.000000 Degrees      dE/de4(yz)    -0.000000 eV/strain
       beta        90.000000 Degrees      dE/de5(xz)     0.000000 eV/strain
       gamma       90.000000 Degrees      dE/de6(xy)    -0.000000 eV/strain
--------------------------------------------------------------------------------

  Primitive cell volume =           684.218127 Angs**3

  Density of cell =      2.338030 g/cm**3

  Non-primitive cell volume =           684.218127 Angs**3


  Final internal derivatives :

--------------------------------------------------------------------------------
   No.  Atomic          a             b             c           Radius
        Label          (eV)          (eV)          (eV)        (eV/Angs)
--------------------------------------------------------------------------------
      1 O     c       0.000000      0.000000      0.000000      0.000000
      2 O     c       0.000000     -0.000000     -0.000000      0.000000
      3 O     c      -0.000000      0.000000      0.000000      0.000000
      4 O     c       0.000000      0.000000      0.000000      0.000000
      5 O     c       0.000000     -0.000000     -0.000000      0.000000
      6 O     c      -0.000000     -0.000000     -0.000000      0.000000
      7 O     c       0.000000      0.000000     -0.000000      0.000000
      8 O     c      -0.000000      0.000000     -0.000000      0.000000
      9 Cl    c      -0.000000     -0.000000     -0.000000      0.000000
     10 Cl    c      -0.000000     -0.000000      0.000000      0.000000
     11 Cl    c      -0.000000      0.000000      0.000000      0.000000
     12 Cl    c      -0.000000      0.000000     -0.000000      0.000000
     13 Cl    c       0.000000      0.000000      0.000000      0.000000
     14 Cl    c       0.000000     -0.000000     -0.000000      0.000000
     15 Cl    c      -0.000000      0.000000     -0.000000      0.000000
     16 Cl    c      -0.000000      0.000000      0.000000      0.000000
     17 Na    c       0.000000     -0.000000      0.000000      0.000000
     18 Na    c      -0.000000     -0.000000     -0.000000      0.000000
     19 Na    c      -0.000000      0.000000      0.000000      0.000000
     20 Na    c      -0.000000      0.000000     -0.000000      0.000000
     21 Na    c      -0.000000      0.000000     -0.000000      0.000000
     22 Na    c      -0.000000      0.000000     -0.000000      0.000000
     23 Na    c      -0.000000     -0.000000      0.000000      0.000000
     24 Na    c       0.000000     -0.000000     -0.000000      0.000000
     25 Na    c       0.000000     -0.000000     -0.000000      0.000000
     26 Na    c       0.000000     -0.000000     -0.000000      0.000000
     27 Na    c      -0.000000     -0.000000      0.000000      0.000000
     28 Na    c      -0.000000      0.000000     -0.000000      0.000000
     29 Na    c      -0.000000     -0.000000     -0.000000      0.000000
     30 Na    c      -0.000000     -0.000000      0.000000      0.000000
     31 Na    c       0.000000      0.000000     -0.000000      0.000000
     32 Na    c       0.000000      0.000000     -0.000000      0.000000
     33 Na    c      -0.000000     -0.000000      0.000000      0.000000
     34 Na    c      -0.000000      0.000000     -0.000000      0.000000
     35 Na    c       0.000000      0.000000     -0.000000      0.000000
     36 Na    c       0.000000     -0.000000     -0.000000      0.000000
     37 Na    c      -0.000000     -0.000000      0.000000      0.000000
     38 Na    c       0.000000      0.000000     -0.000000      0.000000
     39 Na    c      -0.000000      0.000000      0.000000      0.000000
     40 Na    c      -0.000000     -0.000000     -0.000000      0.000000
     41 O     s      -0.000000      0.000000     -0.000000      0.000000
     42 O     s      -0.000000      0.000000      0.000000      0.000000
     43 O     s       0.000000     -0.000000     -0.000000      0.000000
     44 O     s      -0.000000      0.000000      0.000000      0.000000
     45 O     s       0.000000      0.000000     -0.000000      0.000000
     46 O     s       0.000000     -0.000000      0.000000      0.000000
     47 O     s       0.000000      0.000000     -0.000000      0.000000
     48 O     s       0.000000      0.000000     -0.000000      0.000000
     49 Cl    s       0.000000      0.000000     -0.000000      0.000000
     50 Cl    s      -0.000000     -0.000000     -0.000000      0.000000
     51 Cl    s       0.000000     -0.000000     -0.000000      0.000000
     52 Cl    s       0.000000     -0.000000      0.000000      0.000000
     53 Cl    s      -0.000000      0.000000     -0.000000      0.000000
     54 Cl    s      -0.000000      0.000000      0.000000      0.000000
     55 Cl    s      -0.000000     -0.000000      0.000000      0.000000
     56 Cl    s      -0.000000     -0.000000     -0.000000      0.000000
--------------------------------------------------------------------------------
  Maximum abs         0.000000      0.000000      0.000000      0.000000
--------------------------------------------------------------------------------

  Comparison of initial and final structures : 

--------------------------------------------------------------------------------
  Parameter   Initial value   Final value   Difference    Units      Percent
--------------------------------------------------------------------------------
    Volume       730.945729    684.218127   -46.727602    Angs**3     -6.39
    a              9.008000      8.811805    -0.196195    Angstroms   -2.18
    b              9.008000      8.811805    -0.196195    Angstroms   -2.18
    c              9.008000      8.811805    -0.196195    Angstroms   -2.18
    alpha         90.000000     90.000000     0.000000    Degrees      0.00
    beta          90.000000     90.000000     0.000000    Degrees      0.00
    gamma         90.000000     90.000000     0.000000    Degrees      0.00
      1 x          0.000000      0.000000     0.000000    Fractional   0.00
      1 y          0.000000      0.000000     0.000000    Fractional   0.00
      1 z          0.000000      0.000000     0.000000    Fractional   0.00
      2 x          0.000000      0.000000     0.000000    Fractional   0.00
      2 y          0.000000      0.000000     0.000000    Fractional   0.00
      2 z          0.500000      0.500000     0.000000    Fractional   0.00
      3 x          0.000000      1.000000     1.000000    Fractional   0.00
      3 y          0.500000      0.500000     0.000000    Fractional   0.00
      3 z          0.000000      1.000000     1.000000    Fractional   0.00
      4 x          0.000000      0.000000     0.000000    Fractional   0.00
      4 y          0.500000      0.500000     0.000000    Fractional   0.00
      4 z          0.500000      0.500000     0.000000    Fractional   0.00
      5 x          0.500000      0.500000     0.000000    Fractional   0.00
      5 y          0.000000      0.000000     0.000000    Fractional   0.00
      5 z          0.000000      1.000000     1.000000    Fractional   0.00
      6 x          0.500000      0.500000     0.000000    Fractional   0.00
      6 y          0.000000      0.000000     0.000000    Fractional   0.00
      6 z          0.500000      0.500000     0.000000    Fractional   0.00
      7 x          0.500000      0.500000     0.000000    Fractional   0.00
      7 y          0.500000      0.500000     0.000000    Fractional   0.00
      7 z          0.000000      1.000000     1.000000    Fractional   0.00
      8 x          0.500000      0.500000     0.000000    Fractional   0.00
      8 y          0.500000      0.500000     0.000000    Fractional   0.00
      8 z          0.500000      0.500000     0.000000    Fractional   0.00
      9 x          0.250000      0.250000     0.000000    Fractional   0.00
      9 y          0.250000      0.250000     0.000000    Fractional   0.00
      9 z          0.250000      0.250000     0.000000    Fractional   0.00
     10 x          0.250000      0.250000     0.000000    Fractional   0.00
     10 y          0.250000      0.250000     0.000000    Fractional   0.00
     10 z          0.750000      0.750000     0.000000    Fractional   0.00
     11 x          0.250000      0.250000     0.000000    Fractional   0.00
     11 y          0.750000      0.750000     0.000000    Fractional   0.00
     11 z          0.250000      0.250000     0.000000    Fractional   0.00
     12 x          0.250000      0.250000     0.000000    Fractional   0.00
     12 y          0.750000      0.750000     0.000000    Fractional   0.00
     12 z          0.750000      0.750000     0.000000    Fractional   0.00
     13 x          0.750000      0.750000     0.000000    Fractional   0.00
     13 y          0.250000      0.250000     0.000000    Fractional   0.00
     13 z          0.250000      0.250000     0.000000    Fractional   0.00
     14 x          0.750000      0.750000     0.000000    Fractional   0.00
     14 y          0.250000      0.250000     0.000000    Fractional   0.00
     14 z          0.750000      0.750000     0.000000    Fractional   0.00
     15 x          0.750000      0.750000     0.000000    Fractional   0.00
     15 y          0.750000      0.750000     0.000000    Fractional   0.00
     15 z          0.250000      0.250000     0.000000    Fractional   0.00
     16 x          0.750000      0.750000     0.000000    Fractional   0.00
     16 y          0.750000      0.750000     0.000000    Fractional   0.00
     16 z          0.750000      0.750000     0.000000    Fractional   0.00
     17 x          0.250000      0.250000     0.000000    Fractional   0.00
     17 y          0.000000      0.000000     0.000000    Fractional   0.00
     17 z          0.000000      1.000000     1.000000    Fractional   0.00
     18 x          0.250000      0.250000     0.000000    Fractional   0.00
     18 y          0.000000      0.000000     0.000000    Fractional   0.00
     18 z          0.500000      0.500000     0.000000    Fractional   0.00
     19 x          0.250000      0.250000     0.000000    Fractional   0.00
     19 y          0.500000      0.500000     0.000000    Fractional   0.00
     19 z          0.000000      1.000000     1.000000    Fractional   0.00
     20 x          0.250000      0.250000     0.000000    Fractional   0.00
     20 y          0.500000      0.500000     0.000000    Fractional   0.00
     20 z          0.500000      0.500000     0.000000    Fractional   0.00
     21 x          0.750000      0.750000     0.000000    Fractional   0.00
     21 y          0.000000      1.000000     1.000000    Fractional   0.00
     21 z          0.000000      0.000000     0.000000    Fractional   0.00
     22 x          0.750000      0.750000     0.000000    Fractional   0.00
     22 y          0.000000      1.000000     1.000000    Fractional   0.00
     22 z          0.500000      0.500000     0.000000    Fractional   0.00
     23 x          0.750000      0.750000     0.000000    Fractional   0.00
     23 y          0.500000      0.500000     0.000000    Fractional   0.00
     23 z          0.000000      0.000000     0.000000    Fractional   0.00
     24 x          0.750000      0.750000     0.000000    Fractional   0.00
     24 y          0.500000      0.500000     0.000000    Fractional   0.00
     24 z          0.500000      0.500000     0.000000    Fractional   0.00
     25 x          0.000000      1.000000     1.000000    Fractional   0.00
     25 y          0.250000      0.250000     0.000000    Fractional   0.00
     25 z          0.000000      0.000000     0.000000    Fractional   0.00
     26 x          0.000000      1.000000     1.000000    Fractional   0.00
     26 y          0.250000      0.250000     0.000000    Fractional   0.00
     26 z          0.500000      0.500000     0.000000    Fractional   0.00
     27 x          0.000000      0.000000     0.000000    Fractional   0.00
     27 y          0.750000      0.750000     0.000000    Fractional   0.00
     27 z          0.000000      1.000000     1.000000    Fractional   0.00
     28 x          0.000000      0.000000     0.000000    Fractional   0.00
     28 y          0.750000      0.750000     0.000000    Fractional   0.00
     28 z          0.500000      0.500000     0.000000    Fractional   0.00
     29 x          0.500000      0.500000     0.000000    Fractional   0.00
     29 y          0.250000      0.250000     0.000000    Fractional   0.00
     29 z          0.000000      1.000000     1.000000    Fractional   0.00
     30 x          0.500000      0.500000     0.000000    Fractional   0.00
     30 y          0.250000      0.250000     0.000000    Fractional   0.00
     30 z          0.500000      0.500000     0.000000    Fractional   0.00
     31 x          0.500000      0.500000     0.000000    Fractional   0.00
     31 y          0.750000      0.750000     0.000000    Fractional   0.00
     31 z          0.000000      0.000000     0.000000    Fractional   0.00
     32 x          0.500000      0.500000     0.000000    Fractional   0.00
     32 y          0.750000      0.750000     0.000000    Fractional   0.00
     32 z          0.500000      0.500000     0.000000    Fractional   0.00
     33 x          0.000000      0.000000     0.000000    Fractional   0.00
     33 y          0.000000      1.000000     1.000000    Fractional   0.00
     33 z          0.250000      0.250000     0.000000    Fractional   0.00
     34 x          0.000000      1.000000     1.000000    Fractional   0.00
     34 y          0.000000      0.000000     0.000000    Fractional   0.00
     34 z          0.750000      0.750000     0.000000    Fractional   0.00
     35 x          0.000000      0.000000     0.000000    Fractional   0.00
     35 y          0.500000      0.500000     0.000000    Fractional   0.00
     35 z          0.250000      0.250000     0.000000    Fractional   0.00
     36 x          0.000000      1.000000     1.000000    Fractional   0.00
     36 y          0.500000      0.500000     0.000000    Fractional   0.00
     36 z          0.750000      0.750000     0.000000    Fractional   0.00
     37 x          0.500000      0.500000     0.000000    Fractional   0.00
     37 y          0.000000      0.000000     0.000000    Fractional   0.00
     37 z          0.250000      0.250000     0.000000    Fractional   0.00
     38 x          0.500000      0.500000     0.000000    Fractional   0.00
     38 y          0.000000      1.000000     1.000000    Fractional   0.00
     38 z          0.750000      0.750000     0.000000    Fractional   0.00
     39 x          0.500000      0.500000     0.000000    Fractional   0.00
     39 y          0.500000      0.500000     0.000000    Fractional   0.00
     39 z          0.250000      0.250000     0.000000    Fractional   0.00
     40 x          0.500000      0.500000     0.000000    Fractional   0.00
     40 y          0.500000      0.500000     0.000000    Fractional   0.00
     40 z          0.750000      0.750000     0.000000    Fractional   0.00
     41 x          0.000000      0.000000     0.000000    Fractional   0.00
     41 y          0.000000      0.000000     0.000000    Fractional   0.00
     41 z          0.000000      0.000000     0.000000    Fractional   0.00
     42 x          0.000000      0.000000     0.000000    Fractional   0.00
     42 y          0.000000      0.000000     0.000000    Fractional   0.00
     42 z          0.500000      0.500000     0.000000    Fractional   0.00
     43 x          0.000000      1.000000     1.000000    Fractional   0.00
     43 y          0.500000      0.500000     0.000000    Fractional   0.00
     43 z          0.000000      1.000000     1.000000    Fractional   0.00
     44 x          0.000000      0.000000     0.000000    Fractional   0.00
     44 y          0.500000      0.500000     0.000000    Fractional   0.00
     44 z          0.500000      0.500000     0.000000    Fractional   0.00
     45 x          0.500000      0.500000     0.000000    Fractional   0.00
     45 y          0.000000      0.000000     0.000000    Fractional   0.00
     45 z          0.000000      1.000000     1.000000    Fractional   0.00
     46 x          0.500000      0.500000     0.000000    Fractional   0.00
     46 y          0.000000      0.000000     0.000000    Fractional   0.00
     46 z          0.500000      0.500000     0.000000    Fractional   0.00
     47 x          0.500000      0.500000     0.000000    Fractional   0.00
     47 y          0.500000      0.500000     0.000000    Fractional   0.00
     47 z          0.000000      1.000000     1.000000    Fractional   0.00
     48 x          0.500000      0.500000     0.000000    Fractional   0.00
     48 y          0.500000      0.500000     0.000000    Fractional   0.00
     48 z          0.500000      0.500000     0.000000    Fractional   0.00
     49 x          0.250000      0.250000     0.000000    Fractional   0.00
     49 y          0.250000      0.250000     0.000000    Fractional   0.00
     49 z          0.250000      0.250000     0.000000    Fractional   0.00
     50 x          0.250000      0.250000     0.000000    Fractional   0.00
     50 y          0.250000      0.250000     0.000000    Fractional   0.00
     50 z          0.750000      0.750000     0.000000    Fractional   0.00
     51 x          0.250000      0.250000     0.000000    Fractional   0.00
     51 y          0.750000      0.750000     0.000000    Fractional   0.00
     51 z          0.250000      0.250000     0.000000    Fractional   0.00
     52 x          0.250000      0.250000     0.000000    Fractional   0.00
     52 y          0.750000      0.750000     0.000000    Fractional   0.00
     52 z          0.750000      0.750000     0.000000    Fractional   0.00
     53 x          0.750000      0.750000     0.000000    Fractional   0.00
     53 y          0.250000      0.250000     0.000000    Fractional   0.00
     53 z          0.250000      0.250000     0.000000    Fractional   0.00
     54 x          0.750000      0.750000     0.000000    Fractional   0.00
     54 y          0.250000      0.250000     0.000000    Fractional   0.00
     54 z          0.750000      0.750000     0.000000    Fractional   0.00
     55 x          0.750000      0.750000     0.000000    Fractional   0.00
     55 y          0.750000      0.750000     0.000000    Fractional   0.00
     55 z          0.250000      0.250000     0.000000    Fractional   0.00
     56 x          0.750000      0.750000     0.000000    Fractional   0.00
     56 y          0.750000      0.750000     0.000000    Fractional   0.00
     56 z          0.750000      0.750000     0.000000    Fractional   0.00
--------------------------------------------------------------------------------


  Born effective charge tensors : 

-------------------------------------------------------------------------------
  Atom             x           y             z
-------------------------------------------------------------------------------
    1 O     x      -2.2939      0.0000     -0.0000
            y      -0.0000     -2.2939     -0.0000
            z      -0.0000     -0.0000     -2.2939
-------------------------------------------------------------------------------
    2 O     x      -2.2939      0.0000      0.0000
            y      -0.0000     -2.2939      0.0000
            z       0.0000      0.0000     -2.2939
-------------------------------------------------------------------------------
    3 O     x      -2.2939     -0.0000      0.0000
            y       0.0000     -2.2939      0.0000
            z       0.0000      0.0000     -2.2939
-------------------------------------------------------------------------------
    4 O     x      -2.2939     -0.0000      0.0000
            y       0.0000     -2.2939     -0.0000
            z       0.0000     -0.0000     -2.2939
-------------------------------------------------------------------------------
    5 O     x      -2.2939     -0.0000      0.0000
            y       0.0000     -2.2939     -0.0000
            z       0.0000     -0.0000     -2.2939
-------------------------------------------------------------------------------
    6 O     x      -2.2939     -0.0000      0.0000
            y       0.0000     -2.2939     -0.0000
            z       0.0000      0.0000     -2.2939
-------------------------------------------------------------------------------
    7 O     x      -2.2939      0.0000      0.0000
            y      -0.0000     -2.2939      0.0000
            z       0.0000     -0.0000     -2.2939
-------------------------------------------------------------------------------
    8 O     x      -2.2939      0.0000      0.0000
            y      -0.0000     -2.2939     -0.0000
            z       0.0000     -0.0000     -2.2939
-------------------------------------------------------------------------------
    9 Cl    x      -0.9918      0.0000     -0.0000
            y       0.0000     -0.9918     -0.0000
            z      -0.0000     -0.0000     -0.9918
-------------------------------------------------------------------------------
   10 Cl    x      -0.9918      0.0000      0.0000
            y       0.0000     -0.9918      0.0000
            z       0.0000      0.0000     -0.9918
-------------------------------------------------------------------------------
   11 Cl    x      -0.9918     -0.0000     -0.0000
            y      -0.0000     -0.9918     -0.0000
            z      -0.0000     -0.0000     -0.9918
-------------------------------------------------------------------------------
   12 Cl    x      -0.9918      0.0000      0.0000
            y       0.0000     -0.9918     -0.0000
            z       0.0000     -0.0000     -0.9918
-------------------------------------------------------------------------------
   13 Cl    x      -0.9918      0.0000     -0.0000
            y      -0.0000     -0.9918      0.0000
            z       0.0000      0.0000     -0.9918
-------------------------------------------------------------------------------
   14 Cl    x      -0.9918      0.0000     -0.0000
            y       0.0000     -0.9918      0.0000
            z      -0.0000      0.0000     -0.9918
-------------------------------------------------------------------------------
   15 Cl    x      -0.9918      0.0000     -0.0000
            y       0.0000     -0.9918     -0.0000
            z      -0.0000     -0.0000     -0.9918
-------------------------------------------------------------------------------
   16 Cl    x      -0.9918      0.0000      0.0000
            y       0.0000     -0.9918      0.0000
            z       0.0000      0.0000     -0.9918
-------------------------------------------------------------------------------
   17 Na    x       0.8372     -0.0000      0.0000
            y      -0.0000      1.2243      0.0000
            z       0.0000      0.0000      1.2243
-------------------------------------------------------------------------------
   18 Na    x       0.8372     -0.0000      0.0000
            y      -0.0000      1.2243     -0.0000
            z      -0.0000      0.0000      1.2243
-------------------------------------------------------------------------------
   19 Na    x       0.8372     -0.0000      0.0000
            y      -0.0000      1.2243     -0.0000
            z       0.0000     -0.0000      1.2243
-------------------------------------------------------------------------------
   20 Na    x       0.8372     -0.0000      0.0000
            y      -0.0000      1.2243      0.0000
            z       0.0000      0.0000      1.2243
-------------------------------------------------------------------------------
   21 Na    x       0.8372     -0.0000      0.0000
            y       0.0000      1.2243     -0.0000
            z       0.0000      0.0000      1.2243
-------------------------------------------------------------------------------
   22 Na    x       0.8372      0.0000      0.0000
            y       0.0000      1.2243      0.0000
            z       0.0000      0.0000      1.2243
-------------------------------------------------------------------------------
   23 Na    x       0.8372     -0.0000     -0.0000
            y      -0.0000      1.2243      0.0000
            z      -0.0000     -0.0000      1.2243
-------------------------------------------------------------------------------
   24 Na    x       0.8372     -0.0000      0.0000
            y      -0.0000      1.2243      0.0000
            z       0.0000      0.0000      1.2243
-------------------------------------------------------------------------------
   25 Na    x       1.2243     -0.0000     -0.0000
            y      -0.0000      0.8372     -0.0000
            z      -0.0000     -0.0000      1.2243
-------------------------------------------------------------------------------
   26 Na    x       1.2243     -0.0000     -0.0000
            y      -0.0000      0.8372     -0.0000
            z      -0.0000     -0.0000      1.2243
-------------------------------------------------------------------------------
   27 Na    x       1.2243      0.0000     -0.0000
            y       0.0000      0.8372      0.0000
            z      -0.0000      0.0000      1.2243
-------------------------------------------------------------------------------
   28 Na    x       1.2243      0.0000     -0.0000
            y       0.0000      0.8372     -0.0000
            z      -0.0000     -0.0000      1.2243
-------------------------------------------------------------------------------
   29 Na    x       1.2243      0.0000     -0.0000
            y      -0.0000      0.8372     -0.0000
            z      -0.0000     -0.0000      1.2243
-------------------------------------------------------------------------------
   30 Na    x       1.2243     -0.0000     -0.0000
            y      -0.0000      0.8372     -0.0000
            z      -0.0000     -0.0000      1.2243
-------------------------------------------------------------------------------
   31 Na    x       1.2243     -0.0000     -0.0000
            y      -0.0000      0.8372      0.0000
            z      -0.0000      0.0000      1.2243
-------------------------------------------------------------------------------
   32 Na    x       1.2243     -0.0000     -0.0000
            y      -0.0000      0.8372     -0.0000
            z      -0.0000     -0.0000      1.2243
-------------------------------------------------------------------------------
   33 Na    x       1.2243     -0.0000      0.0000
            y       0.0000      1.2243     -0.0000
            z       0.0000      0.0000      0.8372
-------------------------------------------------------------------------------
   34 Na    x       1.2243     -0.0000     -0.0000
            y       0.0000      1.2243     -0.0000
            z      -0.0000     -0.0000      0.8372
-------------------------------------------------------------------------------
   35 Na    x       1.2243      0.0000      0.0000
            y      -0.0000      1.2243     -0.0000
            z       0.0000      0.0000      0.8372
-------------------------------------------------------------------------------
   36 Na    x       1.2243      0.0000      0.0000
            y      -0.0000      1.2243      0.0000
            z       0.0000      0.0000      0.8372
-------------------------------------------------------------------------------
   37 Na    x       1.2243      0.0000      0.0000
            y      -0.0000      1.2243     -0.0000
            z       0.0000     -0.0000      0.8372
-------------------------------------------------------------------------------
   38 Na    x       1.2243      0.0000      0.0000
            y      -0.0000      1.2243     -0.0000
            z       0.0000     -0.0000      0.8372
-------------------------------------------------------------------------------
   39 Na    x       1.2243     -0.0000      0.0000
            y       0.0000      1.2243     -0.0000
            z       0.0000     -0.0000      0.8372
-------------------------------------------------------------------------------
   40 Na    x       1.2243     -0.0000      0.0000
            y       0.0000      1.2243      0.0000
            z       0.0000      0.0000      0.8372
-------------------------------------------------------------------------------




  Elastic Constant Matrix: (Units=GPa)

-------------------------------------------------------------------------------
  Indices      1         2         3         4         5         6    
-------------------------------------------------------------------------------
       1     82.7680   24.3534   24.3534   -0.0000    0.0000   -0.0000
       2     24.3534   82.7680   24.3534   -0.0000   -0.0000    0.0000
       3     24.3534   24.3534   82.7680   -0.0000    0.0000    0.0000
       4     -0.0000   -0.0000   -0.0000   24.3534    0.0000   -0.0000
       5      0.0000   -0.0000    0.0000    0.0000   24.3534   -0.0000
       6     -0.0000    0.0000    0.0000   -0.0000   -0.0000   24.3534
-------------------------------------------------------------------------------


  Elastic Compliance Matrix: (Units=1/GPa)

-------------------------------------------------------------------------------
  Indices      1         2         3         4         5         6    
-------------------------------------------------------------------------------
       1    0.013948 -0.003171 -0.003171 -0.000000 -0.000000  0.000000
       2   -0.003171  0.013948 -0.003171  0.000000  0.000000 -0.000000
       3   -0.003171 -0.003171  0.013948  0.000000 -0.000000 -0.000000
       4   -0.000000  0.000000  0.000000  0.041062 -0.000000  0.000000
       5   -0.000000  0.000000 -0.000000 -0.000000  0.041062  0.000000
       6    0.000000 -0.000000 -0.000000  0.000000  0.000000  0.041062
-------------------------------------------------------------------------------

  Mechanical properties :

-------------------------------------------------------------------------------
  Convention :                    Reuss         Voigt         Hill
-------------------------------------------------------------------------------
  Bulk  Modulus (GPa)     =      43.82493      43.82493      43.82493
  Shear Modulus (GPa)     =      26.08758      26.29496      26.19127
-------------------------------------------------------------------------------
  Velocity S-wave (km/s)  =       3.34035       3.35360       3.34698
  Velocity P-wave (km/s)  =       5.79842       5.80861       5.80351
-------------------------------------------------------------------------------
  Compressibility (1/GPa) =    0.02281806
-------------------------------------------------------------------------------
  Stress axis :                     x             y             z
-------------------------------------------------------------------------------
  Youngs Moduli (GPa)     =      71.69479      71.69479      71.69479
-------------------------------------------------------------------------------
  Poissons Ratio (x)      =                     0.22734       0.22734
  Poissons Ratio (y)      =       0.22734                     0.22734
  Poissons Ratio (z)      =       0.22734       0.22734
-------------------------------------------------------------------------------


  Piezoelectric Strain Matrix: (Units=C/m**2)

-------------------------------------------------------------------------------
  Indices      1         2         3         4         5         6    
-------------------------------------------------------------------------------
       x    -0.00000   0.00000   0.00000   0.00000   0.00000   0.00000
       y     0.00000   0.00000   0.00000   0.00000   0.00000   0.00000
       z     0.00000  -0.00000   0.00000   0.00000   0.00000   0.00000
-------------------------------------------------------------------------------


  Piezoelectric Stress Matrix: (Units=10**-11 C/N)

-------------------------------------------------------------------------------
  Indices      1         2         3         4         5         6    
-------------------------------------------------------------------------------
       x    -0.00000   0.00000   0.00000   0.00000   0.00000   0.00000
       y     0.00000   0.00000   0.00000   0.00000   0.00000   0.00000
       z     0.00000  -0.00000   0.00000   0.00000   0.00000   0.00000
-------------------------------------------------------------------------------


  Static dielectric constant tensor : 

-------------------------------------------------------------------------------
              x         y         z
-------------------------------------------------------------------------------
       x    11.08357  -0.00000  -0.00000
       y    -0.00000  11.08357  -0.00000
       z    -0.00000  -0.00000  11.08357
--------------------------------------------------------------------------------

  High frequency dielectric constant tensor : 

-------------------------------------------------------------------------------
              x         y         z
-------------------------------------------------------------------------------
       x     1.50771  -0.00000   0.00000
       y    -0.00000   1.50771  -0.00000
       z     0.00000  -0.00000   1.50771
-------------------------------------------------------------------------------

  Static refractive indices : 

-------------------------------------------------------------------------------
    1 =    3.32920      2 =    3.32920      3 =    3.32920
-------------------------------------------------------------------------------

  High frequency refractive indices : 

-------------------------------------------------------------------------------
    1 =    1.22789      2 =    1.22789      3 =    1.22789
-------------------------------------------------------------------------------


  Time to end of optimisation =       0.1603 seconds

********************************************************************************
*  Defect calculation for configuration   1 :                                  *
********************************************************************************

  Total number of defects =      2

  Total charge on defect  =   0.00

  Defect centre is at   0.5000   0.5000   0.5000  Frac

  Region 1 radius =  12.0000      Number of ions =    620

  Number of symmetry inequivalent region 1 ions  =    128

  Region 2 radius =  16.0000      Number of ions =    778

  Number of symmetry inequivalent region 2a ions =    136

  Region 2a mode = 4 : screened electrostatics due to region 1 
                       neglect correction to region 1 forces from 2a
                       region 2a displacements based on defects only

  Region 2a ions will only interact with defects in region 1

  Vacancies:

--------------------------------------------------------------------------------
    Specification type     Symbol/Number         x          y          z
--------------------------------------------------------------------------------
    Fractional                               0.250000   0.500000   0.500000
--------------------------------------------------------------------------------

  Impurities:

--------------------------------------------------------------------------------
    Specification type     Symbol/Number         x          y          z
--------------------------------------------------------------------------------
    Frac/Symbol             Mg               0.750000   0.500000   0.500000
--------------------------------------------------------------------------------


  Symmetry reduced region 1 (Relative to defect centre) :

--------------------------------------------------------------------------------
   No.   Atomic       x            y             z       Radius  Multiplicity   
         Label      (Angs)       (Angs)        (Angs)    (Angs)     
--------------------------------------------------------------------------------
     1  O     c     -0.0000 *     0.0000      -0.0000    0.0000     1          
     2  Na    c      0.0000 *     0.0000       2.2030 *  0.0000     4          
     3  Mg    c      2.2030 *     0.0000       0.0000    0.0000     1    Defect
     4  Cl    c      2.2030 *     2.2030 *     2.2030    0.0000     4          
     5  Cl    c     -2.2030 *    -2.2030 *     2.2030    0.0000     4          
     6  O     c      0.0000 *     0.0000       4.4059 *  0.0000     4          
     7  O     c     -4.4059 *     0.0000      -0.0000    0.0000     1          
     8  O     c      4.4059 *     0.0000       0.0000    0.0000     1          
     9  Na    c      4.4059 *    -2.2030 *    -0.0000    0.0000     4          
    10  Na    c     -4.4059 *     2.2030 *     0.0000    0.0000     4          
    11  Na    c     -2.2030 *    -4.4059 *     0.0000    0.0000     4          
    12  Na    c      2.2030 *     4.4059 *    -0.0000    0.0000     4          
    13  Na    c      0.0000 *    -2.2030 *     4.4059 *  0.0000     8          
    14  O     c      4.4059 *     0.0000       4.4059 *  0.0000     4          
    15  O     c     -4.4059 *     0.0000       4.4059 *  0.0000     4          
    16  O     c      0.0000 *    -4.4059 *     4.4059    0.0000     4          
    17  Na    c     -4.4059 *     2.2030 *     4.4059 *  0.0000     8          
    18  Na    c      4.4059 *    -2.2030 *    -4.4059 *  0.0000     8          
    19  Na    c     -2.2030 *    -4.4059 *     4.4059    0.0000     4          
    20  Na    c      2.2030 *     4.4059 *    -4.4059    0.0000     4          
    21  Na    c     -0.0000 *    -0.0000       6.6089 *  0.0000     4          
    22  Na    c     -6.6089 *     0.0000      -0.0000    0.0000     1          
    23  Na    c      6.6089 *    -0.0000       0.0000    0.0000     1          
    24  Cl    c      2.2030 *     2.2030 *     6.6089 *  0.0000     8          
    25  Cl    c     -2.2030 *    -2.2030 *     6.6089 *  0.0000     8          
    26  Cl    c     -6.6089 *    -2.2030 *     2.2030    0.0000     4          
    27  Cl    c      6.6089 *     2.2030 *    -2.2030    0.0000     4          
    28  O     c      4.4059 *     4.4059 *    -4.4059    0.0000     4          
    29  O     c     -4.4059 *     4.4059 *     4.4059    0.0000     4          
    30  Na    c     -6.6089 *     4.4059 *    -0.0000    0.0000     4          
    31  Na    c      6.6089 *    -4.4059 *     0.0000    0.0000     4          
    32  Na    c     -4.4059 *    -6.6089 *     0.0000    0.0000     4          
    33  Na    c      4.4059 *     6.6089 *    -0.0000    0.0000     4          
    34  Na    c     -0.0000 *    -4.4059 *     6.6089 *  0.0000     8          
    35  O     c     -0.0000 *     0.0000       8.8118 *  0.0000     4          
    36  O     c      8.8118 *     0.0000      -0.0000    0.0000     1          
    37  O     c     -8.8118 *     0.0000      -0.0000    0.0000     1          
    38  Na    c     -8.8118 *    -2.2030 *     0.0000    0.0000     4          
    39  Na    c      8.8118 *     2.2030 *    -0.0000    0.0000     4          
    40  Na    c      2.2030 *    -8.8118 *    -0.0000    0.0000     4          
    41  Na    c     -2.2030 *     8.8118 *     0.0000    0.0000     4          
    42  Na    c     -4.4059 *    -6.6089 *     4.4059 *  0.0000     8          
    43  Na    c      4.4059 *     6.6089 *    -4.4059 *  0.0000     8          
    44  Na    c     -6.6089 *     4.4059 *    -4.4059    0.0000     4          
    45  Na    c      6.6089 *    -4.4059 *     4.4059    0.0000     4          
    46  Na    c     -0.0000 *     2.2030 *     8.8118 *  0.0000     8          
    47  Cl    c      6.6089 *     2.2030 *     6.6089 *  0.0000     8          
    48  Cl    c     -6.6089 *    -2.2030 *     6.6089 *  0.0000     8          
    49  Cl    c     -2.2030 *    -6.6089 *    -6.6089    0.0000     4          
    50  Cl    c      2.2030 *     6.6089 *     6.6089    0.0000     4          
    51  O     c     -8.8118 *     0.0000       4.4059 *  0.0000     4          
    52  O     c     -4.4059 *     0.0000       8.8118 *  0.0000     4          
    53  O     c      8.8118 *     0.0000       4.4059 *  0.0000     4          
    54  O     c      4.4059 *     0.0000      -8.8118 *  0.0000     4          
    55  O     c      0.0000 *    -4.4059 *     8.8118 *  0.0000     8          
    56  Na    c     -8.8118 *    -2.2030 *     4.4059 *  0.0000     8          
    57  Na    c      8.8118 *     2.2030 *    -4.4059 *  0.0000     8          
    58  Na    c      2.2030 *    -8.8118 *    -4.4059 *  0.0000     8          
    59  Na    c     -2.2030 *     8.8118 *     4.4059 *  0.0000     8          
    60  Na    c     -4.4059 *     2.2030 *    -8.8118 *  0.0000     8          
    61  Na    c      4.4059 *    -2.2030 *     8.8118 *  0.0000     8          
    62  O     c     -8.8118 *    -4.4059 *     4.4059    0.0000     4          
    63  O     c     -4.4059 *    -4.4059 *     8.8118 *  0.0000     8          
    64  O     c      4.4059 *    -4.4059 *    -8.8118 *  0.0000     8          
    65  O     c      8.8118 *    -4.4059 *     4.4059    0.0000     4          
    66  Na    c     -8.8118 *     6.6089 *     0.0000    0.0000     4          
    67  Na    c      8.8118 *    -6.6089 *    -0.0000    0.0000     4          
    68  Na    c     -6.6089 *    -8.8118 *    -0.0000    0.0000     4          
    69  Na    c      6.6089 *     8.8118 *     0.0000    0.0000     4          
    70  Na    c     -0.0000 *    -6.6089 *     8.8118 *  0.0000     8          
    71  Na    c      0.0000 *     0.0000      11.0148 *  0.0000     4          
    72  Na    c    -11.0148 *    -0.0000       0.0000    0.0000     1          
    73  Na    c     11.0148 *     0.0000      -0.0000    0.0000     1          
    74  Cl    c      2.2030 *     2.2030 *    11.0148 *  0.0000     8          
    75  Cl    c     11.0148 *     2.2030 *     2.2030    0.0000     4          
    76  Cl    c    -11.0148 *    -2.2030 *     2.2030    0.0000     4          
    77  Cl    c     -2.2030 *    -2.2030 *    11.0148 *  0.0000     8          
    78  Cl    c      6.6089 *    -6.6089 *     6.6089    0.0000     4          
    79  Cl    c     -6.6089 *     6.6089 *     6.6089    0.0000     4          
    80  Na    c      8.8118 *    -6.6089 *    -4.4059 *  0.0000     8          
    81  Na    c     -8.8118 *     6.6089 *     4.4059 *  0.0000     8          
    82  Na    c     -6.6089 *    -8.8118 *    -4.4059 *  0.0000     8          
    83  Na    c      6.6089 *     8.8118 *     4.4059 *  0.0000     8          
    84  Na    c     -4.4059 *    -6.6089 *    -8.8118 *  0.0000     8          
    85  Na    c      4.4059 *     6.6089 *     8.8118 *  0.0000     8          
    86  Na    c    -11.0148 *    -4.4059 *     0.0000    0.0000     4          
    87  Na    c     11.0148 *     4.4059 *    -0.0000    0.0000     4          
    88  Na    c      4.4059 *   -11.0148 *    -0.0000    0.0000     4          
    89  Na    c     -4.4059 *    11.0148 *     0.0000    0.0000     4          
    90  Na    c      0.0000 *     4.4059 *    11.0148 *  0.0000     8          
    91  O     s     -0.0000 *     0.0000      -0.0000    0.0000     1          
    92  Mg    s      2.2030 *     0.0000       0.0000    0.0000     1    Defect
    93  Cl    s      2.2030 *     2.2030 *     2.2030    0.0000     4          
    94  Cl    s     -2.2030 *    -2.2030 *     2.2030    0.0000     4          
    95  O     s      0.0000 *     0.0000       4.4059 *  0.0000     4          
    96  O     s     -4.4059 *     0.0000      -0.0000    0.0000     1          
    97  O     s      4.4059 *     0.0000       0.0000    0.0000     1          
    98  O     s      4.4059 *     0.0000       4.4059 *  0.0000     4          
    99  O     s     -4.4059 *     0.0000       4.4059 *  0.0000     4          
   100  O     s      0.0000 *    -4.4059 *     4.4059    0.0000     4          
   101  Cl    s      2.2030 *     2.2030 *     6.6089 *  0.0000     8          
   102  Cl    s     -2.2030 *    -2.2030 *     6.6089 *  0.0000     8          
   103  Cl    s     -6.6089 *    -2.2030 *     2.2030    0.0000     4          
   104  Cl    s      6.6089 *     2.2030 *    -2.2030    0.0000     4          
   105  O     s      4.4059 *     4.4059 *    -4.4059    0.0000     4          
   106  O     s     -4.4059 *     4.4059 *     4.4059    0.0000     4          
   107  O     s     -0.0000 *     0.0000       8.8118 *  0.0000     4          
   108  O     s      8.8118 *     0.0000      -0.0000    0.0000     1          
   109  O     s     -8.8118 *     0.0000      -0.0000    0.0000     1          
   110  Cl    s      6.6089 *     2.2030 *     6.6089 *  0.0000     8          
   111  Cl    s     -6.6089 *    -2.2030 *     6.6089 *  0.0000     8          
   112  Cl    s     -2.2030 *     6.6089 *     6.6089    0.0000     4          
   113  Cl    s      2.2030 *     6.6089 *     6.6089    0.0000     4          
   114  O     s     -8.8118 *     0.0000       4.4059 *  0.0000     4          
   115  O     s     -4.4059 *     0.0000       8.8118 *  0.0000     4          
   116  O     s      8.8118 *     0.0000       4.4059 *  0.0000     4          
   117  O     s      4.4059 *     0.0000      -8.8118 *  0.0000     4          
   118  O     s      0.0000 *    -4.4059 *     8.8118 *  0.0000     8          
   119  O     s     -8.8118 *    -4.4059 *     4.4059    0.0000     4          
   120  O     s     -4.4059 *    -4.4059 *     8.8118 *  0.0000     8          
   121  O     s      4.4059 *    -4.4059 *    -8.8118 *  0.0000     8          
   122  O     s      8.8118 *    -4.4059 *     4.4059    0.0000     4          
   123  Cl    s      2.2030 *     2.2030 *    11.0148 *  0.0000     8          
   124  Cl    s     11.0148 *     2.2030 *     2.2030    0.0000     4          
   125  Cl    s    -11.0148 *    -2.2030 *     2.2030    0.0000     4          
   126  Cl    s      6.6089 *    -6.6089 *     6.6089    0.0000     4          
   127  Cl    s     -2.2030 *    -2.2030 *    11.0148 *  0.0000     8          
   128  Cl    s     -6.6089 *     6.6089 *     6.6089    0.0000     4          
--------------------------------------------------------------------------------


  Constraints on symmetry reduced coordinates :

--------------------------------------------------------------------------------
  Constraint no.      Unconstrained     Constrained    Coefficient    
                         Variable         Variable
--------------------------------------------------------------------------------
           1                 4 y             4 z         1.00000
           2                 5 y             5 z        -1.00000
           3                16 y            16 z        -1.00000
           4                19 y            19 z        -1.00000
           5                20 y            20 z        -1.00000
           6                26 y            26 z        -1.00000
           7                27 y            27 z        -1.00000
           8                28 y            28 z        -1.00000
           9                29 y            29 z         1.00000
          10                44 y            44 z        -1.00000
          11                45 y            45 z        -1.00000
          12                49 y            49 z         1.00000
          13                50 y            50 z         1.00000
          14                62 y            62 z        -1.00000
          15                65 y            65 z        -1.00000
          16                75 y            75 z         1.00000
          17                76 y            76 z        -1.00000
          18                78 y            78 z        -1.00000
          19                79 y            79 z         1.00000
          20                93 y            93 z         1.00000
          21                94 y            94 z        -1.00000
          22               100 y           100 z        -1.00000
          23               103 y           103 z        -1.00000
          24               104 y           104 z        -1.00000
          25               105 y           105 z        -1.00000
          26               106 y           106 z         1.00000
          27               112 y           112 z         1.00000
          28               113 y           113 z         1.00000
          29               119 y           119 z        -1.00000
          30               122 y           122 z        -1.00000
          31               124 y           124 z         1.00000
          32               125 y           125 z        -1.00000
          33               126 y           126 z        -1.00000
          34               128 y           128 z         1.00000
--------------------------------------------------------------------------------


  Components of defect energy : 

--------------------------------------------------------------------------------
  Region 1 - region 1                   =     -5.50539706 eV
  Region 1 - region 2a (unrelaxed)      =      0.00000001 eV
  Region 1 - 2a (relaxed - correction)  =     -0.56560741 eV
  Region 1 (Total)                      =     -6.07100446 eV
  Region 2a                             =      0.28282252 eV
  Region 2b                             =      0.00000000 eV
--------------------------------------------------------------------------------
  Total defect energy                   =     -5.78818194 eV
--------------------------------------------------------------------------------

  Largest displacement in region 2 =   0.0946 Angstroms


  Number of variables =      279

  Maximum number of calculations  =        1000
  Maximum Hessian update interval =          10
  Maximum step size               =   1.0000000
  Maximum parameter tolerance     =   0.0000100
  Maximum function  tolerance     =   0.0000100
  Maximum gradient  tolerance     =   0.0010000

  Symmetry adapted optimisation

  Symmetry to be used for second derivatives

  Newton-Raphson optimiser to be used

  BFGS hessian update to be used

  Lower half triangular hessian to be used

  Start of defect optimisation :

  Cycle:      0 Defect Energy:  -5.788182  Gnorm:     0.128231  CPU:    0.808
  ** Hessian calculated **
  Cycle:      1 Defect Energy:  -7.526511  Gnorm:     0.111616  CPU:    6.532
  Cycle:      2 Defect Energy:  -8.692410  Gnorm:     0.088309  CPU:    8.211
  ** Hessian calculated **
  Cycle:      3 Defect Energy: -10.183158  Gnorm:     0.032007  CPU:    9.852
  Cycle:      4 Defect Energy: -10.411956  Gnorm:     0.023763  CPU:   10.935
  Cycle:      5 Defect Energy: -10.550339  Gnorm:     0.018020  CPU:   12.267
  Cycle:      6 Defect Energy: -10.677584  Gnorm:     0.017088  CPU:   13.452
  Cycle:      7 Defect Energy: -10.748764  Gnorm:     0.015222  CPU:   14.654
  Cycle:      8 Defect Energy: -10.826141  Gnorm:     0.014745  CPU:   15.842
  Cycle:      9 Defect Energy: -10.883091  Gnorm:     0.016694  CPU:   17.029
  Cycle:     10 Defect Energy: -10.950376  Gnorm:     0.012268  CPU:   18.207
  Cycle:     11 Defect Energy: -10.974713  Gnorm:     0.010504  CPU:   18.476
  Cycle:     12 Defect Energy: -11.010541  Gnorm:     0.009518  CPU:   18.738
  ** Hessian calculated **
  Cycle:     13 Defect Energy: -11.133181  Gnorm:     0.009467  CPU:   19.528
  Cycle:     14 Defect Energy: -11.316625  Gnorm:     0.009190  CPU:   19.795
  Cycle:     15 Defect Energy: -11.578421  Gnorm:     0.008305  CPU:   20.058
  Cycle:     16 Defect Energy: -11.889670  Gnorm:     0.006394  CPU:   20.330
  Cycle:     17 Defect Energy: -12.070187  Gnorm:     0.004214  CPU:   20.598
  Cycle:     18 Defect Energy: -12.121114  Gnorm:     0.003255  CPU:   20.872
  Cycle:     19 Defect Energy: -12.147945  Gnorm:     0.001829  CPU:   21.136
  Cycle:     20 Defect Energy: -12.154881  Gnorm:     0.001152  CPU:   21.394
  Cycle:     21 Defect Energy: -12.157783  Gnorm:     0.000829  CPU:   21.672
  Cycle:     22 Defect Energy: -12.159253  Gnorm:     0.000585  CPU:   21.934
  ** Hessian calculated **
  Cycle:     23 Defect Energy: -12.160013  Gnorm:     0.000411  CPU:   22.709
  Cycle:     24 Defect Energy: -12.160375  Gnorm:     0.000289  CPU:   22.967
  Cycle:     25 Defect Energy: -12.160548  Gnorm:     0.000203  CPU:   23.232
  Cycle:     26 Defect Energy: -12.160627  Gnorm:     0.000143  CPU:   23.495
  Cycle:     27 Defect Energy: -12.160663  Gnorm:     0.000102  CPU:   23.764
  Cycle:     28 Defect Energy: -12.160677  Gnorm:     0.000071  CPU:   24.028


  **** Optimisation achieved ****


  Final defect energy  =      -12.16068196
  Final defect Gnorm   =        0.00005084

  Components of defect energy : 

--------------------------------------------------------------------------------
  Region 1 - region 1                   =    -12.01331016 eV
  Region 1 - region 2a (unrelaxed)      =     -0.07563760 eV
  Region 1 - 2a (relaxed - correction)  =     -0.14356989 eV
  Region 1 (Total)                      =    -12.23251766 eV
  Region 2a                             =      0.07183570 eV
  Region 2b                             =      0.00000000 eV
--------------------------------------------------------------------------------
  Total defect energy                   =    -12.16068196 eV
--------------------------------------------------------------------------------

  Largest displacement in region 2 =   0.1019 Angstroms

  Final coordinates of region 1 :

--------------------------------------------------------------------------------
   No.  Atomic        x           y           z          Radius      Charge
        Label       (Angs)      (Angs)      (Angs)       (Angs)       (e) 
--------------------------------------------------------------------------------
     1  O     c     4.912275    4.405902    4.405902    0.000000    0.183000
     2  Na    c     4.222494    4.405902    6.540889    0.000000    1.000000
     3  Na    c     4.222494    2.270915    4.405902    0.000000    1.000000
     4  Na    c     4.222494    4.405902    2.270915    0.000000    1.000000
     5  Na    c     4.222494    6.540889    4.405902    0.000000    1.000000
     6  Mg    c     6.724942    4.405902    4.405902    0.000000    0.415000
     7  Cl    c     6.721604    6.387969    6.387969    0.000000    1.485000
     8  Cl    c     6.721604    2.423835    6.387969    0.000000    1.485000
     9  Cl    c     6.721604    6.387969    2.423835    0.000000    1.485000
    10  Cl    c     6.721604    2.423835    2.423835    0.000000    1.485000
    11  Cl    c     2.271037    2.137711    6.674094    0.000000    1.485000
    12  Cl    c     2.271037    2.137711    2.137711    0.000000    1.485000
    13  Cl    c     2.271037    6.674094    6.674094    0.000000    1.485000
    14  Cl    c     2.271037    6.674094    2.137711    0.000000    1.485000
    15  O     c     4.406110    4.405902    8.786562    0.000000    0.183000
    16  O     c     4.406110    4.405902    0.025243    0.000000    0.183000
    17  O     c     4.406110    0.025243    4.405902    0.000000    0.183000
    18  O     c     4.406110    8.786562    4.405902    0.000000    0.183000
    19  O     c    -0.131993    4.405902    4.405902    0.000000    0.183000
    20  O     c     8.589694    4.405902    4.405902    0.000000    0.183000
    21  Na    c     8.897953    2.148450    4.405902    0.000000    1.000000
    22  Na    c     8.897953    4.405902    6.663355    0.000000    1.000000
    23  Na    c     8.897953    4.405902    2.148450    0.000000    1.000000
    24  Na    c     8.897953    6.663355    4.405902    0.000000    1.000000
    25  Na    c     0.246011    6.517397    4.405902    0.000000    1.000000
    26  Na    c     0.246011    4.405902    2.294408    0.000000    1.000000
    27  Na    c     0.246011    4.405902    6.517397    0.000000    1.000000
    28  Na    c     0.246011    2.294408    4.405902    0.000000    1.000000
    29  Na    c     2.206151   -0.103595    4.405902    0.000000    1.000000
    30  Na    c     2.206151    4.405902    8.915399    0.000000    1.000000
    31  Na    c     2.206151    4.405902   -0.103595    0.000000    1.000000
    32  Na    c     2.206151    8.915399    4.405902    0.000000    1.000000
    33  Na    c     6.596032    8.638199    4.405902    0.000000    1.000000
    34  Na    c     6.596032    4.405902    0.173605    0.000000    1.000000
    35  Na    c     6.596032    4.405902    8.638199    0.000000    1.000000
    36  Na    c     6.596032    0.173605    4.405902    0.000000    1.000000
    37  Na    c     4.368881    2.210073    8.810621    0.000000    1.000000
    38  Na    c     4.368881    6.601732    0.001183    0.000000    1.000000
    39  Na    c     4.368881    0.001183    2.210073    0.000000    1.000000
    40  Na    c     4.368881    8.810621    6.601732    0.000000    1.000000
    41  Na    c     4.368881    6.601732    8.810621    0.000000    1.000000
    42  Na    c     4.368881    2.210073    0.001183    0.000000    1.000000
    43  Na    c     4.368881    0.001183    6.601732    0.000000    1.000000
    44  Na    c     4.368881    8.810621    2.210073    0.000000    1.000000
    45  O     c     8.812940    4.405902    8.837847    0.000000    0.183000
    46  O     c     8.812940    4.405902   -0.026042    0.000000    0.183000
[...]
     47 y          6.608853      6.618356     0.009502    Cartesian    0.14
     47 z         11.014756     11.005340    -0.009416    Cartesian   -0.09
     48 x         -2.202951     -2.184380     0.018571    Cartesian   -0.84
     48 y          2.202951      2.199520    -0.003431    Cartesian   -0.16
     48 z         11.014756     11.030407     0.015651    Cartesian    0.14
     49 x          2.202951      2.224094     0.021143    Cartesian    0.96
     49 y         -2.202951     -2.198737     0.004214    Cartesian   -0.19
     49 z         -2.202951     -2.198737     0.004214    Cartesian   -0.19
     50 x          6.608853      6.626267     0.017413    Cartesian    0.26
     50 y         11.014756     11.009380    -0.005376    Cartesian   -0.05
     50 z         11.014756     11.009380    -0.005376    Cartesian   -0.05
     51 x         -4.405902     -4.397824     0.008079    Cartesian   -0.18
     51 y          4.405902      4.405902     0.000000    Cartesian    0.00
     51 z          8.811805      8.799982    -0.011823    Cartesian   -0.13
     52 x          0.000000     -0.001496    -0.001496    Cartesian *******
     52 y          4.405902      4.405902     0.000000    Cartesian    0.00
     52 z         13.217707     13.202171    -0.015536    Cartesian   -0.12
     53 x         13.217707     13.216340    -0.001367    Cartesian   -0.01
     53 y          4.405902      4.405902     0.000000    Cartesian    0.00
     53 z          8.811805      8.819887     0.008082    Cartesian    0.09
     54 x          8.811805      8.804447    -0.007357    Cartesian   -0.08
     54 y          4.405902      4.405902     0.000000    Cartesian    0.00
     54 z         -4.405902     -4.412145    -0.006243    Cartesian    0.14
     55 x          4.405902      4.405506    -0.000396    Cartesian   -0.01
     55 y          0.000000      0.000310     0.000310    Cartesian *******
     55 z         13.217707     13.216486    -0.001221    Cartesian   -0.01
     56 x         -4.405902     -4.390832     0.015070    Cartesian   -0.34
     56 y          2.202951      2.200925    -0.002027    Cartesian   -0.09
     56 z          8.811805      8.801381    -0.010424    Cartesian   -0.12
     57 x         13.217707     13.226071     0.008364    Cartesian    0.06
     57 y          6.608853      6.606587    -0.002266    Cartesian   -0.03
     57 z          0.000000     -0.008493    -0.008493    Cartesian *******
     58 x          6.608853      6.606094    -0.002760    Cartesian   -0.04
     58 y         -4.405902     -4.403786     0.002116    Cartesian   -0.05
     58 z          0.000000      0.006176     0.006176    Cartesian *******
     59 x          2.202951      2.200092    -0.002859    Cartesian   -0.13
     59 y         13.217707     13.217350    -0.000357    Cartesian   -0.00
     59 z          8.811805      8.818028     0.006224    Cartesian    0.07
     60 x          0.000000     -0.004014    -0.004014    Cartesian *******
     60 y          6.608853      6.607367    -0.001486    Cartesian   -0.02
     60 z         -4.405902     -4.394517     0.011385    Cartesian   -0.26
     61 x          8.811805      8.808447    -0.003357    Cartesian   -0.04
     61 y          2.202951      2.202974     0.000023    Cartesian    0.00
     61 z         13.217707     13.224055     0.006348    Cartesian    0.05
     62 x         -4.405902     -4.410377    -0.004475    Cartesian    0.10
     62 y          0.000000     -0.009609    -0.009609    Cartesian *******
     62 z          8.811805      8.821414     0.009609    Cartesian    0.11
     63 x          0.000000      0.003498     0.003498    Cartesian *******
     63 y          0.000000      0.000609     0.000609    Cartesian *******
     63 z         13.217707     13.216612    -0.001095    Cartesian   -0.01
     64 x          8.811805      8.814558     0.002753    Cartesian    0.03
     64 y          0.000000      0.000709     0.000709    Cartesian *******
     64 z         -4.405902     -4.405467     0.000436    Cartesian   -0.01
     65 x         13.217707     13.214174    -0.003533    Cartesian   -0.03
     65 y          0.000000      0.006637     0.006637    Cartesian *******
     65 z          8.811805      8.805168    -0.006637    Cartesian   -0.08
     66 x         -4.405902     -4.360082     0.045821    Cartesian   -1.04
     66 y         11.014756     11.001813    -0.012942    Cartesian   -0.12
     66 z          4.405902      4.405902     0.000000    Cartesian    0.00
     67 x         13.217707     13.248897     0.031190    Cartesian    0.24
     67 y         -2.202951     -2.209586    -0.006634    Cartesian    0.30
     67 z          4.405902      4.405902     0.000000    Cartesian    0.00
     68 x         -2.202951     -2.205579    -0.002628    Cartesian    0.12
     68 y         -4.405902     -4.428173    -0.022271    Cartesian    0.51
     68 z          4.405902      4.405902     0.000000    Cartesian    0.00
     69 x         11.014756     11.008661    -0.006095    Cartesian   -0.06
     69 y         13.217707     13.189869    -0.027838    Cartesian   -0.21
     69 z          4.405902      4.405902     0.000000    Cartesian    0.00
     70 x          4.405902      4.399627    -0.006276    Cartesian   -0.14
     70 y         -2.202951     -2.202086     0.000865    Cartesian   -0.04
     70 z         13.217707     13.217104    -0.000603    Cartesian   -0.00
     71 x          4.405902      4.355740    -0.050162    Cartesian   -1.14
     71 y          4.405902      4.405902     0.000000    Cartesian    0.00
     71 z         15.420658     15.417294    -0.003364    Cartesian   -0.02
     72 x         -6.608853     -6.630031    -0.021177    Cartesian    0.32
     72 y          4.405902      4.405902     0.000000    Cartesian    0.00
     72 z          4.405902      4.405902     0.000000    Cartesian    0.00
     73 x         15.420658     15.402120    -0.018538    Cartesian   -0.12
     73 y          4.405902      4.405902     0.000000    Cartesian    0.00
     73 z          4.405902      4.405902     0.000000    Cartesian    0.00
     74 x          6.608853      6.616291     0.007437    Cartesian    0.11
     74 y          6.608853      6.609411     0.000557    Cartesian    0.01
     74 z         15.420658     15.416273    -0.004385    Cartesian   -0.03
     75 x         15.420658     15.413796    -0.006862    Cartesian   -0.04
     75 y          6.608853      6.608369    -0.000484    Cartesian   -0.01
     75 z          6.608853      6.608369    -0.000484    Cartesian   -0.01
     76 x         -6.608853     -6.618255    -0.009402    Cartesian    0.14
     76 y          2.202951      2.203129     0.000178    Cartesian    0.01
     76 z          6.608853      6.608675    -0.000178    Cartesian   -0.00
     77 x          2.202951      2.211240     0.008289    Cartesian    0.38
     77 y          2.202951      2.205787     0.002836    Cartesian    0.13
     77 z         15.420658     15.423553     0.002895    Cartesian    0.02
     78 x         11.014756     11.017653     0.002897    Cartesian    0.03
     78 y         -2.202951     -2.193525     0.009426    Cartesian   -0.43
     78 z         11.014756     11.005330    -0.009426    Cartesian   -0.09
     79 x         -2.202951     -2.191175     0.011776    Cartesian   -0.53
     79 y         11.014756     11.022579     0.007823    Cartesian    0.07
     79 z         11.014756     11.022579     0.007823    Cartesian    0.07
     80 x         13.217707     13.211892    -0.005815    Cartesian   -0.04
     80 y         -2.202951     -2.202547     0.000404    Cartesian   -0.02
     80 z          0.000000      0.000248     0.000248    Cartesian *******
     81 x         -4.405902     -4.414757    -0.008855    Cartesian    0.20
     81 y         11.014756     11.015298     0.000542    Cartesian    0.00
     81 z          8.811805      8.810528    -0.001277    Cartesian   -0.01
     82 x         -2.202951     -2.203016    -0.000065    Cartesian    0.00
     82 y         -4.405902     -4.399432     0.006471    Cartesian   -0.15
     82 z          0.000000      0.005291     0.005291    Cartesian *******
     83 x         11.014756     11.015289     0.000533    Cartesian    0.00
     83 y         13.217707     13.224041     0.006335    Cartesian    0.05
     83 z          8.811805      8.813189     0.001384    Cartesian    0.02
     84 x          0.000000     -0.011066    -0.011066    Cartesian *******
     84 y         -2.202951     -2.201879     0.001072    Cartesian   -0.05
     84 z         -4.405902     -4.401980     0.003922    Cartesian   -0.09
     85 x          8.811805      8.804532    -0.007272    Cartesian   -0.08
     85 y         11.014756     11.014295    -0.000461    Cartesian   -0.00
     85 z         13.217707     13.220354     0.002647    Cartesian    0.02
     86 x         -6.608853     -6.604153     0.004700    Cartesian   -0.07
     86 y          0.000000     -0.020601    -0.020601    Cartesian *******
     86 z          4.405902      4.405902     0.000000    Cartesian    0.00
     87 x         15.420658     15.421226     0.000568    Cartesian    0.00
     87 y          8.811805      8.794536    -0.017269    Cartesian   -0.20
     87 z          4.405902      4.405902     0.000000    Cartesian    0.00
     88 x          8.811805      8.833362     0.021557    Cartesian    0.24
     88 y         -6.608853     -6.614265    -0.005412    Cartesian    0.08
     88 z          4.405902      4.405902     0.000000    Cartesian    0.00
     89 x          0.000000      0.022909     0.022909    Cartesian *******
     89 y         15.420658     15.411467    -0.009191    Cartesian   -0.06
     89 z          4.405902      4.405902     0.000000    Cartesian    0.00
     90 x          4.405902      4.402605    -0.003297    Cartesian   -0.07
     90 y          8.811805      8.810306    -0.001499    Cartesian   -0.02
     90 z         15.420658     15.419876    -0.000782    Cartesian   -0.01
     91 x          4.405902      4.913443     0.507540    Cartesian   11.52
     91 y          4.405902      4.405902     0.000000    Cartesian    0.00
     91 z          4.405902      4.405902     0.000000    Cartesian    0.00
     92 x          6.608853      6.725881     0.117027    Cartesian    1.77
     92 y          4.405902      4.405902     0.000000    Cartesian    0.00
     92 z          4.405902      4.405902     0.000000    Cartesian    0.00
     93 x          6.608853      6.737069     0.128216    Cartesian    1.94
     93 y          6.608853      6.371621    -0.237233    Cartesian   -3.59
     93 z          6.608853      6.371621    -0.237233    Cartesian   -3.59
     94 x          2.202951      2.278925     0.075974    Cartesian    3.45
     94 y          2.202951      2.132263    -0.070688    Cartesian   -3.21
     94 z          6.608853      6.679542     0.070688    Cartesian    1.07
     95 x          4.405902      4.406097     0.000195    Cartesian    0.00
     95 y          4.405902      4.405902     0.000000    Cartesian    0.00
     95 z          8.811805      8.786606    -0.025198    Cartesian   -0.29
     96 x          0.000000     -0.132205    -0.132205    Cartesian *******
     96 y          4.405902      4.405902     0.000000    Cartesian    0.00
     96 z          4.405902      4.405902     0.000000    Cartesian    0.00
     97 x          8.811805      8.588747    -0.223057    Cartesian   -2.53
     97 y          4.405902      4.405902     0.000000    Cartesian    0.00
     97 z          4.405902      4.405902     0.000000    Cartesian    0.00
     98 x          8.811805      8.812960     0.001155    Cartesian    0.01
     98 y          4.405902      4.405902     0.000000    Cartesian    0.00
     98 z          8.811805      8.837810     0.026005    Cartesian    0.30
     99 x         -0.000000      0.022761     0.022761    Cartesian *******
     99 y          4.405902      4.405902     0.000000    Cartesian    0.00
     99 z          8.811805      8.776947    -0.034857    Cartesian   -0.40
    100 x          4.405902      4.426399     0.020496    Cartesian    0.47
    100 y          0.000000      0.007995     0.007995    Cartesian *******
    100 z          8.811805      8.803810    -0.007995    Cartesian   -0.09
    101 x          6.608853      6.620666     0.011813    Cartesian    0.18
    101 y          6.608853      6.622444     0.013590    Cartesian    0.21
    101 z         11.014756     10.999587    -0.015169    Cartesian   -0.14
    102 x          2.202951      2.232752     0.029800    Cartesian    1.35
    102 y          2.202951      2.200820    -0.002131    Cartesian   -0.10
    102 z         11.014756     11.016017     0.001261    Cartesian    0.01
    103 x         -2.202951     -2.265587    -0.062635    Cartesian    2.84
    103 y          2.202951      2.126289    -0.076662    Cartesian   -3.48
    103 z          6.608853      6.685516     0.076662    Cartesian    1.16
    104 x         11.014756     10.974914    -0.039842    Cartesian   -0.36
    104 y          6.608853      6.544235    -0.064618    Cartesian   -0.98
    104 z          2.202951      2.267570     0.064618    Cartesian    2.93
    105 x          8.811805      8.806870    -0.004935    Cartesian   -0.06
    105 y          8.811805      8.804104    -0.007701    Cartesian   -0.09
    105 z          0.000000      0.007701     0.007701    Cartesian *******
    106 x          0.000000      0.002020     0.002020    Cartesian *******
    106 y          8.811805      8.809339    -0.002466    Cartesian   -0.03
    106 z          8.811805      8.809339    -0.002466    Cartesian   -0.03
    107 x          4.405902      4.413735     0.007832    Cartesian    0.18
    107 y          4.405902      4.405902     0.000000    Cartesian    0.00
    107 z         13.217707     13.209350    -0.008357    Cartesian   -0.06
    108 x         13.217707     13.185385    -0.032321    Cartesian   -0.24
    108 y          4.405902      4.405902     0.000000    Cartesian    0.00
    108 z          4.405902      4.405902     0.000000    Cartesian    0.00
    109 x         -4.405902     -4.441458    -0.035555    Cartesian    0.81
    109 y          4.405902      4.405902     0.000000    Cartesian    0.00
    109 z          4.405902      4.405902     0.000000    Cartesian    0.00
    110 x         11.014756     11.028919     0.014163    Cartesian    0.13
    110 y          6.608853      6.619216     0.010362    Cartesian    0.16
    110 z         11.014756     11.002700    -0.012055    Cartesian   -0.11
    111 x         -2.202951     -2.181010     0.021941    Cartesian   -1.00
    111 y          2.202951      2.198951    -0.004001    Cartesian   -0.18
    111 z         11.014756     11.034210     0.019454    Cartesian    0.18
    112 x          2.202951      2.227592     0.024641    Cartesian    1.12
    112 y         11.014756     11.010549    -0.004207    Cartesian   -0.04
    112 z         11.014756     11.010549    -0.004207    Cartesian   -0.04
    113 x          6.608853      6.629050     0.020196    Cartesian    0.31
    113 y         11.014756     11.007312    -0.007444    Cartesian   -0.07
    113 z         11.014756     11.007312    -0.007444    Cartesian   -0.07
    114 x         -4.405902     -4.397839     0.008063    Cartesian   -0.18
    114 y          4.405902      4.405902     0.000000    Cartesian    0.00
    114 z          8.811805      8.799956    -0.011849    Cartesian   -0.13
    115 x          0.000000     -0.001510    -0.001510    Cartesian *******
    115 y          4.405902      4.405902     0.000000    Cartesian    0.00
    115 z         13.217707     13.202173    -0.015534    Cartesian   -0.12
    116 x         13.217707     13.216343    -0.001364    Cartesian   -0.01
    116 y          4.405902      4.405902     0.000000    Cartesian    0.00
    116 z          8.811805      8.819906     0.008102    Cartesian    0.09
    117 x          8.811805      8.804431    -0.007373    Cartesian   -0.08
    117 y          4.405902      4.405902     0.000000    Cartesian    0.00
    117 z         -4.405902     -4.412153    -0.006251    Cartesian    0.14
    118 x          4.405902      4.405504    -0.000399    Cartesian   -0.01
    118 y          0.000000      0.000310     0.000310    Cartesian *******
    118 z         13.217707     13.216485    -0.001222    Cartesian   -0.01
    119 x         -4.405902     -4.410377    -0.004475    Cartesian    0.10
    119 y          0.000000     -0.009619    -0.009619    Cartesian *******
    119 z          8.811805      8.821423     0.009619    Cartesian    0.11
    120 x          0.000000      0.003503     0.003503    Cartesian *******
    120 y          0.000000      0.000609     0.000609    Cartesian *******
    120 z         13.217707     13.216614    -0.001093    Cartesian   -0.01
    121 x          8.811805      8.814564     0.002759    Cartesian    0.03
    121 y          0.000000      0.000711     0.000711    Cartesian *******
    121 z         -4.405902     -4.405464     0.000438    Cartesian   -0.01
    122 x         13.217707     13.214173    -0.003534    Cartesian   -0.03
    122 y          0.000000      0.006642     0.006642    Cartesian *******
    122 z          8.811805      8.805163    -0.006642    Cartesian   -0.08
    123 x          6.608853      6.617999     0.009146    Cartesian    0.14
    123 y          6.608853      6.609023     0.000169    Cartesian    0.00
    123 z         15.420658     15.414594    -0.006064    Cartesian   -0.04
    124 x         15.420658     15.414224    -0.006434    Cartesian   -0.04
    124 y          6.608853      6.608969     0.000115    Cartesian    0.00
    124 z          6.608853      6.608969     0.000115    Cartesian    0.00
    125 x         -6.608853     -6.617886    -0.009032    Cartesian    0.14
    125 y          2.202951      2.204114     0.001163    Cartesian    0.05
    125 z          6.608853      6.607691    -0.001163    Cartesian   -0.02
    126 x         11.014756     11.018243     0.003487    Cartesian    0.03
    126 y         -2.202951     -2.191933     0.011018    Cartesian   -0.50
    126 z         11.014756     11.003737    -0.011018    Cartesian   -0.10
    127 x          2.202951      2.213064     0.010113    Cartesian    0.46
    127 y          2.202951      2.206075     0.003124    Cartesian    0.14
    127 z         15.420658     15.425180     0.004522    Cartesian    0.03
    128 x         -2.202951     -2.189266     0.013685    Cartesian   -0.62
    128 y         11.014756     11.024098     0.009343    Cartesian    0.08
    128 z         11.014756     11.024098     0.009343    Cartesian    0.08
--------------------------------------------------------------------------------


  Time to end of optimisation  =       24.3083 seconds


  Peak dynamic memory used =      76.64 MB 


  Timing analysis for GULP :

--------------------------------------------------------------------------------
  Task / Subroutine                                          Time (Seconds)
--------------------------------------------------------------------------------
  Calculation of reciprocal space energy and derivatives          0.0133
  Calculation of real space energy and derivatives                0.1385
  Calculation for region 1 energy and derivatives (2-b)          16.1061
  Calculation for region 2a energy                                7.3296
  Calculation and manipulation of Hessian matrix                  0.6207
  Calculation of matrix inversion                                 0.0388
  Symmetry generation of equivalent positions                     0.0010
--------------------------------------------------------------------------------
  Total CPU time                                                 24.3084
--------------------------------------------------------------------------------


  Dump file written as Na3OCl.grs


  Job Finished at 18:23.08  1st February   2021                               

