********************************************************************************
*                       GENERAL UTILITY LATTICE PROGRAM                        *
*                                 Julian Gale                                  *
*                       Curtin Institute for Computation                       *
*                    School of Molecular and Life Sciences                     *
*                    Curtin University, Western Australia                      *
********************************************************************************
* Version = 5.2.0 * Last modified =  10th September 2020                       *
********************************************************************************
*  optimise     - perform optimisation run                                     *
*  conp         - constant pressure calculation                                *
*  property     - calculate properties for final geometry                      *
*  defect       - perform defect calculation after bulk run                    *
*  compare      - compare initial and final structures                         *
********************************************************************************

  Job Started  at 12:37.40  2nd February   2021                               

  Number of CPUs =     1


  Total number of configurations input =      1

********************************************************************************
*  Input for Configuration =   1                                               *
********************************************************************************

  Formula = O8Cl8Na24                                                   

  Number of irreducible atoms/shells =      56


  Total number atoms/shells =      56

  Dimensionality = 3               :  Bulk   



  Supercell dimensions :  x =   2  y =   2  z =   2

  Cartesian lattice vectors (Angstroms) :

        9.008000    0.000000    0.000000
        0.000000    9.008000    0.000000
        0.000000    0.000000    9.008000

  Cell parameters (Angstroms/Degrees):

  a =       9.0080    alpha =  90.0000
  b =       9.0080    beta  =  90.0000
  c =       9.0080    gamma =  90.0000

  Initial cell volume =         730.945729 Angs**3

  Temperature of configuration =   0.00     K 

  Pressure of configuration =         0.000 GPa 

  Fractional coordinates of asymmetric unit :

--------------------------------------------------------------------------------
   No.  Atomic       x           y          z         Charge      Occupancy
        Label      (Frac)      (Frac)     (Frac)        (e)         (Frac)  
--------------------------------------------------------------------------------
      1 O     c    0.000000    0.000000    0.000000     0.18300    1.000000    
      2 O     c    0.000000 *  0.000000 *  0.500000 *   0.18300    1.000000    
      3 O     c    0.000000 *  0.500000 *  0.000000 *   0.18300    1.000000    
      4 O     c    0.000000 *  0.500000 *  0.500000 *   0.18300    1.000000    
      5 O     c    0.500000 *  0.000000 *  0.000000 *   0.18300    1.000000    
      6 O     c    0.500000 *  0.000000 *  0.500000 *   0.18300    1.000000    
      7 O     c    0.500000 *  0.500000 *  0.000000 *   0.18300    1.000000    
      8 O     c    0.500000 *  0.500000 *  0.500000 *   0.18300    1.000000    
      9 Cl    c    0.250000 *  0.250000 *  0.250000 *   1.48500    1.000000    
     10 Cl    c    0.250000 *  0.250000 *  0.750000 *   1.48500    1.000000    
     11 Cl    c    0.250000 *  0.750000 *  0.250000 *   1.48500    1.000000    
     12 Cl    c    0.250000 *  0.750000 *  0.750000 *   1.48500    1.000000    
     13 Cl    c    0.750000 *  0.250000 *  0.250000 *   1.48500    1.000000    
     14 Cl    c    0.750000 *  0.250000 *  0.750000 *   1.48500    1.000000    
     15 Cl    c    0.750000 *  0.750000 *  0.250000 *   1.48500    1.000000    
     16 Cl    c    0.750000 *  0.750000 *  0.750000 *   1.48500    1.000000    
     17 Na    c    0.250000 *  0.000000 *  0.000000 *   1.00000    1.000000    
     18 Na    c    0.250000 *  0.000000 *  0.500000 *   1.00000    1.000000    
     19 Na    c    0.250000 *  0.500000 *  0.000000 *   1.00000    1.000000    
     20 Na    c    0.250000 *  0.500000 *  0.500000 *   1.00000    1.000000    
     21 Na    c    0.750000 *  0.000000 *  0.000000 *   1.00000    1.000000    
     22 Na    c    0.750000 *  0.000000 *  0.500000 *   1.00000    1.000000    
     23 Na    c    0.750000 *  0.500000 *  0.000000 *   1.00000    1.000000    
     24 Na    c    0.750000 *  0.500000 *  0.500000 *   1.00000    1.000000    
     25 Na    c    0.000000 *  0.250000 *  0.000000 *   1.00000    1.000000    
     26 Na    c    0.000000 *  0.250000 *  0.500000 *   1.00000    1.000000    
     27 Na    c    0.000000 *  0.750000 *  0.000000 *   1.00000    1.000000    
     28 Na    c    0.000000 *  0.750000 *  0.500000 *   1.00000    1.000000    
     29 Na    c    0.500000 *  0.250000 *  0.000000 *   1.00000    1.000000    
     30 Na    c    0.500000 *  0.250000 *  0.500000 *   1.00000    1.000000    
     31 Na    c    0.500000 *  0.750000 *  0.000000 *   1.00000    1.000000    
     32 Na    c    0.500000 *  0.750000 *  0.500000 *   1.00000    1.000000    
     33 Na    c    0.000000 *  0.000000 *  0.250000 *   1.00000    1.000000    
     34 Na    c    0.000000 *  0.000000 *  0.750000 *   1.00000    1.000000    
     35 Na    c    0.000000 *  0.500000 *  0.250000 *   1.00000    1.000000    
     36 Na    c    0.000000 *  0.500000 *  0.750000 *   1.00000    1.000000    
     37 Na    c    0.500000 *  0.000000 *  0.250000 *   1.00000    1.000000    
     38 Na    c    0.500000 *  0.000000 *  0.750000 *   1.00000    1.000000    
     39 Na    c    0.500000 *  0.500000 *  0.250000 *   1.00000    1.000000    
     40 Na    c    0.500000 *  0.500000 *  0.750000 *   1.00000    1.000000    
     41 O     s    0.000000 *  0.000000 *  0.000000 *  -2.18300    1.000000    
     42 O     s    0.000000 *  0.000000 *  0.500000 *  -2.18300    1.000000    
     43 O     s    0.000000 *  0.500000 *  0.000000 *  -2.18300    1.000000    
     44 O     s    0.000000 *  0.500000 *  0.500000 *  -2.18300    1.000000    
     45 O     s    0.500000 *  0.000000 *  0.000000 *  -2.18300    1.000000    
     46 O     s    0.500000 *  0.000000 *  0.500000 *  -2.18300    1.000000    
     47 O     s    0.500000 *  0.500000 *  0.000000 *  -2.18300    1.000000    
     48 O     s    0.500000 *  0.500000 *  0.500000 *  -2.18300    1.000000    
     49 Cl    s    0.250000 *  0.250000 *  0.250000 *  -2.48500    1.000000    
     50 Cl    s    0.250000 *  0.250000 *  0.750000 *  -2.48500    1.000000    
     51 Cl    s    0.250000 *  0.750000 *  0.250000 *  -2.48500    1.000000    
     52 Cl    s    0.250000 *  0.750000 *  0.750000 *  -2.48500    1.000000    
     53 Cl    s    0.750000 *  0.250000 *  0.250000 *  -2.48500    1.000000    
     54 Cl    s    0.750000 *  0.250000 *  0.750000 *  -2.48500    1.000000    
     55 Cl    s    0.750000 *  0.750000 *  0.250000 *  -2.48500    1.000000    
     56 Cl    s    0.750000 *  0.750000 *  0.750000 *  -2.48500    1.000000    
--------------------------------------------------------------------------------



********************************************************************************
*  General input information                                                   *
********************************************************************************

  Species output for all configurations : 

--------------------------------------------------------------------------------
  Species    Type    Atomic    Atomic    Charge       Radii (Angs)     Library
                     Number     Mass       (e)     Cova   Ionic  VDW   Symbol
--------------------------------------------------------------------------------
    Na       Core       11      22.99   1.000000   0.970  0.000  2.300          
    O        Core        8      16.00   0.183000   0.730  0.000  1.360          
    O        Shell       8       0.00  -2.183000   0.730  0.000  1.360          
    Cl       Core       17      35.45   1.485000   0.990  0.000  1.650          
    Cl       Shell      17       0.00  -2.485000   0.990  0.000  1.650          
    Mg       Core       12      24.31   0.415000   1.100  0.000  0.000          
    Mg       Shell      12       0.00   1.585000   1.100  0.000  0.000          
    Ca       Core       20      40.08  -1.135000   0.990  0.000  0.000          
    Ca       Shell      20       0.00   3.135000   0.990  0.000  0.000          
    Sr       Core       38      87.62  -1.251000   1.120  0.000  0.000          
    Sr       Shell      38       0.00   3.251000   1.120  0.000  0.000          
    Ba       Core       56     137.33  -7.203000   1.340  0.000  0.000          
    Ba       Shell      56       0.00   9.203000   1.340  0.000  0.000          
--------------------------------------------------------------------------------


  Lattice summation method               =    Ewald          (3-D)
                                         =    Parry          (2-D)
                                         =    Saunders et al (1-D)
  Accuracy factor for lattice sums       =   12.000


  Analytic derivatives to be used

  Time limit = Infinity

  Maximum range for interatomic potentials =    100000.000000 Angstroms

  General interatomic potentials :

--------------------------------------------------------------------------------
Atom  Types   Potential      Parameter       Value         Units   Cutoffs(Ang)
  1     2                                                            Min /  Max 
--------------------------------------------------------------------------------
O    c O    s Spring (c-s)  Spring k 2       593.71600    eV*Ang^-2 0.000  0.800
                            Spring k 4       0.0000000    eV*Ang^-4 
--------------------------------------------------------------------------------
Cl   c Cl   s Spring (c-s)  Spring k 2       29.380000    eV*Ang^-2 0.000  0.800
                            Spring k 4       0.0000000    eV*Ang^-4 
--------------------------------------------------------------------------------
Mg   c Mg   s Spring (c-s)  Spring k 2       361.60000    eV*Ang^-2 0.000  0.800
                            Spring k 4       0.0000000    eV*Ang^-4 
--------------------------------------------------------------------------------
Ca   c Ca   s Spring (c-s)  Spring k 2       110.20000    eV*Ang^-2 0.000  0.800
                            Spring k 4       0.0000000    eV*Ang^-4 
--------------------------------------------------------------------------------
Sr   c Sr   s Spring (c-s)  Spring k 2       71.700000    eV*Ang^-2 0.000  0.800
                            Spring k 4       0.0000000    eV*Ang^-4 
--------------------------------------------------------------------------------
Ba   c Ba   s Spring (c-s)  Spring k 2       495.20000    eV*Ang^-2 0.000  0.800
                            Spring k 4       0.0000000    eV*Ang^-4 
--------------------------------------------------------------------------------
Na   c Na   c Buckingham    Buckingham A     1788.1900    eV        0.000 12.000
                            Buckingham rho  0.15900000    Ang       
                            Buckingham C     0.0000000    eV*Ang^6  
--------------------------------------------------------------------------------
Na   c O    s Buckingham    Buckingham A     588.38000    eV        0.000 12.000
                            Buckingham rho  0.33800000    Ang       
                            Buckingham C     0.0000000    eV*Ang^6  
--------------------------------------------------------------------------------
Na   c Cl   s Buckingham    Buckingham A     1170.4100    eV        0.000 12.000
                            Buckingham rho  0.31500000    Ang       
                            Buckingham C     0.0000000    eV*Ang^6  
--------------------------------------------------------------------------------
O    s O    s Buckingham    Buckingham A     22764.300    eV        0.000 12.000
                            Buckingham rho  0.14900000    Ang       
                            Buckingham C     13.190000    eV*Ang^6  
--------------------------------------------------------------------------------
O    s Cl   s Buckingham    Buckingham A     8286.9100    eV        0.000 12.000
                            Buckingham rho  0.25900000    Ang       
                            Buckingham C     62.200000    eV*Ang^6  
--------------------------------------------------------------------------------
Cl   s Cl   s Buckingham    Buckingham A     1227.2000    eV        0.000 12.000
                            Buckingham rho  0.32100000    Ang       
                            Buckingham C     14.530000    eV*Ang^6  
--------------------------------------------------------------------------------
O    s Mg   s Buckingham    Buckingham A     1428.5000    eV        0.000 12.000
                            Buckingham rho  0.29450000    Ang       
                            Buckingham C     0.0000000    eV*Ang^6  
--------------------------------------------------------------------------------
Mg   s Cl   s Buckingham    Buckingham A     4914.5400    eV        0.000 12.000
                            Buckingham rho  0.25700000    Ang       
                            Buckingham C     0.0000000    eV*Ang^6  
--------------------------------------------------------------------------------
O    s Ca   s Buckingham    Buckingham A     1090.4000    eV        0.000 12.000
                            Buckingham rho  0.34370000    Ang       
                            Buckingham C     0.0000000    eV*Ang^6  
--------------------------------------------------------------------------------
Cl   s Ca   s Buckingham    Buckingham A     2302.0000    eV        0.000 12.000
                            Buckingham rho  0.34020000    Ang       
                            Buckingham C     0.0000000    eV*Ang^6  
--------------------------------------------------------------------------------
O    s Sr   s Buckingham    Buckingham A     959.10000    eV        0.000 12.000
                            Buckingham rho  0.37210000    Ang       
                            Buckingham C     0.0000000    eV*Ang^6  
--------------------------------------------------------------------------------
Cl   s Sr   s Buckingham    Buckingham A     2191.0900    eV        0.000 12.000
                            Buckingham rho  0.34570000    Ang       
                            Buckingham C     0.0000000    eV*Ang^6  
--------------------------------------------------------------------------------
O    s Ba   s Buckingham    Buckingham A     905.70000    eV        0.000 12.000
                            Buckingham rho  0.39760000    Ang       
                            Buckingham C     0.0000000    eV*Ang^6  
--------------------------------------------------------------------------------
Cl   s Ba   s Buckingham    Buckingham A     2704.5500    eV        0.000 12.000
                            Buckingham rho  0.35280000    Ang       
                            Buckingham C     0.0000000    eV*Ang^6  
--------------------------------------------------------------------------------

********************************************************************************
*  Output for configuration   1                                                *
********************************************************************************


  Components of energy : 

--------------------------------------------------------------------------------
  Interatomic potentials     =          39.54523045 eV    
  Monopole - monopole (real) =        -173.49412932 eV    
  Monopole - monopole (recip)=        -143.08233464 eV    
  Monopole - monopole (total)=        -316.57646396 eV    
--------------------------------------------------------------------------------
  Total lattice energy       =        -277.03123351 eV    
--------------------------------------------------------------------------------
  Total lattice energy       =          -26729.2792 kJ/(mole unit cells)
--------------------------------------------------------------------------------


  Number of variables =      171

  Maximum number of calculations  =          1000
  Maximum Hessian update interval =            10
  Maximum step size               =   1.000000000
  Maximum parameter tolerance     =   0.000010000
  Maximum function  tolerance     =   0.000010000
  Maximum gradient  tolerance     =   0.001000000
  Maximum gradient  component     =   0.010000000

  Cell parameters to be optimised using strains

  Newton-Raphson optimiser to be used

  BFGS hessian update to be used

  Lower half triangular hessian to be used

  Start of bulk optimisation :

  Cycle:      0 Energy:      -277.031234  Gnorm:      0.116908  CPU:    0.095
  ** Hessian calculated **
  Cycle:      1 Energy:      -277.421334  Gnorm:      0.001189  CPU:    0.189
  Cycle:      2 Energy:      -277.421371  Gnorm:      0.000099  CPU:    0.264


  **** Optimisation achieved ****


  Final energy =    -277.42137089 eV
  Final Gnorm  =       0.00000000

  Components of energy : 

--------------------------------------------------------------------------------
  Interatomic potentials     =          46.20368827 eV    
  Monopole - monopole (real) =        -177.35698719 eV    
  Monopole - monopole (recip)=        -146.26807197 eV    
  Monopole - monopole (total)=        -323.62505916 eV    
--------------------------------------------------------------------------------
  Total lattice energy       =        -277.42137089 eV    
--------------------------------------------------------------------------------
  Total lattice energy       =          -26766.9215 kJ/(mole unit cells)
--------------------------------------------------------------------------------

  Final fractional coordinates of atoms :

--------------------------------------------------------------------------------
   No.  Atomic        x           y          z          Radius
        Label       (Frac)      (Frac)     (Frac)       (Angs) 
--------------------------------------------------------------------------------
     1  O     c     0.000000    0.000000    0.000000    0.000000
     2  O     c     0.000000    0.000000    0.500000    0.000000
     3  O     c     1.000000    0.500000    1.000000    0.000000
     4  O     c     0.000000    0.500000    0.500000    0.000000
     5  O     c     0.500000    0.000000    1.000000    0.000000
     6  O     c     0.500000    0.000000    0.500000    0.000000
     7  O     c     0.500000    0.500000    1.000000    0.000000
     8  O     c     0.500000    0.500000    0.500000    0.000000
     9  Cl    c     0.250000    0.250000    0.250000    0.000000
    10  Cl    c     0.250000    0.250000    0.750000    0.000000
    11  Cl    c     0.250000    0.750000    0.250000    0.000000
    12  Cl    c     0.250000    0.750000    0.750000    0.000000
    13  Cl    c     0.750000    0.250000    0.250000    0.000000
    14  Cl    c     0.750000    0.250000    0.750000    0.000000
    15  Cl    c     0.750000    0.750000    0.250000    0.000000
    16  Cl    c     0.750000    0.750000    0.750000    0.000000
    17  Na    c     0.250000    0.000000    1.000000    0.000000
    18  Na    c     0.250000    0.000000    0.500000    0.000000
    19  Na    c     0.250000    0.500000    1.000000    0.000000
    20  Na    c     0.250000    0.500000    0.500000    0.000000
    21  Na    c     0.750000    1.000000    0.000000    0.000000
    22  Na    c     0.750000    1.000000    0.500000    0.000000
    23  Na    c     0.750000    0.500000    0.000000    0.000000
    24  Na    c     0.750000    0.500000    0.500000    0.000000
    25  Na    c     1.000000    0.250000    0.000000    0.000000
    26  Na    c     1.000000    0.250000    0.500000    0.000000
    27  Na    c     0.000000    0.750000    1.000000    0.000000
    28  Na    c     0.000000    0.750000    0.500000    0.000000
    29  Na    c     0.500000    0.250000    1.000000    0.000000
    30  Na    c     0.500000    0.250000    0.500000    0.000000
    31  Na    c     0.500000    0.750000    0.000000    0.000000
    32  Na    c     0.500000    0.750000    0.500000    0.000000
    33  Na    c     0.000000    1.000000    0.250000    0.000000
    34  Na    c     1.000000    0.000000    0.750000    0.000000
    35  Na    c     0.000000    0.500000    0.250000    0.000000
    36  Na    c     1.000000    0.500000    0.750000    0.000000
    37  Na    c     0.500000    0.000000    0.250000    0.000000
    38  Na    c     0.500000    1.000000    0.750000    0.000000
    39  Na    c     0.500000    0.500000    0.250000    0.000000
    40  Na    c     0.500000    0.500000    0.750000    0.000000
    41  O     s     0.000000    0.000000    0.000000    0.000000
    42  O     s     0.000000    0.000000    0.500000    0.000000
    43  O     s     1.000000    0.500000    1.000000    0.000000
    44  O     s     0.000000    0.500000    0.500000    0.000000
    45  O     s     0.500000    0.000000    1.000000    0.000000
    46  O     s     0.500000    0.000000    0.500000    0.000000
    47  O     s     0.500000    0.500000    1.000000    0.000000
    48  O     s     0.500000    0.500000    0.500000    0.000000
    49  Cl    s     0.250000    0.250000    0.250000    0.000000
    50  Cl    s     0.250000    0.250000    0.750000    0.000000
    51  Cl    s     0.250000    0.750000    0.250000    0.000000
    52  Cl    s     0.250000    0.750000    0.750000    0.000000
    53  Cl    s     0.750000    0.250000    0.250000    0.000000
    54  Cl    s     0.750000    0.250000    0.750000    0.000000
    55  Cl    s     0.750000    0.750000    0.250000    0.000000
    56  Cl    s     0.750000    0.750000    0.750000    0.000000
--------------------------------------------------------------------------------

  Final Cartesian lattice vectors (Angstroms) :

        8.811805   -0.000000    0.000000
       -0.000000    8.811805   -0.000000
        0.000000   -0.000000    8.811805


  Final cell parameters and derivatives :

--------------------------------------------------------------------------------
       a            8.811805 Angstrom     dE/de1(xx)     0.000000 eV/strain
       b            8.811805 Angstrom     dE/de2(yy)     0.000000 eV/strain
       c            8.811805 Angstrom     dE/de3(zz)     0.000000 eV/strain
       alpha       90.000000 Degrees      dE/de4(yz)    -0.000000 eV/strain
       beta        90.000000 Degrees      dE/de5(xz)     0.000000 eV/strain
       gamma       90.000000 Degrees      dE/de6(xy)    -0.000000 eV/strain
--------------------------------------------------------------------------------

  Primitive cell volume =           684.218127 Angs**3

  Density of cell =      2.338030 g/cm**3

  Non-primitive cell volume =           684.218127 Angs**3


  Final internal derivatives :

--------------------------------------------------------------------------------
   No.  Atomic          a             b             c           Radius
        Label          (eV)          (eV)          (eV)        (eV/Angs)
--------------------------------------------------------------------------------
      1 O     c       0.000000      0.000000      0.000000      0.000000
      2 O     c       0.000000     -0.000000     -0.000000      0.000000
      3 O     c      -0.000000      0.000000      0.000000      0.000000
      4 O     c       0.000000      0.000000      0.000000      0.000000
      5 O     c       0.000000     -0.000000     -0.000000      0.000000
      6 O     c      -0.000000     -0.000000     -0.000000      0.000000
      7 O     c       0.000000      0.000000     -0.000000      0.000000
      8 O     c      -0.000000      0.000000     -0.000000      0.000000
      9 Cl    c      -0.000000     -0.000000     -0.000000      0.000000
     10 Cl    c      -0.000000     -0.000000      0.000000      0.000000
     11 Cl    c      -0.000000      0.000000      0.000000      0.000000
     12 Cl    c      -0.000000      0.000000     -0.000000      0.000000
     13 Cl    c       0.000000      0.000000      0.000000      0.000000
     14 Cl    c       0.000000     -0.000000     -0.000000      0.000000
     15 Cl    c      -0.000000      0.000000     -0.000000      0.000000
     16 Cl    c      -0.000000      0.000000      0.000000      0.000000
     17 Na    c       0.000000     -0.000000      0.000000      0.000000
     18 Na    c      -0.000000     -0.000000     -0.000000      0.000000
     19 Na    c      -0.000000      0.000000      0.000000      0.000000
     20 Na    c      -0.000000      0.000000     -0.000000      0.000000
     21 Na    c      -0.000000      0.000000     -0.000000      0.000000
     22 Na    c      -0.000000      0.000000     -0.000000      0.000000
     23 Na    c      -0.000000     -0.000000      0.000000      0.000000
     24 Na    c       0.000000     -0.000000     -0.000000      0.000000
     25 Na    c       0.000000     -0.000000     -0.000000      0.000000
     26 Na    c       0.000000     -0.000000     -0.000000      0.000000
     27 Na    c      -0.000000     -0.000000      0.000000      0.000000
     28 Na    c      -0.000000      0.000000     -0.000000      0.000000
     29 Na    c      -0.000000     -0.000000     -0.000000      0.000000
     30 Na    c      -0.000000     -0.000000      0.000000      0.000000
     31 Na    c       0.000000      0.000000     -0.000000      0.000000
     32 Na    c       0.000000      0.000000     -0.000000      0.000000
     33 Na    c      -0.000000     -0.000000      0.000000      0.000000
     34 Na    c      -0.000000      0.000000     -0.000000      0.000000
     35 Na    c       0.000000      0.000000     -0.000000      0.000000
     36 Na    c       0.000000     -0.000000     -0.000000      0.000000
     37 Na    c      -0.000000     -0.000000      0.000000      0.000000
     38 Na    c       0.000000      0.000000     -0.000000      0.000000
     39 Na    c      -0.000000      0.000000      0.000000      0.000000
     40 Na    c      -0.000000     -0.000000     -0.000000      0.000000
     41 O     s      -0.000000      0.000000     -0.000000      0.000000
     42 O     s      -0.000000      0.000000      0.000000      0.000000
     43 O     s       0.000000     -0.000000     -0.000000      0.000000
     44 O     s      -0.000000      0.000000      0.000000      0.000000
     45 O     s       0.000000      0.000000     -0.000000      0.000000
     46 O     s       0.000000     -0.000000      0.000000      0.000000
     47 O     s       0.000000      0.000000     -0.000000      0.000000
     48 O     s       0.000000      0.000000     -0.000000      0.000000
     49 Cl    s       0.000000      0.000000     -0.000000      0.000000
     50 Cl    s      -0.000000     -0.000000     -0.000000      0.000000
     51 Cl    s       0.000000     -0.000000     -0.000000      0.000000
     52 Cl    s       0.000000     -0.000000      0.000000      0.000000
     53 Cl    s      -0.000000      0.000000     -0.000000      0.000000
     54 Cl    s      -0.000000      0.000000      0.000000      0.000000
     55 Cl    s      -0.000000     -0.000000      0.000000      0.000000
     56 Cl    s      -0.000000     -0.000000     -0.000000      0.000000
--------------------------------------------------------------------------------
  Maximum abs         0.000000      0.000000      0.000000      0.000000
--------------------------------------------------------------------------------

  Comparison of initial and final structures : 

--------------------------------------------------------------------------------
  Parameter   Initial value   Final value   Difference    Units      Percent
--------------------------------------------------------------------------------
    Volume       730.945729    684.218127   -46.727602    Angs**3     -6.39
    a              9.008000      8.811805    -0.196195    Angstroms   -2.18
    b              9.008000      8.811805    -0.196195    Angstroms   -2.18
    c              9.008000      8.811805    -0.196195    Angstroms   -2.18
    alpha         90.000000     90.000000     0.000000    Degrees      0.00
    beta          90.000000     90.000000     0.000000    Degrees      0.00
    gamma         90.000000     90.000000     0.000000    Degrees      0.00
      1 x          0.000000      0.000000     0.000000    Fractional   0.00
      1 y          0.000000      0.000000     0.000000    Fractional   0.00
      1 z          0.000000      0.000000     0.000000    Fractional   0.00
      2 x          0.000000      0.000000     0.000000    Fractional   0.00
      2 y          0.000000      0.000000     0.000000    Fractional   0.00
      2 z          0.500000      0.500000     0.000000    Fractional   0.00
      3 x          0.000000      1.000000     1.000000    Fractional   0.00
      3 y          0.500000      0.500000     0.000000    Fractional   0.00
      3 z          0.000000      1.000000     1.000000    Fractional   0.00
      4 x          0.000000      0.000000     0.000000    Fractional   0.00
      4 y          0.500000      0.500000     0.000000    Fractional   0.00
      4 z          0.500000      0.500000     0.000000    Fractional   0.00
      5 x          0.500000      0.500000     0.000000    Fractional   0.00
      5 y          0.000000      0.000000     0.000000    Fractional   0.00
      5 z          0.000000      1.000000     1.000000    Fractional   0.00
      6 x          0.500000      0.500000     0.000000    Fractional   0.00
      6 y          0.000000      0.000000     0.000000    Fractional   0.00
      6 z          0.500000      0.500000     0.000000    Fractional   0.00
      7 x          0.500000      0.500000     0.000000    Fractional   0.00
      7 y          0.500000      0.500000     0.000000    Fractional   0.00
      7 z          0.000000      1.000000     1.000000    Fractional   0.00
      8 x          0.500000      0.500000     0.000000    Fractional   0.00
      8 y          0.500000      0.500000     0.000000    Fractional   0.00
      8 z          0.500000      0.500000     0.000000    Fractional   0.00
      9 x          0.250000      0.250000     0.000000    Fractional   0.00
      9 y          0.250000      0.250000     0.000000    Fractional   0.00
      9 z          0.250000      0.250000     0.000000    Fractional   0.00
     10 x          0.250000      0.250000     0.000000    Fractional   0.00
     10 y          0.250000      0.250000     0.000000    Fractional   0.00
     10 z          0.750000      0.750000     0.000000    Fractional   0.00
     11 x          0.250000      0.250000     0.000000    Fractional   0.00
     11 y          0.750000      0.750000     0.000000    Fractional   0.00
     11 z          0.250000      0.250000     0.000000    Fractional   0.00
     12 x          0.250000      0.250000     0.000000    Fractional   0.00
     12 y          0.750000      0.750000     0.000000    Fractional   0.00
     12 z          0.750000      0.750000     0.000000    Fractional   0.00
     13 x          0.750000      0.750000     0.000000    Fractional   0.00
     13 y          0.250000      0.250000     0.000000    Fractional   0.00
     13 z          0.250000      0.250000     0.000000    Fractional   0.00
     14 x          0.750000      0.750000     0.000000    Fractional   0.00
     14 y          0.250000      0.250000     0.000000    Fractional   0.00
     14 z          0.750000      0.750000     0.000000    Fractional   0.00
     15 x          0.750000      0.750000     0.000000    Fractional   0.00
     15 y          0.750000      0.750000     0.000000    Fractional   0.00
     15 z          0.250000      0.250000     0.000000    Fractional   0.00
     16 x          0.750000      0.750000     0.000000    Fractional   0.00
     16 y          0.750000      0.750000     0.000000    Fractional   0.00
     16 z          0.750000      0.750000     0.000000    Fractional   0.00
     17 x          0.250000      0.250000     0.000000    Fractional   0.00
     17 y          0.000000      0.000000     0.000000    Fractional   0.00
     17 z          0.000000      1.000000     1.000000    Fractional   0.00
     18 x          0.250000      0.250000     0.000000    Fractional   0.00
     18 y          0.000000      0.000000     0.000000    Fractional   0.00
     18 z          0.500000      0.500000     0.000000    Fractional   0.00
     19 x          0.250000      0.250000     0.000000    Fractional   0.00
     19 y          0.500000      0.500000     0.000000    Fractional   0.00
     19 z          0.000000      1.000000     1.000000    Fractional   0.00
     20 x          0.250000      0.250000     0.000000    Fractional   0.00
     20 y          0.500000      0.500000     0.000000    Fractional   0.00
     20 z          0.500000      0.500000     0.000000    Fractional   0.00
     21 x          0.750000      0.750000     0.000000    Fractional   0.00
     21 y          0.000000      1.000000     1.000000    Fractional   0.00
     21 z          0.000000      0.000000     0.000000    Fractional   0.00
     22 x          0.750000      0.750000     0.000000    Fractional   0.00
     22 y          0.000000      1.000000     1.000000    Fractional   0.00
     22 z          0.500000      0.500000     0.000000    Fractional   0.00
     23 x          0.750000      0.750000     0.000000    Fractional   0.00
     23 y          0.500000      0.500000     0.000000    Fractional   0.00
     23 z          0.000000      0.000000     0.000000    Fractional   0.00
     24 x          0.750000      0.750000     0.000000    Fractional   0.00
     24 y          0.500000      0.500000     0.000000    Fractional   0.00
     24 z          0.500000      0.500000     0.000000    Fractional   0.00
     25 x          0.000000      1.000000     1.000000    Fractional   0.00
     25 y          0.250000      0.250000     0.000000    Fractional   0.00
     25 z          0.000000      0.000000     0.000000    Fractional   0.00
     26 x          0.000000      1.000000     1.000000    Fractional   0.00
     26 y          0.250000      0.250000     0.000000    Fractional   0.00
     26 z          0.500000      0.500000     0.000000    Fractional   0.00
     27 x          0.000000      0.000000     0.000000    Fractional   0.00
     27 y          0.750000      0.750000     0.000000    Fractional   0.00
     27 z          0.000000      1.000000     1.000000    Fractional   0.00
     28 x          0.000000      0.000000     0.000000    Fractional   0.00
     28 y          0.750000      0.750000     0.000000    Fractional   0.00
     28 z          0.500000      0.500000     0.000000    Fractional   0.00
     29 x          0.500000      0.500000     0.000000    Fractional   0.00
     29 y          0.250000      0.250000     0.000000    Fractional   0.00
     29 z          0.000000      1.000000     1.000000    Fractional   0.00
     30 x          0.500000      0.500000     0.000000    Fractional   0.00
     30 y          0.250000      0.250000     0.000000    Fractional   0.00
     30 z          0.500000      0.500000     0.000000    Fractional   0.00
     31 x          0.500000      0.500000     0.000000    Fractional   0.00
     31 y          0.750000      0.750000     0.000000    Fractional   0.00
     31 z          0.000000      0.000000     0.000000    Fractional   0.00
     32 x          0.500000      0.500000     0.000000    Fractional   0.00
     32 y          0.750000      0.750000     0.000000    Fractional   0.00
     32 z          0.500000      0.500000     0.000000    Fractional   0.00
     33 x          0.000000      0.000000     0.000000    Fractional   0.00
     33 y          0.000000      1.000000     1.000000    Fractional   0.00
     33 z          0.250000      0.250000     0.000000    Fractional   0.00
     34 x          0.000000      1.000000     1.000000    Fractional   0.00
     34 y          0.000000      0.000000     0.000000    Fractional   0.00
     34 z          0.750000      0.750000     0.000000    Fractional   0.00
     35 x          0.000000      0.000000     0.000000    Fractional   0.00
     35 y          0.500000      0.500000     0.000000    Fractional   0.00
     35 z          0.250000      0.250000     0.000000    Fractional   0.00
     36 x          0.000000      1.000000     1.000000    Fractional   0.00
     36 y          0.500000      0.500000     0.000000    Fractional   0.00
     36 z          0.750000      0.750000     0.000000    Fractional   0.00
     37 x          0.500000      0.500000     0.000000    Fractional   0.00
     37 y          0.000000      0.000000     0.000000    Fractional   0.00
     37 z          0.250000      0.250000     0.000000    Fractional   0.00
     38 x          0.500000      0.500000     0.000000    Fractional   0.00
     38 y          0.000000      1.000000     1.000000    Fractional   0.00
     38 z          0.750000      0.750000     0.000000    Fractional   0.00
     39 x          0.500000      0.500000     0.000000    Fractional   0.00
     39 y          0.500000      0.500000     0.000000    Fractional   0.00
     39 z          0.250000      0.250000     0.000000    Fractional   0.00
     40 x          0.500000      0.500000     0.000000    Fractional   0.00
     40 y          0.500000      0.500000     0.000000    Fractional   0.00
     40 z          0.750000      0.750000     0.000000    Fractional   0.00
     41 x          0.000000      0.000000     0.000000    Fractional   0.00
     41 y          0.000000      0.000000     0.000000    Fractional   0.00
     41 z          0.000000      0.000000     0.000000    Fractional   0.00
     42 x          0.000000      0.000000     0.000000    Fractional   0.00
     42 y          0.000000      0.000000     0.000000    Fractional   0.00
     42 z          0.500000      0.500000     0.000000    Fractional   0.00
     43 x          0.000000      1.000000     1.000000    Fractional   0.00
     43 y          0.500000      0.500000     0.000000    Fractional   0.00
     43 z          0.000000      1.000000     1.000000    Fractional   0.00
     44 x          0.000000      0.000000     0.000000    Fractional   0.00
     44 y          0.500000      0.500000     0.000000    Fractional   0.00
     44 z          0.500000      0.500000     0.000000    Fractional   0.00
     45 x          0.500000      0.500000     0.000000    Fractional   0.00
     45 y          0.000000      0.000000     0.000000    Fractional   0.00
     45 z          0.000000      1.000000     1.000000    Fractional   0.00
     46 x          0.500000      0.500000     0.000000    Fractional   0.00
     46 y          0.000000      0.000000     0.000000    Fractional   0.00
     46 z          0.500000      0.500000     0.000000    Fractional   0.00
     47 x          0.500000      0.500000     0.000000    Fractional   0.00
     47 y          0.500000      0.500000     0.000000    Fractional   0.00
     47 z          0.000000      1.000000     1.000000    Fractional   0.00
     48 x          0.500000      0.500000     0.000000    Fractional   0.00
     48 y          0.500000      0.500000     0.000000    Fractional   0.00
     48 z          0.500000      0.500000     0.000000    Fractional   0.00
     49 x          0.250000      0.250000     0.000000    Fractional   0.00
     49 y          0.250000      0.250000     0.000000    Fractional   0.00
     49 z          0.250000      0.250000     0.000000    Fractional   0.00
     50 x          0.250000      0.250000     0.000000    Fractional   0.00
     50 y          0.250000      0.250000     0.000000    Fractional   0.00
     50 z          0.750000      0.750000     0.000000    Fractional   0.00
     51 x          0.250000      0.250000     0.000000    Fractional   0.00
     51 y          0.750000      0.750000     0.000000    Fractional   0.00
     51 z          0.250000      0.250000     0.000000    Fractional   0.00
     52 x          0.250000      0.250000     0.000000    Fractional   0.00
     52 y          0.750000      0.750000     0.000000    Fractional   0.00
     52 z          0.750000      0.750000     0.000000    Fractional   0.00
     53 x          0.750000      0.750000     0.000000    Fractional   0.00
     53 y          0.250000      0.250000     0.000000    Fractional   0.00
     53 z          0.250000      0.250000     0.000000    Fractional   0.00
     54 x          0.750000      0.750000     0.000000    Fractional   0.00
     54 y          0.250000      0.250000     0.000000    Fractional   0.00
     54 z          0.750000      0.750000     0.000000    Fractional   0.00
     55 x          0.750000      0.750000     0.000000    Fractional   0.00
     55 y          0.750000      0.750000     0.000000    Fractional   0.00
     55 z          0.250000      0.250000     0.000000    Fractional   0.00
     56 x          0.750000      0.750000     0.000000    Fractional   0.00
     56 y          0.750000      0.750000     0.000000    Fractional   0.00
     56 z          0.750000      0.750000     0.000000    Fractional   0.00
--------------------------------------------------------------------------------


  Born effective charge tensors : 

-------------------------------------------------------------------------------
  Atom             x           y             z
-------------------------------------------------------------------------------
    1 O     x      -2.2939      0.0000     -0.0000
            y      -0.0000     -2.2939     -0.0000
            z      -0.0000     -0.0000     -2.2939
-------------------------------------------------------------------------------
    2 O     x      -2.2939      0.0000      0.0000
            y      -0.0000     -2.2939      0.0000
            z       0.0000      0.0000     -2.2939
-------------------------------------------------------------------------------
    3 O     x      -2.2939     -0.0000      0.0000
            y       0.0000     -2.2939      0.0000
            z       0.0000      0.0000     -2.2939
-------------------------------------------------------------------------------
    4 O     x      -2.2939     -0.0000      0.0000
            y       0.0000     -2.2939     -0.0000
            z       0.0000     -0.0000     -2.2939
-------------------------------------------------------------------------------
    5 O     x      -2.2939     -0.0000      0.0000
            y       0.0000     -2.2939     -0.0000
            z       0.0000     -0.0000     -2.2939
-------------------------------------------------------------------------------
    6 O     x      -2.2939     -0.0000      0.0000
            y       0.0000     -2.2939     -0.0000
            z       0.0000      0.0000     -2.2939
-------------------------------------------------------------------------------
    7 O     x      -2.2939      0.0000      0.0000
            y      -0.0000     -2.2939      0.0000
            z       0.0000     -0.0000     -2.2939
-------------------------------------------------------------------------------
    8 O     x      -2.2939      0.0000      0.0000
            y      -0.0000     -2.2939     -0.0000
            z       0.0000     -0.0000     -2.2939
-------------------------------------------------------------------------------
    9 Cl    x      -0.9918      0.0000     -0.0000
            y       0.0000     -0.9918     -0.0000
            z      -0.0000     -0.0000     -0.9918
-------------------------------------------------------------------------------
   10 Cl    x      -0.9918      0.0000      0.0000
            y       0.0000     -0.9918      0.0000
            z       0.0000      0.0000     -0.9918
-------------------------------------------------------------------------------
   11 Cl    x      -0.9918     -0.0000     -0.0000
            y      -0.0000     -0.9918     -0.0000
            z      -0.0000     -0.0000     -0.9918
-------------------------------------------------------------------------------
   12 Cl    x      -0.9918      0.0000      0.0000
            y       0.0000     -0.9918     -0.0000
            z       0.0000     -0.0000     -0.9918
-------------------------------------------------------------------------------
   13 Cl    x      -0.9918      0.0000     -0.0000
            y      -0.0000     -0.9918      0.0000
            z       0.0000      0.0000     -0.9918
-------------------------------------------------------------------------------
   14 Cl    x      -0.9918      0.0000     -0.0000
            y       0.0000     -0.9918      0.0000
            z      -0.0000      0.0000     -0.9918
-------------------------------------------------------------------------------
   15 Cl    x      -0.9918      0.0000     -0.0000
            y       0.0000     -0.9918     -0.0000
            z      -0.0000     -0.0000     -0.9918
-------------------------------------------------------------------------------
   16 Cl    x      -0.9918      0.0000      0.0000
            y       0.0000     -0.9918      0.0000
            z       0.0000      0.0000     -0.9918
-------------------------------------------------------------------------------
   17 Na    x       0.8372     -0.0000      0.0000
            y      -0.0000      1.2243      0.0000
            z       0.0000      0.0000      1.2243
-------------------------------------------------------------------------------
   18 Na    x       0.8372     -0.0000      0.0000
            y      -0.0000      1.2243     -0.0000
            z      -0.0000      0.0000      1.2243
-------------------------------------------------------------------------------
   19 Na    x       0.8372     -0.0000      0.0000
            y      -0.0000      1.2243     -0.0000
            z       0.0000     -0.0000      1.2243
-------------------------------------------------------------------------------
   20 Na    x       0.8372     -0.0000      0.0000
            y      -0.0000      1.2243      0.0000
            z       0.0000      0.0000      1.2243
-------------------------------------------------------------------------------
   21 Na    x       0.8372     -0.0000      0.0000
            y       0.0000      1.2243     -0.0000
            z       0.0000      0.0000      1.2243
-------------------------------------------------------------------------------
   22 Na    x       0.8372      0.0000      0.0000
            y       0.0000      1.2243      0.0000
            z       0.0000      0.0000      1.2243
-------------------------------------------------------------------------------
   23 Na    x       0.8372     -0.0000     -0.0000
            y      -0.0000      1.2243      0.0000
            z      -0.0000     -0.0000      1.2243
-------------------------------------------------------------------------------
   24 Na    x       0.8372     -0.0000      0.0000
            y      -0.0000      1.2243      0.0000
            z       0.0000      0.0000      1.2243
-------------------------------------------------------------------------------
   25 Na    x       1.2243     -0.0000     -0.0000
            y      -0.0000      0.8372     -0.0000
            z      -0.0000     -0.0000      1.2243
-------------------------------------------------------------------------------
   26 Na    x       1.2243     -0.0000     -0.0000
            y      -0.0000      0.8372     -0.0000
            z      -0.0000     -0.0000      1.2243
-------------------------------------------------------------------------------
   27 Na    x       1.2243      0.0000     -0.0000
            y       0.0000      0.8372      0.0000
            z      -0.0000      0.0000      1.2243
-------------------------------------------------------------------------------
   28 Na    x       1.2243      0.0000     -0.0000
            y       0.0000      0.8372     -0.0000
            z      -0.0000     -0.0000      1.2243
-------------------------------------------------------------------------------
   29 Na    x       1.2243      0.0000     -0.0000
            y      -0.0000      0.8372     -0.0000
            z      -0.0000     -0.0000      1.2243
-------------------------------------------------------------------------------
   30 Na    x       1.2243     -0.0000     -0.0000
            y      -0.0000      0.8372     -0.0000
            z      -0.0000     -0.0000      1.2243
-------------------------------------------------------------------------------
   31 Na    x       1.2243     -0.0000     -0.0000
            y      -0.0000      0.8372      0.0000
            z      -0.0000      0.0000      1.2243
-------------------------------------------------------------------------------
   32 Na    x       1.2243     -0.0000     -0.0000
            y      -0.0000      0.8372     -0.0000
            z      -0.0000     -0.0000      1.2243
-------------------------------------------------------------------------------
   33 Na    x       1.2243     -0.0000      0.0000
            y       0.0000      1.2243     -0.0000
            z       0.0000      0.0000      0.8372
-------------------------------------------------------------------------------
   34 Na    x       1.2243     -0.0000     -0.0000
            y       0.0000      1.2243     -0.0000
            z      -0.0000     -0.0000      0.8372
-------------------------------------------------------------------------------
   35 Na    x       1.2243      0.0000      0.0000
            y      -0.0000      1.2243     -0.0000
            z       0.0000      0.0000      0.8372
-------------------------------------------------------------------------------
   36 Na    x       1.2243      0.0000      0.0000
            y      -0.0000      1.2243      0.0000
            z       0.0000      0.0000      0.8372
-------------------------------------------------------------------------------
   37 Na    x       1.2243      0.0000      0.0000
            y      -0.0000      1.2243     -0.0000
            z       0.0000     -0.0000      0.8372
-------------------------------------------------------------------------------
   38 Na    x       1.2243      0.0000      0.0000
            y      -0.0000      1.2243     -0.0000
            z       0.0000     -0.0000      0.8372
-------------------------------------------------------------------------------
   39 Na    x       1.2243     -0.0000      0.0000
            y       0.0000      1.2243     -0.0000
            z       0.0000     -0.0000      0.8372
-------------------------------------------------------------------------------
   40 Na    x       1.2243     -0.0000      0.0000
            y       0.0000      1.2243      0.0000
            z       0.0000      0.0000      0.8372
-------------------------------------------------------------------------------




  Elastic Constant Matrix: (Units=GPa)

-------------------------------------------------------------------------------
  Indices      1         2         3         4         5         6    
-------------------------------------------------------------------------------
       1     82.7680   24.3534   24.3534   -0.0000    0.0000   -0.0000
       2     24.3534   82.7680   24.3534   -0.0000   -0.0000    0.0000
       3     24.3534   24.3534   82.7680   -0.0000    0.0000    0.0000
       4     -0.0000   -0.0000   -0.0000   24.3534    0.0000   -0.0000
       5      0.0000   -0.0000    0.0000    0.0000   24.3534   -0.0000
       6     -0.0000    0.0000    0.0000   -0.0000   -0.0000   24.3534
-------------------------------------------------------------------------------


  Elastic Compliance Matrix: (Units=1/GPa)

-------------------------------------------------------------------------------
  Indices      1         2         3         4         5         6    
-------------------------------------------------------------------------------
       1    0.013948 -0.003171 -0.003171 -0.000000 -0.000000  0.000000
       2   -0.003171  0.013948 -0.003171  0.000000  0.000000 -0.000000
       3   -0.003171 -0.003171  0.013948  0.000000 -0.000000 -0.000000
       4   -0.000000  0.000000  0.000000  0.041062 -0.000000  0.000000
       5   -0.000000  0.000000 -0.000000 -0.000000  0.041062  0.000000
       6    0.000000 -0.000000 -0.000000  0.000000  0.000000  0.041062
-------------------------------------------------------------------------------

  Mechanical properties :

-------------------------------------------------------------------------------
  Convention :                    Reuss         Voigt         Hill
-------------------------------------------------------------------------------
  Bulk  Modulus (GPa)     =      43.82493      43.82493      43.82493
  Shear Modulus (GPa)     =      26.08758      26.29496      26.19127
-------------------------------------------------------------------------------
  Velocity S-wave (km/s)  =       3.34035       3.35360       3.34698
  Velocity P-wave (km/s)  =       5.79842       5.80861       5.80351
-------------------------------------------------------------------------------
  Compressibility (1/GPa) =    0.02281806
-------------------------------------------------------------------------------
  Stress axis :                     x             y             z
-------------------------------------------------------------------------------
  Youngs Moduli (GPa)     =      71.69479      71.69479      71.69479
-------------------------------------------------------------------------------
  Poissons Ratio (x)      =                     0.22734       0.22734
  Poissons Ratio (y)      =       0.22734                     0.22734
  Poissons Ratio (z)      =       0.22734       0.22734
-------------------------------------------------------------------------------


  Piezoelectric Strain Matrix: (Units=C/m**2)

-------------------------------------------------------------------------------
  Indices      1         2         3         4         5         6    
-------------------------------------------------------------------------------
       x    -0.00000   0.00000   0.00000   0.00000   0.00000   0.00000
       y     0.00000   0.00000   0.00000   0.00000   0.00000   0.00000
       z     0.00000  -0.00000   0.00000   0.00000   0.00000   0.00000
-------------------------------------------------------------------------------


  Piezoelectric Stress Matrix: (Units=10**-11 C/N)

-------------------------------------------------------------------------------
  Indices      1         2         3         4         5         6    
-------------------------------------------------------------------------------
       x    -0.00000   0.00000   0.00000   0.00000   0.00000   0.00000
       y     0.00000   0.00000   0.00000   0.00000   0.00000   0.00000
       z     0.00000  -0.00000   0.00000   0.00000   0.00000   0.00000
-------------------------------------------------------------------------------


  Static dielectric constant tensor : 

-------------------------------------------------------------------------------
              x         y         z
-------------------------------------------------------------------------------
       x    11.08357  -0.00000  -0.00000
       y    -0.00000  11.08357  -0.00000
       z    -0.00000  -0.00000  11.08357
--------------------------------------------------------------------------------

  High frequency dielectric constant tensor : 

-------------------------------------------------------------------------------
              x         y         z
-------------------------------------------------------------------------------
       x     1.50771  -0.00000   0.00000
       y    -0.00000   1.50771  -0.00000
       z     0.00000  -0.00000   1.50771
-------------------------------------------------------------------------------

  Static refractive indices : 

-------------------------------------------------------------------------------
    1 =    3.32920      2 =    3.32920      3 =    3.32920
-------------------------------------------------------------------------------

  High frequency refractive indices : 

-------------------------------------------------------------------------------
    1 =    1.22789      2 =    1.22789      3 =    1.22789
-------------------------------------------------------------------------------


  Time to end of optimisation =       0.4838 seconds

********************************************************************************
*  Defect calculation for configuration   1 :                                  *
********************************************************************************

  Total number of defects =      2

  Total charge on defect  =   0.00

  Defect centre is at   0.7500   0.5000   0.2500  Frac

  Region 1 radius =  12.0000      Number of ions =    624

  Number of symmetry inequivalent region 1 ions  =    202

  Region 2 radius =  16.0000      Number of ions =    744

  Number of symmetry inequivalent region 2a ions =    214

  Region 2a mode = 4 : screened electrostatics due to region 1 
                       neglect correction to region 1 forces from 2a
                       region 2a displacements based on defects only

  Region 2a ions will only interact with defects in region 1

  Vacancies:

--------------------------------------------------------------------------------
    Specification type     Symbol/Number         x          y          z
--------------------------------------------------------------------------------
    Fractional                               0.750000   0.500000   0.000000
--------------------------------------------------------------------------------

  Impurities:

--------------------------------------------------------------------------------
    Specification type     Symbol/Number         x          y          z
--------------------------------------------------------------------------------
    Frac/Symbol             Sr               0.750000   0.500000   0.500000
--------------------------------------------------------------------------------


  Symmetry reduced region 1 (Relative to defect centre) :

--------------------------------------------------------------------------------
   No.   Atomic       x            y             z       Radius  Multiplicity   
         Label      (Angs)       (Angs)        (Angs)    (Angs)     
--------------------------------------------------------------------------------
     1  Sr    c      0.0000       0.0000       2.2030 *  0.0000     1    Defect
     2  Cl    c     -0.0000      -2.2030 *    -0.0000 *  0.0000     2          
     3  Na    c      2.2030 *     0.0000      -0.0000 *  0.0000     2          
     4  O     c     -2.2030 *     0.0000       2.2030 *  0.0000     2          
     5  O     c      2.2030 *     0.0000      -2.2030 *  0.0000     2          
     6  Na    c      2.2030 *    -2.2030 *    -2.2030 *  0.0000     4          
     7  Na    c      2.2030 *    -2.2030 *     2.2030 *  0.0000     4          
     8  Na    c      0.0000       4.4059 *    -2.2030 *  0.0000     2          
     9  Na    c      0.0000       4.4059 *     2.2030 *  0.0000     2          
    10  Na    c      2.2030 *     4.4059 *     0.0000 *  0.0000     4          
    11  Na    c     -2.2030 *     0.0000       4.4059 *  0.0000     2          
    12  Cl    c     -0.0000       2.2030 *     4.4059 *  0.0000     2          
    13  Na    c      2.2030 *    -0.0000      -4.4059 *  0.0000     2          
    14  Cl    c      4.4059 *     2.2030 *    -0.0000 *  0.0000     4          
    15  Na    c     -4.4059 *    -0.0000       2.2030 *  0.0000     2          
    16  Na    c      4.4059 *    -0.0000      -2.2030 *  0.0000     2          
    17  Cl    c     -0.0000      -2.2030 *    -4.4059 *  0.0000     2          
    18  O     c     -2.2030 *    -4.4059 *     2.2030 *  0.0000     4          
    19  O     c     -2.2030 *    -4.4059 *    -2.2030 *  0.0000     4          
    20  Na    c     -4.4059 *    -4.4059 *    -2.2030 *  0.0000     4          
    21  Na    c     -4.4059 *    -4.4059 *     2.2030 *  0.0000     4          
    22  Na    c      6.6089 *    -0.0000      -0.0000 *  0.0000     2          
    23  Na    c      2.2030 *    -4.4059 *    -4.4059 *  0.0000     4          
    24  Na    c      2.2030 *    -4.4059 *     4.4059 *  0.0000     4          
    25  Cl    c      4.4059 *     2.2030 *    -4.4059 *  0.0000     4          
    26  Cl    c     -4.4059 *    -2.2030 *     4.4059 *  0.0000     4          
    27  Cl    c     -0.0000      -6.6089 *    -0.0000 *  0.0000     2          
    28  Na    c     -0.0000       0.0000      -6.6089 *  0.0000     1          
    29  Na    c      0.0000       0.0000       6.6089 *  0.0000     1          
    30  O     c     -2.2030 *     0.0000       6.6089 *  0.0000     2          
    31  O     c      6.6089 *     0.0000       2.2030 *  0.0000     2          
    32  O     c      2.2030 *     0.0000      -6.6089 *  0.0000     2          
    33  O     c      6.6089 *     0.0000      -2.2030 *  0.0000     2          
    34  Na    c      6.6089 *     2.2030 *    -2.2030 *  0.0000     4          
    35  Na    c      6.6089 *     2.2030 *     2.2030 *  0.0000     4          
    36  Na    c     -2.2030 *    -2.2030 *     6.6089 *  0.0000     4          
    37  Na    c     -2.2030 *    -2.2030 *    -6.6089 *  0.0000     4          
    38  Na    c      2.2030 *     6.6089 *    -2.2030 *  0.0000     4          
    39  Na    c      2.2030 *     6.6089 *     2.2030 *  0.0000     4          
    40  Na    c      0.0000       4.4059 *     6.6089 *  0.0000     2          
    41  Na    c      0.0000       4.4059 *    -6.6089 *  0.0000     2          
    42  Na    c     -6.6089 *     4.4059 *    -0.0000 *  0.0000     4          
    43  Na    c     -4.4059 *    -0.0000       6.6089 *  0.0000     2          
    44  Na    c      4.4059 *    -0.0000      -6.6089 *  0.0000     2          
    45  Cl    c     -0.0000      -6.6089 *     4.4059 *  0.0000     2          
    46  Cl    c      4.4059 *    -6.6089 *    -0.0000 *  0.0000     4          
    47  Na    c      6.6089 *     0.0000       4.4059 *  0.0000     2          
    48  Na    c      6.6089 *     0.0000      -4.4059 *  0.0000     2          
    49  Cl    c     -0.0000      -6.6089 *    -4.4059 *  0.0000     2          
    50  O     c     -6.6089 *    -4.4059 *     2.2030 *  0.0000     4          
    51  O     c     -2.2030 *    -4.4059 *     6.6089 *  0.0000     4          
    52  O     c     -6.6089 *    -4.4059 *    -2.2030 *  0.0000     4          
    53  O     c      2.2030 *    -4.4059 *    -6.6089 *  0.0000     4          
    54  Na    c     -0.0000      -8.8118 *    -2.2030 *  0.0000     2          
    55  Na    c      0.0000      -8.8118 *     2.2030 *  0.0000     2          
    56  Na    c     -4.4059 *    -4.4059 *     6.6089 *  0.0000     4          
    57  Na    c     -4.4059 *    -4.4059 *    -6.6089 *  0.0000     4          
    58  Na    c      2.2030 *    -8.8118 *    -0.0000 *  0.0000     4          
    59  Na    c      8.8118 *     0.0000      -2.2030 *  0.0000     2          
    60  Na    c     -8.8118 *     0.0000       2.2030 *  0.0000     2          
    61  Na    c     -6.6089 *    -4.4059 *     4.4059 *  0.0000     4          
    62  Na    c     -6.6089 *    -4.4059 *    -4.4059 *  0.0000     4          
    63  Cl    c      8.8118 *     2.2030 *    -0.0000 *  0.0000     4          
    64  Cl    c      0.0000      -2.2030 *     8.8118 *  0.0000     2          
    65  Na    c     -2.2030 *    -0.0000       8.8118 *  0.0000     2          
    66  Cl    c     -0.0000      -2.2030 *    -8.8118 *  0.0000     2          
    67  Na    c      2.2030 *     0.0000      -8.8118 *  0.0000     2          
    68  Cl    c      4.4059 *    -6.6089 *    -4.4059 *  0.0000     4          
    69  Cl    c      4.4059 *    -6.6089 *     4.4059 *  0.0000     4          
    70  O     c      6.6089 *     0.0000       6.6089 *  0.0000     2          
    71  O     c     -6.6089 *     0.0000      -6.6089 *  0.0000     2          
    72  O     c     -2.2030 *    -8.8118 *     2.2030 *  0.0000     4          
    73  O     c     -2.2030 *    -8.8118 *    -2.2030 *  0.0000     4          
    74  Na    c     -6.6089 *     2.2030 *     6.6089 *  0.0000     4          
    75  Na    c     -6.6089 *     2.2030 *    -6.6089 *  0.0000     4          
    76  Na    c      6.6089 *    -6.6089 *    -2.2030 *  0.0000     4          
    77  Na    c      6.6089 *    -6.6089 *     2.2030 *  0.0000     4          
    78  Na    c     -2.2030 *     6.6089 *     6.6089 *  0.0000     4          
    79  Na    c     -2.2030 *     6.6089 *    -6.6089 *  0.0000     4          
    80  Na    c      4.4059 *     8.8118 *    -2.2030 *  0.0000     4          
    81  Na    c      4.4059 *     8.8118 *     2.2030 *  0.0000     4          
    82  Na    c     -8.8118 *     4.4059 *    -2.2030 *  0.0000     4          
    83  Na    c     -8.8118 *     4.4059 *     2.2030 *  0.0000     4          
    84  Na    c      2.2030 *     8.8118 *     4.4059 *  0.0000     4          
    85  Na    c      2.2030 *     8.8118 *    -4.4059 *  0.0000     4          
    86  Cl    c      8.8118 *     2.2030 *     4.4059 *  0.0000     4          
    87  Na    c      2.2030 *     4.4059 *     8.8118 *  0.0000     4          
    88  Na    c      2.2030 *     4.4059 *    -8.8118 *  0.0000     4          
    89  Cl    c      4.4059 *     2.2030 *     8.8118 *  0.0000     4          
    90  Cl    c      8.8118 *     2.2030 *    -4.4059 *  0.0000     4          
    91  Cl    c      4.4059 *     2.2030 *    -8.8118 *  0.0000     4          
    92  O     c     -6.6089 *    -4.4059 *    -6.6089 *  0.0000     4          
    93  O     c     -6.6089 *     4.4059 *     6.6089 *  0.0000     4          
    94  Na    c      0.0000      -8.8118 *     6.6089 *  0.0000     2          
    95  Na    c     -0.0000      -8.8118 *    -6.6089 *  0.0000     2          
    96  Na    c     -6.6089 *    -8.8118 *    -0.0000 *  0.0000     4          
    97  Na    c     -0.0000       0.0000     -11.0148 *  0.0000     1          
    98  Na    c      0.0000       0.0000      11.0148 *  0.0000     1          
    99  Na    c      6.6089 *    -0.0000       8.8118 *  0.0000     2          
   100  Na    c     -6.6089 *     0.0000      -8.8118 *  0.0000     2          
   101  Cl    c     -0.0000       6.6089 *     8.8118 *  0.0000     2          
   102  Cl    c      8.8118 *    -6.6089 *    -0.0000 *  0.0000     4          
   103  Na    c      8.8118 *     0.0000      -6.6089 *  0.0000     2          
   104  Na    c     -8.8118 *     0.0000       6.6089 *  0.0000     2          
   105  Cl    c     -0.0000      -6.6089 *    -8.8118 *  0.0000     2          
   106  Na    c     11.0148 *     0.0000      -0.0000 *  0.0000     2          
   107  Cl    c     -0.0000     -11.0148 *    -0.0000 *  0.0000     2          
   108  O     c     -2.2030 *     0.0000      11.0148 *  0.0000     2          
   109  O     c     11.0148 *     0.0000      -2.2030 *  0.0000     2          
   110  O     c    -11.0148 *     0.0000       2.2030 *  0.0000     2          
   111  O     c      2.2030 *     0.0000     -11.0148 *  0.0000     2          
   112  O     c     -2.2030 *    -8.8118 *     6.6089 *  0.0000     4          
   113  O     c      6.6089 *    -8.8118 *     2.2030 *  0.0000     4          
   114  O     c      6.6089 *    -8.8118 *    -2.2030 *  0.0000     4          
   115  O     c      2.2030 *    -8.8118 *    -6.6089 *  0.0000     4          
   116  Na    c     11.0148 *    -2.2030 *    -2.2030 *  0.0000     4          
   117  Na    c     11.0148 *    -2.2030 *     2.2030 *  0.0000     4          
   118  Na    c     -6.6089 *    -6.6089 *     6.6089 *  0.0000     4          
   119  Na    c     -6.6089 *    -6.6089 *    -6.6089 *  0.0000     4          
   120  Na    c      2.2030 *    -2.2030 *   -11.0148 *  0.0000     4          
   121  Na    c      2.2030 *    -2.2030 *    11.0148 *  0.0000     4          
   122  Na    c      2.2030 *   -11.0148 *    -2.2030 *  0.0000     4          
   123  Na    c      2.2030 *   -11.0148 *     2.2030 *  0.0000     4          
   124  Na    c      4.4059 *     8.8118 *     6.6089 *  0.0000     4          
   125  Na    c      4.4059 *     8.8118 *    -6.6089 *  0.0000     4          
   126  Na    c      0.0000       4.4059 *   -11.0148 *  0.0000     2          
   127  Na    c      0.0000       4.4059 *    11.0148 *  0.0000     2          
   128  Na    c     -8.8118 *     4.4059 *     6.6089 *  0.0000     4          
   129  Na    c      8.8118 *     4.4059 *    -6.6089 *  0.0000     4          
   130  Na    c    -11.0148 *     0.0000       4.4059 *  0.0000     2          
   131  Na    c     11.0148 *    -0.0000      -4.4059 *  0.0000     2          
   132  Na    c     -6.6089 *     4.4059 *     8.8118 *  0.0000     4          
   133  Na    c     -6.6089 *     4.4059 *    -8.8118 *  0.0000     4          
   134  Cl    c      8.8118 *    -6.6089 *     4.4059 *  0.0000     4          
   135  Na    c     -6.6089 *     8.8118 *     4.4059 *  0.0000     4          
   136  Na    c     -6.6089 *     8.8118 *    -4.4059 *  0.0000     4          
   137  Cl    c      4.4059 *    -6.6089 *     8.8118 *  0.0000     4          
   138  Na    c     11.0148 *     4.4059 *     0.0000 *  0.0000     4          
   139  Cl    c      8.8118 *    -6.6089 *    -4.4059 *  0.0000     4          
   140  Cl    c      4.4059 *    -6.6089 *    -8.8118 *  0.0000     4          
   141  Cl    c     -0.0000     -11.0148 *     4.4059 *  0.0000     2          
   142  Na    c     -4.4059 *    -0.0000      11.0148 *  0.0000     2          
   143  Cl    c      4.4059 *   -11.0148 *    -0.0000 *  0.0000     4          
   144  Na    c      4.4059 *    -0.0000     -11.0148 *  0.0000     2          
   145  Cl    c     -0.0000     -11.0148 *    -4.4059 *  0.0000     2          
   146  Sr    s      0.0000       0.0000       2.2030 *  0.0000     1    Defect
   147  Cl    s     -0.0000       2.2030 *    -0.0000 *  0.0000     2          
   148  O     s     -2.2030 *     0.0000       2.2030 *  0.0000     2          
   149  O     s      2.2030 *     0.0000      -2.2030 *  0.0000     2          
   150  Cl    s     -0.0000       2.2030 *     4.4059 *  0.0000     2          
   151  Cl    s      4.4059 *     2.2030 *    -0.0000 *  0.0000     4          
   152  Cl    s     -0.0000      -2.2030 *    -4.4059 *  0.0000     2          
   153  O     s     -2.2030 *    -4.4059 *     2.2030 *  0.0000     4          
   154  O     s     -2.2030 *    -4.4059 *    -2.2030 *  0.0000     4          
   155  Cl    s      4.4059 *     2.2030 *    -4.4059 *  0.0000     4          
   156  Cl    s      4.4059 *     2.2030 *     4.4059 *  0.0000     4          
   157  Cl    s     -0.0000       6.6089 *    -0.0000 *  0.0000     2          
   158  O     s     -2.2030 *     0.0000       6.6089 *  0.0000     2          
   159  O     s      6.6089 *     0.0000       2.2030 *  0.0000     2          
   160  O     s      2.2030 *     0.0000      -6.6089 *  0.0000     2          
   161  O     s      6.6089 *     0.0000      -2.2030 *  0.0000     2          
   162  Cl    s     -0.0000      -6.6089 *     4.4059 *  0.0000     2          
   163  Cl    s      4.4059 *    -6.6089 *    -0.0000 *  0.0000     4          
   164  Cl    s     -0.0000      -6.6089 *    -4.4059 *  0.0000     2          
   165  O     s     -6.6089 *    -4.4059 *     2.2030 *  0.0000     4          
   166  O     s     -2.2030 *    -4.4059 *     6.6089 *  0.0000     4          
   167  O     s     -6.6089 *    -4.4059 *    -2.2030 *  0.0000     4          
   168  O     s      2.2030 *    -4.4059 *    -6.6089 *  0.0000     4          
   169  Cl    s      0.0000      -2.2030 *     8.8118 *  0.0000     2          
   170  Cl    s      8.8118 *     2.2030 *    -0.0000 *  0.0000     4          
   171  Cl    s     -0.0000       2.2030 *    -8.8118 *  0.0000     2          
   172  Cl    s      4.4059 *    -6.6089 *    -4.4059 *  0.0000     4          
   173  Cl    s      4.4059 *    -6.6089 *     4.4059 *  0.0000     4          
   174  O     s      6.6089 *     0.0000       6.6089 *  0.0000     2          
   175  O     s     -6.6089 *     0.0000      -6.6089 *  0.0000     2          
   176  O     s     -2.2030 *    -8.8118 *     2.2030 *  0.0000     4          
   177  O     s     -2.2030 *    -8.8118 *    -2.2030 *  0.0000     4          
   178  Cl    s      8.8118 *     2.2030 *     4.4059 *  0.0000     4          
   179  Cl    s      4.4059 *     2.2030 *     8.8118 *  0.0000     4          
   180  Cl    s      8.8118 *     2.2030 *    -4.4059 *  0.0000     4          
   181  Cl    s      4.4059 *     2.2030 *    -8.8118 *  0.0000     4          
   182  O     s     -6.6089 *    -4.4059 *    -6.6089 *  0.0000     4          
   183  O     s     -6.6089 *     4.4059 *     6.6089 *  0.0000     4          
   184  Cl    s     -0.0000       6.6089 *     8.8118 *  0.0000     2          
   185  Cl    s      8.8118 *    -6.6089 *    -0.0000 *  0.0000     4          
   186  Cl    s     -0.0000      -6.6089 *    -8.8118 *  0.0000     2          
   187  Cl    s     -0.0000     -11.0148 *    -0.0000 *  0.0000     2          
   188  O     s     -2.2030 *     0.0000      11.0148 *  0.0000     2          
   189  O     s     11.0148 *     0.0000      -2.2030 *  0.0000     2          
   190  O     s    -11.0148 *     0.0000       2.2030 *  0.0000     2          
   191  O     s      2.2030 *     0.0000     -11.0148 *  0.0000     2          
   192  O     s     -2.2030 *    -8.8118 *     6.6089 *  0.0000     4          
   193  O     s      6.6089 *    -8.8118 *     2.2030 *  0.0000     4          
   194  O     s      6.6089 *    -8.8118 *    -2.2030 *  0.0000     4          
   195  O     s      2.2030 *    -8.8118 *    -6.6089 *  0.0000     4          
   196  Cl    s      8.8118 *    -6.6089 *     4.4059 *  0.0000     4          
   197  Cl    s      4.4059 *    -6.6089 *     8.8118 *  0.0000     4          
   198  Cl    s      8.8118 *    -6.6089 *    -4.4059 *  0.0000     4          
   199  Cl    s      4.4059 *    -6.6089 *    -8.8118 *  0.0000     4          
   200  Cl    s     -0.0000     -11.0148 *     4.4059 *  0.0000     2          
   201  Cl    s      4.4059 *   -11.0148 *    -0.0000 *  0.0000     4          
   202  Cl    s     -0.0000     -11.0148 *    -4.4059 *  0.0000     2          
--------------------------------------------------------------------------------

  Components of defect energy : 

--------------------------------------------------------------------------------
  Region 1 - region 1                   =     -0.98988199 eV
  Region 1 - region 2a (unrelaxed)      =      0.00000002 eV
  Region 1 - 2a (relaxed - correction)  =     -0.53780854 eV
  Region 1 (Total)                      =     -1.52769051 eV
  Region 2a                             =      0.26892054 eV
  Region 2b                             =      0.00000000 eV
--------------------------------------------------------------------------------
  Total defect energy                   =     -1.25876997 eV
--------------------------------------------------------------------------------

  Largest displacement in region 2 =   0.0999 Angstroms


  Number of variables =      511

  Maximum number of calculations  =        1000
  Maximum Hessian update interval =          10
  Maximum step size               =   1.0000000
  Maximum parameter tolerance     =   0.0000100
  Maximum function  tolerance     =   0.0000100
  Maximum gradient  tolerance     =   0.0010000

  Symmetry adapted optimisation

  Symmetry to be used for second derivatives

  Newton-Raphson optimiser to be used

  BFGS hessian update to be used

  Lower half triangular hessian to be used

  Start of defect optimisation :

  Cycle:      0 Defect Energy:  -1.258770  Gnorm:     0.043903  CPU:    2.918
  ** Hessian calculated **
  Cycle:      1 Defect Energy:  -2.348454  Gnorm:     0.036892  CPU:   11.165
  Cycle:      2 Defect Energy:  -3.786077  Gnorm:     0.024069  CPU:   15.556
  Cycle:      3 Defect Energy:  -4.564509  Gnorm:     0.011271  CPU:   19.597
  Cycle:      4 Defect Energy:  -4.768564  Gnorm:     0.005853  CPU:   23.009
  Cycle:      5 Defect Energy:  -4.816943  Gnorm:     0.003868  CPU:   23.803
  Cycle:      6 Defect Energy:  -4.845710  Gnorm:     0.001591  CPU:   24.551
  Cycle:      7 Defect Energy:  -4.850386  Gnorm:     0.001060  CPU:   25.335
  Cycle:      8 Defect Energy:  -4.852140  Gnorm:     0.000789  CPU:   26.159
  Cycle:      9 Defect Energy:  -4.851859  Gnorm:     0.000624  CPU:   26.892
  ** Hessian calculated **
  Cycle:     10 Defect Energy:  -4.853352  Gnorm:     0.000565  CPU:   28.531
  Cycle:     11 Defect Energy:  -4.855083  Gnorm:     0.000463  CPU:   29.253
  Cycle:     12 Defect Energy:  -4.856086  Gnorm:     0.000311  CPU:   29.965
  Cycle:     13 Defect Energy:  -4.856054  Gnorm:     0.000209  CPU:   30.761
  Cycle:     14 Defect Energy:  -4.855861  Gnorm:     0.000143  CPU:   31.445
  Cycle:     15 Defect Energy:  -4.855670  Gnorm:     0.000099  CPU:   32.129
  Cycle:     16 Defect Energy:  -4.855510  Gnorm:     0.000068  CPU:   32.808
  Cycle:     17 Defect Energy:  -4.855385  Gnorm:     0.000048  CPU:   33.494
  Cycle:     18 Defect Energy:  -4.855291  Gnorm:     0.000033  CPU:   34.177
  Cycle:     19 Defect Energy:  -4.855223  Gnorm:     0.000023  CPU:   34.946
  ** Hessian calculated **
  Cycle:     20 Defect Energy:  -4.855174  Gnorm:     0.000016  CPU:   36.498
  Cycle:     21 Defect Energy:  -4.855139  Gnorm:     0.000011  CPU:   37.199
  Cycle:     22 Defect Energy:  -4.855114  Gnorm:     0.000008  CPU:   37.929
  Cycle:     23 Defect Energy:  -4.855096  Gnorm:     0.000006  CPU:   38.750
  Cycle:     24 Defect Energy:  -4.855084  Gnorm:     0.000004  CPU:   39.617


  **** Optimisation achieved ****


  Final defect energy  =       -4.85507505
  Final defect Gnorm   =        0.00000272

  Components of defect energy : 

--------------------------------------------------------------------------------
  Region 1 - region 1                   =     -4.89844388 eV
  Region 1 - region 2a (unrelaxed)      =      0.10430091 eV
  Region 1 - 2a (relaxed - correction)  =     -0.12104218 eV
  Region 1 (Total)                      =     -4.91518515 eV
  Region 2a                             =      0.06011011 eV
  Region 2b                             =      0.00000000 eV
--------------------------------------------------------------------------------
  Total defect energy                   =     -4.85507505 eV
--------------------------------------------------------------------------------

  Largest displacement in region 2 =   0.0939 Angstroms

  Final coordinates of region 1 :

--------------------------------------------------------------------------------
   No.  Atomic        x           y           z          Radius      Charge
        Label       (Angs)      (Angs)      (Angs)       (Angs)       (e) 
--------------------------------------------------------------------------------
     1  Sr    c     6.608853    4.405902    4.183032    0.000000   -1.251000
     2  Cl    c     6.608853    2.068734    2.317006    0.000000    1.485000
     3  Cl    c     6.608853    6.743070    2.317006    0.000000    1.485000
     4  Na    c     9.232583    4.405902    2.052446    0.000000    1.000000
     5  Na    c     3.985124    4.405902    2.052446    0.000000    1.000000
     6  O     c     4.351592    4.405902    4.349660    0.000000    0.183000
     7  O     c     8.866115    4.405902    4.349660    0.000000    0.183000
[...]
    121 y          2.202951      2.202373    -0.000578    Cartesian   -0.03
    121 z         13.217707     13.219268     0.001561    Cartesian    0.01
    122 x          8.811805      8.775239    -0.036565    Cartesian   -0.41
    122 y         -6.608853     -6.600352     0.008501    Cartesian   -0.13
    122 z          0.000000     -0.008396    -0.008396    Cartesian *******
    123 x          8.811805      8.835457     0.023652    Cartesian    0.27
    123 y         -6.608853     -6.612096    -0.003243    Cartesian    0.05
    123 z          4.405902      4.394678    -0.011224    Cartesian   -0.25
    124 x         11.014756     11.015868     0.001112    Cartesian    0.01
    124 y         13.217707     13.219542     0.001835    Cartesian    0.01
    124 z          8.811805      8.810955    -0.000849    Cartesian   -0.01
    125 x         11.014756     11.012925    -0.001830    Cartesian   -0.02
    125 y         13.217707     13.213792    -0.003915    Cartesian   -0.03
    125 z         -4.405902     -4.404558     0.001344    Cartesian   -0.03
    126 x          6.608853      6.608853     0.000000    Cartesian    0.00
    126 y          8.811805      8.811560    -0.000245    Cartesian   -0.00
    126 z         -8.811805     -8.813321    -0.001516    Cartesian    0.02
    127 x          6.608853      6.608853     0.000000    Cartesian    0.00
    127 y          8.811805      8.813995     0.002191    Cartesian    0.02
    127 z         13.217707     13.219446     0.001739    Cartesian    0.01
    128 x         -2.202951     -2.205393    -0.002442    Cartesian    0.11
    128 y          8.811805      8.813117     0.001313    Cartesian    0.01
    128 z          8.811805      8.809068    -0.002737    Cartesian   -0.03
    129 x         15.420658     15.419398    -0.001260    Cartesian   -0.01
    129 y          8.811805      8.809022    -0.002782    Cartesian   -0.03
    129 z         -4.405902     -4.403524     0.002379    Cartesian   -0.05
    130 x         -4.405902     -4.403237     0.002665    Cartesian   -0.06
    130 y          4.405902      4.405902     0.000000    Cartesian    0.00
    130 z          6.608853      6.606143    -0.002710    Cartesian   -0.04
    131 x         17.623609     17.606212    -0.017397    Cartesian   -0.10
    131 y          4.405902      4.405902     0.000000    Cartesian    0.00
    131 z         -2.202951     -2.204449    -0.001498    Cartesian    0.07
    132 x          0.000000     -0.004643    -0.004643    Cartesian *******
    132 y          8.811805      8.816871     0.005067    Cartesian    0.06
    132 z         11.014756     11.013984    -0.000771    Cartesian   -0.01
    133 x          0.000000     -0.007732    -0.007732    Cartesian *******
    133 y          8.811805      8.812063     0.000259    Cartesian    0.00
    133 z         -6.608853     -6.613072    -0.004219    Cartesian    0.06
    134 x         15.420658     15.422498     0.001840    Cartesian    0.01
    134 y         -2.202951     -2.206623    -0.003672    Cartesian    0.17
    134 z          6.608853      6.617342     0.008488    Cartesian    0.13
    135 x         -0.000000      0.005635     0.005635    Cartesian *******
    135 y         13.217707     13.229472     0.011765    Cartesian    0.09
    135 z          6.608853      6.608490    -0.000364    Cartesian   -0.01
    136 x         -0.000000     -0.005144    -0.005144    Cartesian *******
    136 y         13.217707     13.207340    -0.010367    Cartesian   -0.08
    136 z         -2.202951     -2.203704    -0.000753    Cartesian    0.03
    137 x         11.014756     11.008528    -0.006227    Cartesian   -0.06
    137 y         -2.202951     -2.195113     0.007838    Cartesian   -0.36
    137 z         11.014756     11.014977     0.000221    Cartesian    0.00
    138 x         17.623609     17.622017    -0.001592    Cartesian   -0.01
    138 y          8.811805      8.805913    -0.005892    Cartesian   -0.07
    138 z          2.202951      2.199242    -0.003709    Cartesian   -0.17
    139 x         15.420658     15.424944     0.004286    Cartesian    0.03
    139 y         -2.202951     -2.204051    -0.001100    Cartesian    0.05
    139 z         -2.202951     -2.193320     0.009631    Cartesian   -0.44
    140 x         11.014756     11.017997     0.003242    Cartesian    0.03
    140 y         -2.202951     -2.211318    -0.008367    Cartesian    0.38
    140 z         -6.608853     -6.610761    -0.001907    Cartesian    0.03
    141 x          6.608853      6.608853     0.000000    Cartesian    0.00
    141 y         -6.608853     -6.603070     0.005783    Cartesian   -0.09
    141 z          6.608853      6.618091     0.009237    Cartesian    0.14
    142 x          2.202951      2.204442     0.001491    Cartesian    0.07
    142 y          4.405902      4.405902     0.000000    Cartesian    0.00
    142 z         13.217707     13.209287    -0.008420    Cartesian   -0.06
    143 x         11.014756     11.013942    -0.000813    Cartesian   -0.01
    143 y         -6.608853     -6.608269     0.000584    Cartesian   -0.01
    143 z          2.202951      2.206836     0.003885    Cartesian    0.18
    144 x         11.014756     11.017706     0.002951    Cartesian    0.03
    144 y          4.405902      4.405902     0.000000    Cartesian    0.00
    144 z         -8.811805     -8.844245    -0.032440    Cartesian    0.37
    145 x          6.608853      6.608853     0.000000    Cartesian    0.00
    145 y         -6.608853     -6.614247    -0.005394    Cartesian    0.08
    145 z         -2.202951     -2.192756     0.010195    Cartesian   -0.46
    146 x          6.608853      6.608853     0.000000    Cartesian    0.00
    146 y          4.405902      4.405902     0.000000    Cartesian    0.00
    146 z          4.405902      4.187843    -0.218059    Cartesian   -4.95
    147 x          6.608853      6.608853     0.000000    Cartesian    0.00
    147 y          6.608853      6.730089     0.121236    Cartesian    1.83
    147 z          2.202951      2.352197     0.149246    Cartesian    6.77
    148 x          4.405902      4.352014    -0.053888    Cartesian   -1.22
    148 y          4.405902      4.405902     0.000000    Cartesian    0.00
    148 z          4.405902      4.349656    -0.056246    Cartesian   -1.28
    149 x          8.811805      9.048505     0.236700    Cartesian    2.69
    149 y          4.405902      4.405902     0.000000    Cartesian    0.00
    149 z         -0.000000     -0.046573    -0.046573    Cartesian *******
    150 x          6.608853      6.608853     0.000000    Cartesian    0.00
    150 y          6.608853      6.483173    -0.125680    Cartesian   -1.90
    150 z          6.608853      6.507125    -0.101728    Cartesian   -1.54
    151 x         11.014756     11.084928     0.070173    Cartesian    0.64
    151 y          6.608853      6.633428     0.024574    Cartesian    0.37
    151 z          2.202951      2.343987     0.141036    Cartesian    6.40
    152 x          6.608853      6.608853     0.000000    Cartesian    0.00
    152 y          2.202951      2.110574    -0.092377    Cartesian   -4.19
    152 z         -2.202951     -2.285676    -0.082725    Cartesian    3.76
    153 x          4.405902      4.380859    -0.025043    Cartesian   -0.57
    153 y          0.000000     -0.020642    -0.020642    Cartesian *******
    153 z          4.405902      4.417840     0.011937    Cartesian    0.27
    154 x          4.405902      4.424466     0.018563    Cartesian    0.42
    154 y          0.000000      0.045124     0.045124    Cartesian *******
    154 z         -0.000000      0.003441     0.003441    Cartesian *******
    155 x         11.014756     11.124698     0.109943    Cartesian    1.00
    155 y          6.608853      6.679267     0.070413    Cartesian    1.07
    155 z         -2.202951     -2.279430    -0.076479    Cartesian    3.47
    156 x         11.014756     10.987767    -0.026989    Cartesian   -0.25
    156 y          6.608853      6.558154    -0.050700    Cartesian   -0.77
    156 z          6.608853      6.599814    -0.009039    Cartesian   -0.14
    157 x          6.608853      6.608853     0.000000    Cartesian    0.00
    157 y         11.014756     11.016736     0.001980    Cartesian    0.02
    157 z          2.202951      2.220434     0.017483    Cartesian    0.79
    158 x          4.405902      4.394947    -0.010955    Cartesian   -0.25
    158 y          4.405902      4.405902     0.000000    Cartesian    0.00
    158 z          8.811805      8.813733     0.001929    Cartesian    0.02
    159 x         13.217707     13.249677     0.031970    Cartesian    0.24
    159 y          4.405902      4.405902     0.000000    Cartesian    0.00
    159 z          4.405902      4.406383     0.000481    Cartesian    0.01
    160 x          8.811805      8.798171    -0.013633    Cartesian   -0.15
    160 y          4.405902      4.405902     0.000000    Cartesian    0.00
    160 z         -4.405902     -4.382513     0.023390    Cartesian   -0.53
    161 x         13.217707     13.288524     0.070817    Cartesian    0.54
    161 y          4.405902      4.405902     0.000000    Cartesian    0.00
    161 z         -0.000000     -0.030203    -0.030203    Cartesian *******
    162 x          6.608853      6.608853     0.000000    Cartesian    0.00
    162 y         -2.202951     -2.180925     0.022026    Cartesian   -1.00
    162 z          6.608853      6.629871     0.021018    Cartesian    0.32
    163 x         11.014756     11.012460    -0.002296    Cartesian   -0.02
    163 y         -2.202951     -2.210046    -0.007095    Cartesian    0.32
    163 z          2.202951      2.224992     0.022041    Cartesian    1.00
    164 x          6.608853      6.608853     0.000000    Cartesian    0.00
    164 y         -2.202951     -2.213549    -0.010598    Cartesian    0.48
    164 z         -2.202951     -2.182484     0.020467    Cartesian   -0.93
    165 x          0.000000     -0.019733    -0.019733    Cartesian *******
    165 y          0.000000     -0.023461    -0.023461    Cartesian *******
    165 z          4.405902      4.413765     0.007862    Cartesian    0.18
    166 x          4.405902      4.409546     0.003644    Cartesian    0.08
    166 y          0.000000      0.003983     0.003983    Cartesian *******
    166 z          8.811805      8.808553    -0.003251    Cartesian   -0.04
    167 x          0.000000      0.008894     0.008894    Cartesian    0.00
    167 y          0.000000      0.017166     0.017166    Cartesian    0.00
    167 z          0.000000      0.005186     0.005186    Cartesian    0.00
    168 x          8.811805      8.819496     0.007692    Cartesian    0.09
    168 y          0.000000      0.000529     0.000529    Cartesian *******
    168 z         -4.405902     -4.408166    -0.002264    Cartesian    0.05
    169 x          6.608853      6.608853     0.000000    Cartesian    0.00
    169 y          2.202951      2.203279     0.000328    Cartesian    0.01
    169 z         11.014756     10.999988    -0.014767    Cartesian   -0.13
    170 x         15.420658     15.435922     0.015264    Cartesian    0.10
    170 y          6.608853      6.610554     0.001700    Cartesian    0.03
    170 z          2.202951      2.213518     0.010567    Cartesian    0.48
    171 x          6.608853      6.608853     0.000000    Cartesian    0.00
    171 y          6.608853      6.606955    -0.001899    Cartesian   -0.03
    171 z         -6.608853     -6.620610    -0.011757    Cartesian    0.18
    172 x         11.014756     11.010535    -0.004221    Cartesian   -0.04
    172 y         -2.202951     -2.214867    -0.011916    Cartesian    0.54
    172 z         -2.202951     -2.190090     0.012861    Cartesian   -0.58
    173 x         11.014756     11.016541     0.001785    Cartesian    0.02
    173 y         -2.202951     -2.198125     0.004826    Cartesian   -0.22
    173 z          6.608853      6.631694     0.022841    Cartesian    0.35
    174 x         13.217707     13.231523     0.013816    Cartesian    0.10
    174 y          4.405902      4.405902     0.000000    Cartesian    0.00
    174 z          8.811805      8.820836     0.009032    Cartesian    0.10
    175 x          0.000000     -0.015062    -0.015062    Cartesian *******
    175 y          4.405902      4.405902     0.000000    Cartesian    0.00
    175 z         -4.405902     -4.405076     0.000826    Cartesian   -0.02
    176 x          4.405902      4.410362     0.004460    Cartesian    0.10
    176 y         -4.405902     -4.411561    -0.005659    Cartesian    0.13
    176 z          4.405902      4.405521    -0.000382    Cartesian   -0.01
    177 x          4.405902      4.400515    -0.005388    Cartesian   -0.12
    177 y         -4.405902     -4.389418     0.016484    Cartesian   -0.37
    177 z         -0.000000     -0.000701    -0.000701    Cartesian *******
    178 x         15.420658     15.417853    -0.002805    Cartesian   -0.02
    178 y          6.608853      6.613947     0.005093    Cartesian    0.08
    178 z          6.608853      6.628826     0.019972    Cartesian    0.30
    179 x         11.014756     11.010746    -0.004010    Cartesian   -0.04
    179 y          6.608853      6.606760    -0.002094    Cartesian   -0.03
    179 z         11.014756     11.011560    -0.003196    Cartesian   -0.03
    180 x         15.420658     15.450066     0.029408    Cartesian    0.19
    180 y          6.608853      6.610061     0.001207    Cartesian    0.02
    180 z         -2.202951     -2.190803     0.012148    Cartesian   -0.55
    181 x         11.014756     11.015191     0.000435    Cartesian    0.00
    181 y          6.608853      6.609358     0.000505    Cartesian    0.01
    181 z         -6.608853     -6.619181    -0.010328    Cartesian    0.16
    182 x          0.000000     -0.007210    -0.007210    Cartesian *******
    182 y          0.000000     -0.011965    -0.011965    Cartesian *******
    182 z         -4.405902     -4.416924    -0.011022    Cartesian    0.25
    183 x          0.000000      0.001360     0.001360    Cartesian *******
    183 y          8.811805      8.809072    -0.002733    Cartesian   -0.03
    183 z          8.811805      8.810879    -0.000925    Cartesian   -0.01
    184 x          6.608853      6.608853     0.000000    Cartesian    0.00
    184 y         11.014756     11.001799    -0.012957    Cartesian   -0.12
    184 z         11.014756     11.013630    -0.001125    Cartesian   -0.01
    185 x         15.420658     15.423505     0.002847    Cartesian    0.02
    185 y         -2.202951     -2.204488    -0.001537    Cartesian    0.07
    185 z          2.202951      2.222374     0.019423    Cartesian    0.88
    186 x          6.608853      6.608853     0.000000    Cartesian    0.00
    186 y         -2.202951     -2.210510    -0.007559    Cartesian    0.34
    186 z         -6.608853     -6.608559     0.000294    Cartesian   -0.00
    187 x          6.608853      6.608853     0.000000    Cartesian    0.00
    187 y         -6.608853     -6.610398    -0.001544    Cartesian    0.02
    187 z          2.202951      2.209289     0.006338    Cartesian    0.29
    188 x          4.405902      4.410188     0.004286    Cartesian    0.10
    188 y          4.405902      4.405902     0.000000    Cartesian    0.00
    188 z         13.217707     13.217999     0.000292    Cartesian    0.00
    189 x         17.623609     17.640255     0.016646    Cartesian    0.09
    189 y          4.405902      4.405902     0.000000    Cartesian    0.00
    189 z         -0.000000      0.009821     0.009821    Cartesian *******
    190 x         -4.405902     -4.415057    -0.009155    Cartesian    0.21
    190 y          4.405902      4.405902     0.000000    Cartesian    0.00
    190 z          4.405902      4.404826    -0.001076    Cartesian   -0.02
    191 x          8.811805      8.822703     0.010898    Cartesian    0.12
    191 y          4.405902      4.405902     0.000000    Cartesian    0.00
    191 z         -8.811805     -8.805329     0.006476    Cartesian   -0.07
    192 x          4.405902      4.404687    -0.001215    Cartesian   -0.03
    192 y         -4.405902     -4.405364     0.000538    Cartesian   -0.01
    192 z          8.811805      8.812546     0.000742    Cartesian    0.01
    193 x         13.217707     13.221258     0.003551    Cartesian    0.03
    193 y         -4.405902     -4.406990    -0.001087    Cartesian    0.02
    193 z          4.405902      4.408195     0.002292    Cartesian    0.05
    194 x         13.217707     13.211839    -0.005868    Cartesian   -0.04
    194 y         -4.405902     -4.405704     0.000198    Cartesian   -0.00
    194 z         -0.000000      0.001157     0.001157    Cartesian *******
    195 x          8.811805      8.808692    -0.003113    Cartesian   -0.04
    195 y         -4.405902     -4.405348     0.000554    Cartesian   -0.01
    195 z         -4.405902     -4.405047     0.000856    Cartesian   -0.02
    196 x         15.420658     15.421500     0.000842    Cartesian    0.01
    196 y         -2.202951     -2.206530    -0.003579    Cartesian    0.16
    196 z          6.608853      6.617531     0.008678    Cartesian    0.13
    197 x         11.014756     11.007442    -0.007313    Cartesian   -0.07
    197 y         -2.202951     -2.193870     0.009082    Cartesian   -0.41
    197 z         11.014756     11.014911     0.000155    Cartesian    0.00
    198 x         15.420658     15.426831     0.006173    Cartesian    0.04
    198 y         -2.202951     -2.204097    -0.001146    Cartesian    0.05
    198 z         -2.202951     -2.192331     0.010620    Cartesian   -0.48
    199 x         11.014756     11.018734     0.003978    Cartesian    0.04
    199 y         -2.202951     -2.212315    -0.009364    Cartesian    0.43
    199 z         -6.608853     -6.610692    -0.001839    Cartesian    0.03
    200 x          6.608853      6.608853     0.000000    Cartesian    0.00
    200 y         -6.608853     -6.601411     0.007443    Cartesian   -0.11
    200 z          6.608853      6.619425     0.010572    Cartesian    0.16
    201 x         11.014756     11.014026    -0.000729    Cartesian   -0.01
    201 y         -6.608853     -6.608079     0.000774    Cartesian   -0.01
    201 z          2.202951      2.207835     0.004884    Cartesian    0.22
    202 x          6.608853      6.608853     0.000000    Cartesian    0.00
    202 y         -6.608853     -6.616312    -0.007458    Cartesian    0.11
    202 z         -2.202951     -2.191208     0.011743    Cartesian   -0.53
--------------------------------------------------------------------------------


  Time to end of optimisation  =       40.1700 seconds


  Peak dynamic memory used =      91.22 MB 


  Timing analysis for GULP :

--------------------------------------------------------------------------------
  Task / Subroutine                                          Time (Seconds)
--------------------------------------------------------------------------------
  Calculation of reciprocal space energy and derivatives          0.0425
  Calculation of real space energy and derivatives                0.4166
  Calculation for region 1 energy and derivatives (2-b)          25.8352
  Calculation for region 2a energy                               13.4371
  Calculation and manipulation of Hessian matrix                  0.0705
  Calculation of matrix inversion                                 0.2259
  Symmetry generation of equivalent positions                     0.0031
--------------------------------------------------------------------------------
  Total CPU time                                                 40.1700
--------------------------------------------------------------------------------


  Dump file written as Na3OCl.grs


  Job Finished at 12:38.23  2nd February   2021                               

