********************************************************************************
*                       GENERAL UTILITY LATTICE PROGRAM                        *
*                                 Julian Gale                                  *
*                       Curtin Institute for Computation                       *
*                    School of Molecular and Life Sciences                     *
*                    Curtin University, Western Australia                      *
********************************************************************************
* Version = 5.2.0 * Last modified =  10th September 2020                       *
********************************************************************************
*  optimise     - perform optimisation run                                     *
*  conp         - constant pressure calculation                                *
*  property     - calculate properties for final geometry                      *
*  defect       - perform defect calculation after bulk run                    *
*  compare      - compare initial and final structures                         *
********************************************************************************

  Job Started  at 16:22.29  5th July       2021                               

  Number of CPUs =     1


  Total number of configurations input =      1

********************************************************************************
*  Input for Configuration =   1                                               *
********************************************************************************

  Formula = ClONa3                                                      

  Number of irreducible atoms/shells =       5


  Total number atoms/shells =       7

  Dimensionality = 3               :  Bulk   


  Symmetry :

  Crystal family                   :  Cubic       
  Crystal class  (Groth - 1921)    :  Cubic Hexakisoctahedral              

  Space group (centrosymmetric)    :  P M 3 M         

  Patterson group                  :  P m -3 m 

  Cartesian lattice vectors (Angstroms) :

        4.504000    0.000000    0.000000
        0.000000    4.504000    0.000000
        0.000000    0.000000    4.504000

  Cell parameters (Angstroms/Degrees):

  a =       4.5040    alpha =  90.0000
  b =       4.5040    beta  =  90.0000
  c =       4.5040    gamma =  90.0000

  Initial cell volume =          91.368216 Angs**3

  Temperature of configuration =   0.00     K 

  Pressure of configuration =         0.000 GPa 

  Fractional coordinates of asymmetric unit :

--------------------------------------------------------------------------------
   No.  Atomic       x           y          z         Charge      Occupancy
        Label      (Frac)      (Frac)     (Frac)        (e)         (Frac)  
--------------------------------------------------------------------------------
      1 Cl    c    0.000000    0.000000    0.000000     0.61500    1.000000    
      2 O     c    0.500000    0.500000    0.500000     0.48900    1.000000    
      3 Na    c    0.500000    0.500000    0.000000     0.67000    1.000000    
      4 Cl    s    0.000000    0.000000    0.000000    -1.28500    1.000000    
      5 O     s    0.500000    0.500000    0.500000    -1.82900    1.000000    
--------------------------------------------------------------------------------


  Constraints : 

--------------------------------------------------------------------------------
  Constraint no.      Unconstrained     Constrained    Coefficient    Offset
                         Variable         Variable
--------------------------------------------------------------------------------
           1              Strain 1        Strain 2       1.00000      0.0000
           2              Strain 1        Strain 3       1.00000      0.0000
--------------------------------------------------------------------------------


********************************************************************************
*  General input information                                                   *
********************************************************************************

  Species output for all configurations : 

--------------------------------------------------------------------------------
  Species    Type    Atomic    Atomic    Charge       Radii (Angs)     Library
                     Number     Mass       (e)     Cova   Ionic  VDW   Symbol
--------------------------------------------------------------------------------
    Na       Core       11      22.99   0.670000   0.970  0.000  2.300          
    O        Core        8      16.00   0.489000   0.730  0.000  1.360          
    O        Shell       8       0.00  -1.829000   0.730  0.000  1.360          
    Cl       Core       17      35.45   0.615000   0.990  0.000  1.650          
    Cl       Shell      17       0.00  -1.285000   0.990  0.000  1.650          
--------------------------------------------------------------------------------


  Lattice summation method               =    Ewald          (3-D)
                                         =    Parry          (2-D)
                                         =    Saunders et al (1-D)
  Accuracy factor for lattice sums       =   12.000


  Analytic derivatives to be used

  Time limit = Infinity

  Maximum range for interatomic potentials =    100000.000000 Angstroms

  General interatomic potentials :

--------------------------------------------------------------------------------
Atom  Types   Potential      Parameter       Value         Units   Cutoffs(Ang)
  1     2                                                            Min /  Max 
--------------------------------------------------------------------------------
O    c O    s Spring (c-s)  Spring k 2       34.450000    eV*Ang^-2 0.000  0.800
                            Spring k 4       0.0000000    eV*Ang^-4 
--------------------------------------------------------------------------------
Cl   c Cl   s Spring (c-s)  Spring k 2       28.250000    eV*Ang^-2 0.000  0.800
                            Spring k 4       0.0000000    eV*Ang^-4 
--------------------------------------------------------------------------------
Na   c Na   c Buckingham    Buckingham A     996.28210    eV        0.000 12.000
                            Buckingham rho  0.28830000    Ang       
                            Buckingham C     0.0000000    eV*Ang^6  
--------------------------------------------------------------------------------
Na   c O    s Buckingham    Buckingham A     12439.222    eV        0.000 12.000
                            Buckingham rho  0.20150000    Ang       
                            Buckingham C     0.0000000    eV*Ang^6  
--------------------------------------------------------------------------------
Na   c Cl   s Buckingham    Buckingham A     20907.738    eV        0.000 12.000
                            Buckingham rho  0.21660000    Ang       
                            Buckingham C     0.0000000    eV*Ang^6  
--------------------------------------------------------------------------------
O    s O    s Buckingham    Buckingham A     35546.853    eV        0.000 12.000
                            Buckingham rho  0.12056000    Ang       
                            Buckingham C     13.190000    eV*Ang^6  
--------------------------------------------------------------------------------
O    s Cl   s Buckingham    Buckingham A     47777.071    eV        0.000 12.000
                            Buckingham rho  0.24370000    Ang       
                            Buckingham C     62.200000    eV*Ang^6  
--------------------------------------------------------------------------------
Cl   s Cl   s Buckingham    Buckingham A     35155.254    eV        0.000 12.000
                            Buckingham rho  0.21360000    Ang       
                            Buckingham C     14.530000    eV*Ang^6  
--------------------------------------------------------------------------------

********************************************************************************
*  Output for configuration   1                                                *
********************************************************************************


  Components of energy : 

--------------------------------------------------------------------------------
  Interatomic potentials     =           1.21745275 eV    
  Monopole - monopole (real) =          -4.50527050 eV    
  Monopole - monopole (recip)=         -13.25862634 eV    
  Monopole - monopole (total)=         -17.76389683 eV    
--------------------------------------------------------------------------------
  Total lattice energy       =         -16.54644409 eV    
--------------------------------------------------------------------------------
  Total lattice energy       =           -1596.4789 kJ/(mole unit cells)
--------------------------------------------------------------------------------


  Number of variables =        1

  Maximum number of calculations  =          1000
  Maximum Hessian update interval =            10
  Maximum step size               =   1.000000000
  Maximum parameter tolerance     =   0.000010000
  Maximum function  tolerance     =   0.000010000
  Maximum gradient  tolerance     =   0.001000000
  Maximum gradient  component     =   0.010000000

  Symmetry constrained optimisation

  Symmetry used for second derivatives

  Cell parameters to be optimised using strains

  Newton-Raphson optimiser to be used

  BFGS hessian update to be used

  Lower half triangular hessian to be used

  Start of bulk optimisation :

  Cycle:      0 Energy:       -16.546444  Gnorm:      2.744113  CPU:    0.005
  ** Hessian calculated **
  Cycle:      1 Energy:       -16.570356  Gnorm:      0.030142  CPU:    0.006
  Cycle:      2 Energy:       -16.570358  Gnorm:      0.003103  CPU:    0.007


  **** Optimisation achieved ****


  Final energy =     -16.57035847 eV
  Final Gnorm  =       0.00000012

  Components of energy : 

--------------------------------------------------------------------------------
  Interatomic potentials     =           1.49654868 eV    
  Monopole - monopole (real) =          -4.58211982 eV    
  Monopole - monopole (recip)=         -13.48478733 eV    
  Monopole - monopole (total)=         -18.06690714 eV    
--------------------------------------------------------------------------------
  Total lattice energy       =         -16.57035847 eV    
--------------------------------------------------------------------------------
  Total lattice energy       =           -1598.7863 kJ/(mole unit cells)
--------------------------------------------------------------------------------

  Final asymmetric unit coordinates :

--------------------------------------------------------------------------------
   No.  Atomic        x           y           z         Radius
        Label       (Frac)      (Frac)      (Frac)       (Angs) 
--------------------------------------------------------------------------------
     1  Cl    c     0.000000    0.000000    0.000000    0.000000
     2  O     c     0.500000    0.500000    0.500000    0.000000
     3  Na    c     0.500000    0.500000    0.000000    0.000000
     4  Cl    s     0.000000    0.000000    0.000000    0.000000
     5  O     s     0.500000    0.500000    0.500000    0.000000
--------------------------------------------------------------------------------

  Final Cartesian lattice vectors (Angstroms) :

        4.428461    0.000000    0.000000
        0.000000    4.428461    0.000000
        0.000000    0.000000    4.428461


  Final cell parameters and derivatives :

--------------------------------------------------------------------------------
       a            4.428461 Angstrom     dE/de1(xx)     0.000000 eV/strain
       b            4.428461 Angstrom     dE/de2(yy)     0.000000 eV/strain
       c            4.428461 Angstrom     dE/de3(zz)     0.000000 eV/strain
       alpha       90.000000 Degrees      dE/de4(yz)     0.000000 eV/strain
       beta        90.000000 Degrees      dE/de5(xz)     0.000000 eV/strain
       gamma       90.000000 Degrees      dE/de6(xy)     0.000000 eV/strain
--------------------------------------------------------------------------------

  Primitive cell volume =            86.847723 Angs**3

  Density of cell =      2.302482 g/cm**3

  Non-primitive cell volume =            86.847723 Angs**3


  Final internal derivatives :

--------------------------------------------------------------------------------
   No.  Atomic          a             b             c           Radius
        Label          (eV)          (eV)          (eV)        (eV/Angs)
--------------------------------------------------------------------------------
      1 Cl    c       0.000000      0.000000      0.000000      0.000000
      2 O     c       0.000000      0.000000      0.000000      0.000000
      3 Na    c       0.000000      0.000000      0.000000      0.000000
      4 Cl    s       0.000000      0.000000      0.000000      0.000000
      5 O     s       0.000000      0.000000      0.000000      0.000000
--------------------------------------------------------------------------------
  Maximum abs         0.000000      0.000000      0.000000      0.000000
--------------------------------------------------------------------------------

  Comparison of initial and final structures : 

--------------------------------------------------------------------------------
  Parameter   Initial value   Final value   Difference    Units      Percent
--------------------------------------------------------------------------------
    Volume        91.368216     86.847723    -4.520493    Angs**3     -4.95
    a              4.504000      4.428461    -0.075539    Angstroms   -1.68
    b              4.504000      4.428461    -0.075539    Angstroms   -1.68
    c              4.504000      4.428461    -0.075539    Angstroms   -1.68
    alpha         90.000000     90.000000     0.000000    Degrees      0.00
    beta          90.000000     90.000000     0.000000    Degrees      0.00
    gamma         90.000000     90.000000     0.000000    Degrees      0.00
      1 x          0.000000      0.000000     0.000000    Fractional   0.00
      1 y          0.000000      0.000000     0.000000    Fractional   0.00
      1 z          0.000000      0.000000     0.000000    Fractional   0.00
      2 x          0.500000      0.500000     0.000000    Fractional   0.00
      2 y          0.500000      0.500000     0.000000    Fractional   0.00
      2 z          0.500000      0.500000     0.000000    Fractional   0.00
      3 x          0.500000      0.500000     0.000000    Fractional   0.00
      3 y          0.500000      0.500000     0.000000    Fractional   0.00
      3 z          0.000000      0.000000     0.000000    Fractional   0.00
      4 x          0.000000      0.000000     0.000000    Fractional   0.00
      4 y          0.000000      0.000000     0.000000    Fractional   0.00
      4 z          0.000000      0.000000     0.000000    Fractional   0.00
      5 x          0.500000      0.500000     0.000000    Fractional   0.00
      5 y          0.500000      0.500000     0.000000    Fractional   0.00
      5 z          0.500000      0.500000     0.000000    Fractional   0.00
--------------------------------------------------------------------------------


  Born effective charge tensors : 

-------------------------------------------------------------------------------
  Atom             x           y             z
-------------------------------------------------------------------------------
    1 Cl    x      -0.6995     -0.0000     -0.0000
            y      -0.0000     -0.6995     -0.0000
            z      -0.0000     -0.0000     -0.6995
-------------------------------------------------------------------------------
    2 O     x      -1.0805      0.0000      0.0000
            y       0.0000     -1.0805      0.0000
            z       0.0000      0.0000     -1.0805
-------------------------------------------------------------------------------
    3 Na    x       0.6486      0.0000     -0.0000
            y       0.0000      0.6486      0.0000
            z      -0.0000      0.0000      0.4827
-------------------------------------------------------------------------------




  Elastic Constant Matrix: (Units=GPa)

-------------------------------------------------------------------------------
  Indices      1         2         3         4         5         6    
-------------------------------------------------------------------------------
       1     77.0757   16.0262   16.0262   -0.0000   -0.0000   -0.0000
       2     16.0262   77.0757   16.0262   -0.0000   -0.0000    0.0000
       3     16.0262   16.0262   77.0757    0.0000    0.0000    0.0000
       4     -0.0000   -0.0000    0.0000   16.0262    0.0000   -0.0000
       5     -0.0000   -0.0000    0.0000    0.0000   16.0262   -0.0000
       6     -0.0000    0.0000    0.0000   -0.0000   -0.0000   16.0262
-------------------------------------------------------------------------------


  Elastic Compliance Matrix: (Units=1/GPa)

-------------------------------------------------------------------------------
  Indices      1         2         3         4         5         6    
-------------------------------------------------------------------------------
       1    0.013975 -0.002406 -0.002406  0.000000  0.000000  0.000000
       2   -0.002406  0.013975 -0.002406  0.000000  0.000000 -0.000000
       3   -0.002406 -0.002406  0.013975 -0.000000 -0.000000 -0.000000
       4    0.000000  0.000000 -0.000000  0.062398 -0.000000  0.000000
       5    0.000000  0.000000 -0.000000 -0.000000  0.062398  0.000000
       6    0.000000 -0.000000 -0.000000  0.000000  0.000000  0.062398
-------------------------------------------------------------------------------

  Mechanical properties :

-------------------------------------------------------------------------------
  Convention :                    Reuss         Voigt         Hill
-------------------------------------------------------------------------------
  Bulk  Modulus (GPa)     =      36.37603      36.37603      36.37603
  Shear Modulus (GPa)     =      19.78520      21.82562      20.80541
-------------------------------------------------------------------------------
  Velocity S-wave (km/s)  =       2.93138       3.07883       3.00601
  Velocity P-wave (km/s)  =       5.22072       5.33268       5.27700
-------------------------------------------------------------------------------
  Compressibility (1/GPa) =    0.02749063
-------------------------------------------------------------------------------
  Stress axis :                     x             y             z
-------------------------------------------------------------------------------
  Youngs Moduli (GPa)     =      71.55833      71.55833      71.55833
-------------------------------------------------------------------------------
  Poissons Ratio (x)      =                     0.17214       0.17214
  Poissons Ratio (y)      =       0.17214                     0.17214
  Poissons Ratio (z)      =       0.17214       0.17214
-------------------------------------------------------------------------------


  Piezoelectric Strain Matrix: (Units=C/m**2)

-------------------------------------------------------------------------------
  Indices      1         2         3         4         5         6    
-------------------------------------------------------------------------------
       x    -0.00000  -0.00000  -0.00000  -0.00000  -0.00000   0.00000
       y     0.00000   0.00000   0.00000  -0.00000  -0.00000  -0.00000
       z     0.00000   0.00000  -0.00000   0.00000  -0.00000  -0.00000
-------------------------------------------------------------------------------


  Piezoelectric Stress Matrix: (Units=10**-11 C/N)

-------------------------------------------------------------------------------
  Indices      1         2         3         4         5         6    
-------------------------------------------------------------------------------
       x    -0.00000  -0.00000  -0.00000  -0.00000  -0.00000   0.00000
       y     0.00000   0.00000   0.00000  -0.00000  -0.00000  -0.00000
       z     0.00000   0.00000  -0.00000   0.00000  -0.00000  -0.00000
-------------------------------------------------------------------------------


  Static dielectric constant tensor : 

-------------------------------------------------------------------------------
              x         y         z
-------------------------------------------------------------------------------
       x     5.77918   0.00000   0.00000
       y     0.00000   5.77918   0.00000
       z     0.00000   0.00000   5.77918
--------------------------------------------------------------------------------

  High frequency dielectric constant tensor : 

-------------------------------------------------------------------------------
              x         y         z
-------------------------------------------------------------------------------
       x     1.30980  -0.00000  -0.00000
       y    -0.00000   1.30980  -0.00000
       z    -0.00000  -0.00000   1.30980
-------------------------------------------------------------------------------

  Static refractive indices : 

-------------------------------------------------------------------------------
    1 =    2.40399      2 =    2.40399      3 =    2.40399
-------------------------------------------------------------------------------

  High frequency refractive indices : 

-------------------------------------------------------------------------------
    1 =    1.14447      2 =    1.14447      3 =    1.14447
-------------------------------------------------------------------------------


  Time to end of optimisation =       0.0096 seconds

********************************************************************************
*  Defect calculation for configuration   1 :                                  *
********************************************************************************

  Total number of defects =      1

  Total charge on defect  =  -0.67

  Defect centre is at   0.5000   0.5000   0.0000  Frac

  Region 1 radius =  11.0000      Number of ions =    424

  Number of symmetry inequivalent region 1 ions  =     51

  Region 2 radius =  24.0000      Number of ions =   4254

  Number of symmetry inequivalent region 2a ions =    355

  Region 2a mode = 4 : screened electrostatics due to region 1 
                       neglect correction to region 1 forces from 2a
                       region 2a displacements based on defects only

  Region 2a ions will only interact with defects in region 1

  Vacancies:

--------------------------------------------------------------------------------
    Specification type     Symbol/Number         x          y          z
--------------------------------------------------------------------------------
    Fractional                               0.500000   0.500000   0.000000
--------------------------------------------------------------------------------


  Symmetry reduced region 1 (Relative to defect centre) :

--------------------------------------------------------------------------------
   No.   Atomic       x            y             z       Radius  Multiplicity   
         Label      (Angs)       (Angs)        (Angs)    (Angs)     
--------------------------------------------------------------------------------
     1  O     c      0.0000       0.0000      -2.2142 *  0.0000     2          
     2  Cl    c      2.2142 *     2.2142       0.0000    0.0000     4          
     3  Na    c      2.2142 *     0.0000      -2.2142 *  0.0000     8          
     4  Na    c      0.0000       0.0000       4.4285 *  0.0000     2          
     5  Na    c      0.0000       4.4285 *     0.0000    0.0000     4          
     6  O     c      0.0000       4.4285 *    -2.2142 *  0.0000     8          
     7  Cl    c      2.2142 *     2.2142       4.4285 *  0.0000     8          
     8  Na    c      2.2142 *     4.4285 *    -2.2142 *  0.0000    16          
     9  Na    c      0.0000       4.4285 *     4.4285 *  0.0000     8          
    10  Na    c      4.4285 *     4.4285       0.0000    0.0000     4          
    11  O     c      4.4285 *     4.4285      -2.2142 *  0.0000     8          
    12  O     c      0.0000       0.0000       6.6427 *  0.0000     2          
    13  Cl    c      2.2142 *     6.6427 *     0.0000    0.0000     8          
    14  Na    c      2.2142 *     0.0000       6.6427 *  0.0000     8          
    15  Na    c      6.6427 *     0.0000      -2.2142 *  0.0000     8          
    16  Na    c      4.4285 *     4.4285       4.4285 *  0.0000     8          
    17  O     c      0.0000       4.4285 *     6.6427 *  0.0000     8          
    18  Cl    c      2.2142 *     6.6427 *     4.4285 *  0.0000    16          
    19  Na    c      2.2142 *     4.4285 *     6.6427 *  0.0000    16          
    20  Na    c      6.6427 *     4.4285 *    -2.2142 *  0.0000    16          
    21  Na    c      0.0000       0.0000       8.8569 *  0.0000     2          
    22  Na    c      0.0000       8.8569 *     0.0000    0.0000     4          
    23  O     c      0.0000       8.8569 *    -2.2142 *  0.0000     8          
    24  O     c      4.4285 *     4.4285       6.6427 *  0.0000     8          
    25  Cl    c      2.2142 *     2.2142       8.8569 *  0.0000     8          
    26  Na    c      2.2142 *     8.8569 *    -2.2142 *  0.0000    16          
    27  Cl    c      6.6427 *     6.6427       0.0000    0.0000     4          
    28  Na    c      6.6427 *     0.0000       6.6427 *  0.0000     8          
    29  Na    c      0.0000       4.4285 *     8.8569 *  0.0000     8          
    30  Na    c      0.0000       8.8569 *     4.4285 *  0.0000     8          
    31  Na    c      4.4285 *     8.8569 *     0.0000    0.0000     8          
    32  O     c      4.4285 *     8.8569 *    -2.2142 *  0.0000    16          
    33  Cl    c      6.6427 *     6.6427       4.4285 *  0.0000     8          
    34  Na    c      6.6427 *     4.4285 *     6.6427 *  0.0000    16          
    35  Na    c      4.4285 *     4.4285       8.8569 *  0.0000     8          
    36  Na    c      4.4285 *     8.8569 *     4.4285 *  0.0000    16          
    37  O     s      0.0000       0.0000      -2.2142 *  0.0000     2          
    38  Cl    s      2.2142 *     2.2142       0.0000    0.0000     4          
    39  O     s      0.0000       4.4285 *    -2.2142 *  0.0000     8          
    40  Cl    s      2.2142 *     2.2142       4.4285 *  0.0000     8          
    41  O     s      4.4285 *     4.4285      -2.2142 *  0.0000     8          
    42  O     s      0.0000       0.0000       6.6427 *  0.0000     2          
    43  Cl    s      2.2142 *     6.6427 *     0.0000    0.0000     8          
    44  O     s      0.0000       4.4285 *     6.6427 *  0.0000     8          
    45  Cl    s      2.2142 *     6.6427 *     4.4285 *  0.0000    16          
    46  O     s      0.0000       8.8569 *    -2.2142 *  0.0000     8          
    47  O     s      4.4285 *     4.4285       6.6427 *  0.0000     8          
    48  Cl    s      2.2142 *     2.2142       8.8569 *  0.0000     8          
    49  Cl    s      6.6427 *     6.6427       0.0000    0.0000     4          
    50  O     s      4.4285 *     8.8569 *    -2.2142 *  0.0000    16          
    51  Cl    s      6.6427 *     6.6427       4.4285 *  0.0000     8          
--------------------------------------------------------------------------------


  Constraints on symmetry reduced coordinates :

--------------------------------------------------------------------------------
  Constraint no.      Unconstrained     Constrained    Coefficient    
                         Variable         Variable
--------------------------------------------------------------------------------
           1                 2 x             2 y         1.00000
           2                 7 x             7 y         1.00000
           3                10 x            10 y         1.00000
           4                11 x            11 y         1.00000
           5                16 x            16 y         1.00000
           6                24 x            24 y         1.00000
           7                25 x            25 y         1.00000
           8                27 x            27 y         1.00000
           9                33 x            33 y         1.00000
          10                35 x            35 y         1.00000
          11                38 x            38 y         1.00000
          12                40 x            40 y         1.00000
          13                41 x            41 y         1.00000
          14                47 x            47 y         1.00000
          15                48 x            48 y         1.00000
          16                49 x            49 y         1.00000
          17                51 x            51 y         1.00000
--------------------------------------------------------------------------------


  Components of defect energy : 

--------------------------------------------------------------------------------
  Region 1 - region 1                   =     -5.72217905 eV
  Region 1 - region 2a (unrelaxed)      =      9.81537831 eV
  Region 1 - 2a (relaxed - correction)  =     -0.27316759 eV
  Region 1 (Total)                      =      3.82003166 eV
  Region 2a                             =      0.13654047 eV
  Region 2b                             =     -0.11154786 eV
--------------------------------------------------------------------------------
  Total defect energy                   =      3.84502427 eV
--------------------------------------------------------------------------------

  Largest displacement in region 2 =   0.0200 Angstroms


  Number of variables =       99

  Maximum number of calculations  =        1000
  Maximum Hessian update interval =          10
  Maximum step size               =   1.0000000
  Maximum parameter tolerance     =   0.0000100
  Maximum function  tolerance     =   0.0000100
  Maximum gradient  tolerance     =   0.0010000

  Symmetry adapted optimisation

  Symmetry to be used for second derivatives

  Newton-Raphson optimiser to be used

  BFGS hessian update to be used

  Lower half triangular hessian to be used

  Start of defect optimisation :

  Cycle:      0 Defect Energy:   3.845024  Gnorm:     0.165474  CPU:    0.358
  ** Hessian calculated **
  Cycle:      1 Defect Energy:   2.698915  Gnorm:     0.072243  CPU:    0.868
  Cycle:      2 Defect Energy:   2.478358  Gnorm:     0.015372  CPU:    2.135
  Cycle:      3 Defect Energy:   2.447973  Gnorm:     0.007789  CPU:    3.428
  Cycle:      4 Defect Energy:   2.442147  Gnorm:     0.005289  CPU:    4.715
  Cycle:      5 Defect Energy:   2.440010  Gnorm:     0.003685  CPU:    5.879
  Cycle:      6 Defect Energy:   2.439054  Gnorm:     0.002574  CPU:    6.271
  Cycle:      7 Defect Energy:   2.438595  Gnorm:     0.001789  CPU:    6.578
  Cycle:      8 Defect Energy:   2.438380  Gnorm:     0.001237  CPU:    6.883
  Cycle:      9 Defect Energy:   2.438270  Gnorm:     0.000849  CPU:    7.190
  Cycle:     10 Defect Energy:   2.438221  Gnorm:     0.000581  CPU:    7.501
  ** Hessian calculated **
  Cycle:     11 Defect Energy:   2.438198  Gnorm:     0.000406  CPU:    8.144
  Cycle:     12 Defect Energy:   2.438185  Gnorm:     0.000284  CPU:    8.451
  Cycle:     13 Defect Energy:   2.438179  Gnorm:     0.000199  CPU:    8.755


  **** Optimisation achieved ****


  Final defect energy  =        2.43817582
  Final defect Gnorm   =        0.00013936

  Components of defect energy : 

--------------------------------------------------------------------------------
  Region 1 - region 1                   =     -6.54640228 eV
  Region 1 - region 2a (unrelaxed)      =      9.22202120 eV
  Region 1 - 2a (relaxed - correction)  =     -0.25189491 eV
  Region 1 (Total)                      =      2.42372401 eV
  Region 2a                             =      0.12599966 eV
  Region 2b                             =     -0.11154786 eV
--------------------------------------------------------------------------------
  Total defect energy                   =      2.43817582 eV
--------------------------------------------------------------------------------

  Largest displacement in region 2 =   0.0200 Angstroms

  Final coordinates of region 1 :

--------------------------------------------------------------------------------
   No.  Atomic        x           y           z          Radius      Charge
        Label       (Angs)      (Angs)      (Angs)       (Angs)       (e) 
--------------------------------------------------------------------------------
     1  O     c     2.214230    2.214230   -2.296096    0.000000    0.489000
     2  O     c     2.214230    2.214230    2.296096    0.000000    0.489000
     3  Cl    c     4.554730    4.554730    0.000000    0.000000    0.615000
     4  Cl    c     4.554730   -0.126270    0.000000    0.000000    0.615000
     5  Cl    c    -0.126270    4.554730    0.000000    0.000000    0.615000
     6  Cl    c    -0.126270   -0.126270    0.000000    0.000000    0.615000
     7  Na    c     4.363519    2.214230   -1.902581    0.000000    0.670000
     8  Na    c     4.363519    2.214230    1.902581    0.000000    0.670000
     9  Na    c     0.064942    2.214230   -1.902581    0.000000    0.670000
    10  Na    c     0.064942    2.214230    1.902581    0.000000    0.670000
    11  Na    c     2.214230    4.363519   -1.902581    0.000000    0.670000
    12  Na    c     2.214230    4.363519    1.902581    0.000000    0.670000
    13  Na    c     2.214230    0.064942   -1.902581    0.000000    0.670000
    14  Na    c     2.214230    0.064942    1.902581    0.000000    0.670000
    15  Na    c     2.214230    2.214230    4.443832    0.000000    0.670000
    16  Na    c     2.214230    2.214230   -4.443832    0.000000    0.670000
    17  Na    c     2.214230    6.824353    0.000000    0.000000    0.670000
    18  Na    c     2.214230   -2.395892    0.000000    0.000000    0.670000
    19  Na    c     6.824353    2.214230    0.000000    0.000000    0.670000
    20  Na    c    -2.395892    2.214230    0.000000    0.000000    0.670000
    21  O     c     2.214230    6.614287   -2.198544    0.000000    0.489000
    22  O     c     2.214230    6.614287    2.198544    0.000000    0.489000
    23  O     c     2.214230   -2.185826   -2.198544    0.000000    0.489000
    24  O     c     2.214230   -2.185826    2.198544    0.000000    0.489000
    25  O     c     6.614287    2.214230   -2.198544    0.000000    0.489000
    26  O     c     6.614287    2.214230    2.198544    0.000000    0.489000
    27  O     c    -2.185826    2.214230   -2.198544    0.000000    0.489000
    28  O     c    -2.185826    2.214230    2.198544    0.000000    0.489000
    29  Cl    c     4.506782    4.506782    4.523858    0.000000    0.615000
    30  Cl    c     4.506782    4.506782   -4.523858    0.000000    0.615000
    31  Cl    c     4.506782   -0.078321    4.523858    0.000000    0.615000
    32  Cl    c     4.506782   -0.078321   -4.523858    0.000000    0.615000
    33  Cl    c    -0.078321    4.506782    4.523858    0.000000    0.615000
    34  Cl    c    -0.078321    4.506782   -4.523858    0.000000    0.615000
    35  Cl    c    -0.078321   -0.078321    4.523858    0.000000    0.615000
    36  Cl    c    -0.078321   -0.078321   -4.523858    0.000000    0.615000
    37  Na    c     4.426226    6.600959   -2.215058    0.000000    0.670000
    38  Na    c     4.426226    6.600959    2.215058    0.000000    0.670000
    39  Na    c     4.426226   -2.172498   -2.215058    0.000000    0.670000
    40  Na    c     4.426226   -2.172498    2.215058    0.000000    0.670000
    41  Na    c     0.002235    6.600959   -2.215058    0.000000    0.670000
    42  Na    c     0.002235    6.600959    2.215058    0.000000    0.670000
    43  Na    c     0.002235   -2.172498   -2.215058    0.000000    0.670000
    44  Na    c     0.002235   -2.172498    2.215058    0.000000    0.670000
    45  Na    c     6.600959    4.426226   -2.215058    0.000000    0.670000
    46  Na    c     6.600959    4.426226    2.215058    0.000000    0.670000
    47  Na    c     6.600959    0.002235   -2.215058    0.000000    0.670000
    48  Na    c     6.600959    0.002235    2.215058    0.000000    0.670000
    49  Na    c    -2.172498    4.426226   -2.215058    0.000000    0.670000
    50  Na    c    -2.172498    4.426226    2.215058    0.000000    0.670000
    51  Na    c    -2.172498    0.002235   -2.215058    0.000000    0.670000
    52  Na    c    -2.172498    0.002235    2.215058    0.000000    0.670000
    53  Na    c     2.214230    6.429157    4.404980    0.000000    0.670000
    54  Na    c     2.214230    6.429157   -4.404980    0.000000    0.670000
    55  Na    c     2.214230   -2.000696    4.404980    0.000000    0.670000
    56  Na    c     2.214230   -2.000696   -4.404980    0.000000    0.670000
    57  Na    c     6.429157    2.214230    4.404980    0.000000    0.670000
    58  Na    c     6.429157    2.214230   -4.404980    0.000000    0.670000
    59  Na    c    -2.000696    2.214230    4.404980    0.000000    0.670000
    60  Na    c    -2.000696    2.214230   -4.404980    0.000000    0.670000
    61  Na    c     6.630730    6.630730    0.000000    0.000000    0.670000
    62  Na    c     6.630730   -2.202269    0.000000    0.000000    0.670000
    63  Na    c    -2.202269    6.630730    0.000000    0.000000    0.670000
    64  Na    c    -2.202269   -2.202269    0.000000    0.000000    0.670000
    65  O     c     6.647980    6.647980   -2.219409    0.000000    0.489000
    66  O     c     6.647980    6.647980    2.219409    0.000000    0.489000
    67  O     c     6.647980   -2.219519   -2.219409    0.000000    0.489000
    68  O     c     6.647980   -2.219519    2.219409    0.000000    0.489000
    69  O     c    -2.219519    6.647980   -2.219409    0.000000    0.489000
    70  O     c    -2.219519    6.647980    2.219409    0.000000    0.489000
    71  O     c    -2.219519   -2.219519   -2.219409    0.000000    0.489000
    72  O     c    -2.219519   -2.219519    2.219409    0.000000    0.489000
    73  O     c     2.214230    2.214230    6.672616    0.000000    0.489000
    74  O     c     2.214230    2.214230   -6.672616    0.000000    0.489000
    75  Cl    c     4.440594    8.889282    0.000000    0.000000    0.615000
    76  Cl    c     4.440594   -4.460821    0.000000    0.000000    0.615000
    77  Cl    c     8.889282    4.440594    0.000000    0.000000    0.615000
    78  Cl    c     8.889282   -0.012133    0.000000    0.000000    0.615000
    79  Cl    c    -0.012133    8.889282    0.000000    0.000000    0.615000
    80  Cl    c    -0.012133   -4.460821    0.000000    0.000000    0.615000
    81  Cl    c    -4.460821    4.440594    0.000000    0.000000    0.615000
    82  Cl    c    -4.460821   -0.012133    0.000000    0.000000    0.615000
    83  Na    c     4.421048    2.214230    6.684364    0.000000    0.670000
    84  Na    c     4.421048    2.214230   -6.684364    0.000000    0.670000
    85  Na    c     0.007413    2.214230    6.684364    0.000000    0.670000
    86  Na    c     0.007413    2.214230   -6.684364    0.000000    0.670000
    87  Na    c     2.214230    4.421048    6.684364    0.000000    0.670000
    88  Na    c     2.214230    4.421048   -6.684364    0.000000    0.670000
    89  Na    c     2.214230    0.007413    6.684364    0.000000    0.670000
    90  Na    c     2.214230    0.007413   -6.684364    0.000000    0.670000
    91  Na    c     8.835484    2.214230   -2.349355    0.000000    0.670000
    92  Na    c     8.835484    2.214230    2.349355    0.000000    0.670000
    93  Na    c    -4.407023    2.214230   -2.349355    0.000000    0.670000
    94  Na    c    -4.407023    2.214230    2.349355    0.000000    0.670000
    95  Na    c     2.214230    8.835484   -2.349355    0.000000    0.670000
    96  Na    c     2.214230    8.835484    2.349355    0.000000    0.670000
    97  Na    c     2.214230   -4.407023   -2.349355    0.000000    0.670000
    98  Na    c     2.214230   -4.407023    2.349355    0.000000    0.670000
    99  Na    c     6.641592    6.641592    4.429846    0.000000    0.670000
   100  Na    c     6.641592    6.641592   -4.429846    0.000000    0.670000
   101  Na    c     6.641592   -2.213131    4.429846    0.000000    0.670000
   102  Na    c     6.641592   -2.213131   -4.429846    0.000000    0.670000
   103  Na    c    -2.213131    6.641592    4.429846    0.000000    0.670000
   104  Na    c    -2.213131    6.641592   -4.429846    0.000000    0.670000
   105  Na    c    -2.213131   -2.213131    4.429846    0.000000    0.670000
   106  Na    c    -2.213131   -2.213131   -4.429846    0.000000    0.670000
   107  O     c     2.214230    6.633431    6.629361    0.000000    0.489000
   108  O     c     2.214230    6.633431   -6.629361    0.000000    0.489000
   109  O     c     2.214230   -2.204970    6.629361    0.000000    0.489000
   110  O     c     2.214230   -2.204970   -6.629361    0.000000    0.489000
   111  O     c     6.633431    2.214230    6.629361    0.000000    0.489000
   112  O     c     6.633431    2.214230   -6.629361    0.000000    0.489000
   113  O     c    -2.204970    2.214230    6.629361    0.000000    0.489000
   114  O     c    -2.204970    2.214230   -6.629361    0.000000    0.489000
   115  Cl    c     4.442220    8.895397    4.432149    0.000000    0.615000
   116  Cl    c     4.442220    8.895397   -4.432149    0.000000    0.615000
   117  Cl    c     4.442220   -4.466936    4.432149    0.000000    0.615000
   118  Cl    c     4.442220   -4.466936   -4.432149    0.000000    0.615000
   119  Cl    c     8.895397    4.442220    4.432149    0.000000    0.615000
   120  Cl    c     8.895397    4.442220   -4.432149    0.000000    0.615000
   121  Cl    c     8.895397   -0.013759    4.432149    0.000000    0.615000
   122  Cl    c     8.895397   -0.013759   -4.432149    0.000000    0.615000
   123  Cl    c    -0.013759    8.895397    4.432149    0.000000    0.615000
   124  Cl    c    -0.013759    8.895397   -4.432149    0.000000    0.615000
   125  Cl    c    -0.013759   -4.466936    4.432149    0.000000    0.615000
   126  Cl    c    -0.013759   -4.466936   -4.432149    0.000000    0.615000
   127  Cl    c    -4.466936    4.442220    4.432149    0.000000    0.615000
   128  Cl    c    -4.466936    4.442220   -4.432149    0.000000    0.615000
   129  Cl    c    -4.466936   -0.013759    4.432149    0.000000    0.615000
   130  Cl    c    -4.466936   -0.013759   -4.432149    0.000000    0.615000
   131  Na    c     4.429075    6.639845    6.614746    0.000000    0.670000
   132  Na    c     4.429075    6.639845   -6.614746    0.000000    0.670000
   133  Na    c     4.429075   -2.211384    6.614746    0.000000    0.670000
   134  Na    c     4.429075   -2.211384   -6.614746    0.000000    0.670000
   135  Na    c    -0.000614    6.639845    6.614746    0.000000    0.670000
   136  Na    c    -0.000614    6.639845   -6.614746    0.000000    0.670000
   137  Na    c    -0.000614   -2.211384    6.614746    0.000000    0.670000
   138  Na    c    -0.000614   -2.211384   -6.614746    0.000000    0.670000
   139  Na    c     6.639845    4.429075    6.614746    0.000000    0.670000
   140  Na    c     6.639845    4.429075   -6.614746    0.000000    0.670000
   141  Na    c     6.639845   -0.000614    6.614746    0.000000    0.670000
   142  Na    c     6.639845   -0.000614   -6.614746    0.000000    0.670000
   143  Na    c    -2.211384    4.429075    6.614746    0.000000    0.670000
   144  Na    c    -2.211384    4.429075   -6.614746    0.000000    0.670000
   145  Na    c    -2.211384   -0.000614    6.614746    0.000000    0.670000
   146  Na    c    -2.211384   -0.000614   -6.614746    0.000000    0.670000
   147  Na    c     8.855413    6.631212   -2.207646    0.000000    0.670000
   148  Na    c     8.855413    6.631212    2.207646    0.000000    0.670000
   149  Na    c     8.855413   -2.202751   -2.207646    0.000000    0.670000
   150  Na    c     8.855413   -2.202751    2.207646    0.000000    0.670000
   151  Na    c    -4.426953    6.631212   -2.207646    0.000000    0.670000
   152  Na    c    -4.426953    6.631212    2.207646    0.000000    0.670000
   153  Na    c    -4.426953   -2.202751   -2.207646    0.000000    0.670000
   154  Na    c    -4.426953   -2.202751    2.207646    0.000000    0.670000
   155  Na    c     6.631212    8.855413   -2.207646    0.000000    0.670000
   156  Na    c     6.631212    8.855413    2.207646    0.000000    0.670000
   157  Na    c     6.631212   -4.426953   -2.207646    0.000000    0.670000
   158  Na    c     6.631212   -4.426953    2.207646    0.000000    0.670000
   159  Na    c    -2.202751    8.855413   -2.207646    0.000000    0.670000
   160  Na    c    -2.202751    8.855413    2.207646    0.000000    0.670000
   161  Na    c    -2.202751   -4.426953   -2.207646    0.000000    0.670000
   162  Na    c    -2.202751   -4.426953    2.207646    0.000000    0.670000
   163  Na    c     2.214230    2.214230    8.873799    0.000000    0.670000
   164  Na    c     2.214230    2.214230   -8.873799    0.000000    0.670000
   165  Na    c     2.214230   10.985864    0.000000    0.000000    0.670000
   166  Na    c     2.214230   -6.557403    0.000000    0.000000    0.670000
   167  Na    c    10.985864    2.214230    0.000000    0.000000    0.670000
   168  Na    c    -6.557403    2.214230    0.000000    0.000000    0.670000
   169  O     c     2.214230   11.062450   -2.220810    0.000000    0.489000
   170  O     c     2.214230   11.062450    2.220810    0.000000    0.489000
   171  O     c     2.214230   -6.633989   -2.220810    0.000000    0.489000
   172  O     c     2.214230   -6.633989    2.220810    0.000000    0.489000
   173  O     c    11.062450    2.214230   -2.220810    0.000000    0.489000
   174  O     c    11.062450    2.214230    2.220810    0.000000    0.489000
   175  O     c    -6.633989    2.214230   -2.220810    0.000000    0.489000
   176  O     c    -6.633989    2.214230    2.220810    0.000000    0.489000
   177  O     c     6.648739    6.648739    6.646822    0.000000    0.489000
   178  O     c     6.648739    6.648739   -6.646822    0.000000    0.489000
   179  O     c     6.648739   -2.220278    6.646822    0.000000    0.489000
   180  O     c     6.648739   -2.220278   -6.646822    0.000000    0.489000
   181  O     c    -2.220278    6.648739    6.646822    0.000000    0.489000
   182  O     c    -2.220278    6.648739   -6.646822    0.000000    0.489000
   183  O     c    -2.220278   -2.220278    6.646822    0.000000    0.489000
   184  O     c    -2.220278   -2.220278   -6.646822    0.000000    0.489000
   185  Cl    c     4.430549    4.430549    8.891171    0.000000    0.615000
   186  Cl    c     4.430549    4.430549   -8.891171    0.000000    0.615000
   187  Cl    c     4.430549   -0.002088    8.891171    0.000000    0.615000
   188  Cl    c     4.430549   -0.002088   -8.891171    0.000000    0.615000
   189  Cl    c    -0.002088    4.430549    8.891171    0.000000    0.615000
   190  Cl    c    -0.002088    4.430549   -8.891171    0.000000    0.615000
   191  Cl    c    -0.002088   -0.002088    8.891171    0.000000    0.615000
   192  Cl    c    -0.002088   -0.002088   -8.891171    0.000000    0.615000
   193  Na    c     4.427132   11.058268   -2.197327    0.000000    0.670000
   194  Na    c     4.427132   11.058268    2.197327    0.000000    0.670000
   195  Na    c     4.427132   -6.629807   -2.197327    0.000000    0.670000
   196  Na    c     4.427132   -6.629807    2.197327    0.000000    0.670000
   197  Na    c     0.001329   11.058268   -2.197327    0.000000    0.670000
   198  Na    c     0.001329   11.058268    2.197327    0.000000    0.670000
   199  Na    c     0.001329   -6.629807   -2.197327    0.000000    0.670000
   200  Na    c     0.001329   -6.629807    2.197327    0.000000    0.670000
   201  Na    c    11.058268    4.427132   -2.197327    0.000000    0.670000
   202  Na    c    11.058268    4.427132    2.197327    0.000000    0.670000
   203  Na    c    11.058268    0.001329   -2.197327    0.000000    0.670000
   204  Na    c    11.058268    0.001329    2.197327    0.000000    0.670000
   205  Na    c    -6.629807    4.427132   -2.197327    0.000000    0.670000
   206  Na    c    -6.629807    4.427132    2.197327    0.000000    0.670000
   207  Na    c    -6.629807    0.001329   -2.197327    0.000000    0.670000
   208  Na    c    -6.629807    0.001329    2.197327    0.000000    0.670000
   209  Cl    c     8.876185    8.876185    0.000000    0.000000    0.615000
   210  Cl    c     8.876185   -4.447724    0.000000    0.000000    0.615000
   211  Cl    c    -4.447724    8.876185    0.000000    0.000000    0.615000
   212  Cl    c    -4.447724   -4.447724    0.000000    0.000000    0.615000
   213  Na    c     8.845306    2.214230    6.563084    0.000000    0.670000
   214  Na    c     8.845306    2.214230   -6.563084    0.000000    0.670000
   215  Na    c    -4.416845    2.214230    6.563084    0.000000    0.670000
   216  Na    c    -4.416845    2.214230   -6.563084    0.000000    0.670000
   217  Na    c     2.214230    8.845306    6.563084    0.000000    0.670000
   218  Na    c     2.214230    8.845306   -6.563084    0.000000    0.670000
   219  Na    c     2.214230   -4.416845    6.563084    0.000000    0.670000
   220  Na    c     2.214230   -4.416845   -6.563084    0.000000    0.670000
   221  Na    c     2.214230    6.667135    8.846452    0.000000    0.670000
   222  Na    c     2.214230    6.667135   -8.846452    0.000000    0.670000
   223  Na    c     2.214230   -2.238674    8.846452    0.000000    0.670000
   224  Na    c     2.214230   -2.238674   -8.846452    0.000000    0.670000
   225  Na    c     6.667135    2.214230    8.846452    0.000000    0.670000
   226  Na    c     6.667135    2.214230   -8.846452    0.000000    0.670000
   227  Na    c    -2.238674    2.214230    8.846452    0.000000    0.670000
   228  Na    c    -2.238674    2.214230   -8.846452    0.000000    0.670000
   229  Na    c     2.214230   11.103022    4.430274    0.000000    0.670000
   230  Na    c     2.214230   11.103022   -4.430274    0.000000    0.670000
   231  Na    c     2.214230   -6.674561    4.430274    0.000000    0.670000
   232  Na    c     2.214230   -6.674561   -4.430274    0.000000    0.670000
   233  Na    c    11.103022    2.214230    4.430274    0.000000    0.670000
   234  Na    c    11.103022    2.214230   -4.430274    0.000000    0.670000
   235  Na    c    -6.674561    2.214230    4.430274    0.000000    0.670000
   236  Na    c    -6.674561    2.214230   -4.430274    0.000000    0.670000
   237  Na    c     6.645846   11.062972    0.000000    0.000000    0.670000
   238  Na    c     6.645846   -6.634511    0.000000    0.000000    0.670000
   239  Na    c    11.062972    6.645846    0.000000    0.000000    0.670000
   240  Na    c    11.062972   -2.217385    0.000000    0.000000    0.670000
   241  Na    c    -2.217385   11.062972    0.000000    0.000000    0.670000
   242  Na    c    -2.217385   -6.634511    0.000000    0.000000    0.670000
   243  Na    c    -6.634511    6.645846    0.000000    0.000000    0.670000
   244  Na    c    -6.634511   -2.217385    0.000000    0.000000    0.670000
   245  O     c     6.644793   11.074462   -2.213079    0.000000    0.489000
   246  O     c     6.644793   11.074462    2.213079    0.000000    0.489000
   247  O     c     6.644793   -6.646001   -2.213079    0.000000    0.489000
   248  O     c     6.644793   -6.646001    2.213079    0.000000    0.489000
   249  O     c    11.074462    6.644793   -2.213079    0.000000    0.489000
   250  O     c    11.074462    6.644793    2.213079    0.000000    0.489000
   251  O     c    11.074462   -2.216332   -2.213079    0.000000    0.489000
   252  O     c    11.074462   -2.216332    2.213079    0.000000    0.489000
   253  O     c    -2.216332   11.074462   -2.213079    0.000000    0.489000
   254  O     c    -2.216332   11.074462    2.213079    0.000000    0.489000
   255  O     c    -2.216332   -6.646001   -2.213079    0.000000    0.489000
   256  O     c    -2.216332   -6.646001    2.213079    0.000000    0.489000
   257  O     c    -6.646001    6.644793   -2.213079    0.000000    0.489000
   258  O     c    -6.646001    6.644793    2.213079    0.000000    0.489000
   259  O     c    -6.646001   -2.216332   -2.213079    0.000000    0.489000
   260  O     c    -6.646001   -2.216332    2.213079    0.000000    0.489000
   261  Cl    c     8.877643    8.877643    4.440709    0.000000    0.615000
   262  Cl    c     8.877643    8.877643   -4.440709    0.000000    0.615000
   263  Cl    c     8.877643   -4.449182    4.440709    0.000000    0.615000
   264  Cl    c     8.877643   -4.449182   -4.440709    0.000000    0.615000
   265  Cl    c    -4.449182    8.877643    4.440709    0.000000    0.615000
   266  Cl    c    -4.449182    8.877643   -4.440709    0.000000    0.615000
   267  Cl    c    -4.449182   -4.449182    4.440709    0.000000    0.615000
   268  Cl    c    -4.449182   -4.449182   -4.440709    0.000000    0.615000
   269  Na    c     8.856289    6.638648    6.643928    0.000000    0.670000
   270  Na    c     8.856289    6.638648   -6.643928    0.000000    0.670000
   271  Na    c     8.856289   -2.210187    6.643928    0.000000    0.670000
   272  Na    c     8.856289   -2.210187   -6.643928    0.000000    0.670000
   273  Na    c    -4.427828    6.638648    6.643928    0.000000    0.670000
   274  Na    c    -4.427828    6.638648   -6.643928    0.000000    0.670000
   275  Na    c    -4.427828   -2.210187    6.643928    0.000000    0.670000
   276  Na    c    -4.427828   -2.210187   -6.643928    0.000000    0.670000
   277  Na    c     6.638648    8.856289    6.643928    0.000000    0.670000
   278  Na    c     6.638648    8.856289   -6.643928    0.000000    0.670000
   279  Na    c     6.638648   -4.427828    6.643928    0.000000    0.670000
   280  Na    c     6.638648   -4.427828   -6.643928    0.000000    0.670000
   281  Na    c    -2.210187    8.856289    6.643928    0.000000    0.670000
   282  Na    c    -2.210187    8.856289   -6.643928    0.000000    0.670000
   283  Na    c    -2.210187   -4.427828    6.643928    0.000000    0.670000
   284  Na    c    -2.210187   -4.427828   -6.643928    0.000000    0.670000
   285  Na    c     6.627174    6.627174    8.853841    0.000000    0.670000
   286  Na    c     6.627174    6.627174   -8.853841    0.000000    0.670000
   287  Na    c     6.627174   -2.198713    8.853841    0.000000    0.670000
   288  Na    c     6.627174   -2.198713   -8.853841    0.000000    0.670000
   289  Na    c    -2.198713    6.627174    8.853841    0.000000    0.670000
   290  Na    c    -2.198713    6.627174   -8.853841    0.000000    0.670000
   291  Na    c    -2.198713   -2.198713    8.853841    0.000000    0.670000
   292  Na    c    -2.198713   -2.198713   -8.853841    0.000000    0.670000
   293  Na    c     6.631903   11.052036    4.426102    0.000000    0.670000
   294  Na    c     6.631903   11.052036   -4.426102    0.000000    0.670000
   295  Na    c     6.631903   -6.623575    4.426102    0.000000    0.670000
   296  Na    c     6.631903   -6.623575   -4.426102    0.000000    0.670000
   297  Na    c    11.052036    6.631903    4.426102    0.000000    0.670000
   298  Na    c    11.052036    6.631903   -4.426102    0.000000    0.670000
   299  Na    c    11.052036   -2.203442    4.426102    0.000000    0.670000
   300  Na    c    11.052036   -2.203442   -4.426102    0.000000    0.670000
   301  Na    c    -2.203442   11.052036    4.426102    0.000000    0.670000
   302  Na    c    -2.203442   11.052036   -4.426102    0.000000    0.670000
   303  Na    c    -2.203442   -6.623575    4.426102    0.000000    0.670000
   304  Na    c    -2.203442   -6.623575   -4.426102    0.000000    0.670000
   305  Na    c    -6.623575    6.631903    4.426102    0.000000    0.670000
   306  Na    c    -6.623575    6.631903   -4.426102    0.000000    0.670000
   307  Na    c    -6.623575   -2.203442    4.426102    0.000000    0.670000
   308  Na    c    -6.623575   -2.203442   -4.426102    0.000000    0.670000
   309  O     s     2.214230    2.214230   -2.302895    0.000000   -1.829000
   310  O     s     2.214230    2.214230    2.302895    0.000000   -1.829000
   311  Cl    s     4.557356    4.557356    0.000000    0.000000   -1.285000
   312  Cl    s     4.557356   -0.128896    0.000000    0.000000   -1.285000
   313  Cl    s    -0.128896    4.557356    0.000000    0.000000   -1.285000
   314  Cl    s    -0.128896   -0.128896    0.000000    0.000000   -1.285000
   315  O     s     2.214230    6.616516   -2.197900    0.000000   -1.829000
   316  O     s     2.214230    6.616516    2.197900    0.000000   -1.829000
   317  O     s     2.214230   -2.188055   -2.197900    0.000000   -1.829000
   318  O     s     2.214230   -2.188055    2.197900    0.000000   -1.829000
   319  O     s     6.616516    2.214230   -2.197900    0.000000   -1.829000
   320  O     s     6.616516    2.214230    2.197900    0.000000   -1.829000
   321  O     s    -2.188055    2.214230   -2.197900    0.000000   -1.829000
   322  O     s    -2.188055    2.214230    2.197900    0.000000   -1.829000
   323  Cl    s     4.510159    4.510159    4.527623    0.000000   -1.285000
   324  Cl    s     4.510159    4.510159   -4.527623    0.000000   -1.285000
   325  Cl    s     4.510159   -0.081698    4.527623    0.000000   -1.285000
   326  Cl    s     4.510159   -0.081698   -4.527623    0.000000   -1.285000
   327  Cl    s    -0.081698    4.510159    4.527623    0.000000   -1.285000
   328  Cl    s    -0.081698    4.510159   -4.527623    0.000000   -1.285000
   329  Cl    s    -0.081698   -0.081698    4.527623    0.000000   -1.285000
   330  Cl    s    -0.081698   -0.081698   -4.527623    0.000000   -1.285000
   331  O     s     6.648279    6.648279   -2.219700    0.000000   -1.829000
   332  O     s     6.648279    6.648279    2.219700    0.000000   -1.829000
   333  O     s     6.648279   -2.219818   -2.219700    0.000000   -1.829000
   334  O     s     6.648279   -2.219818    2.219700    0.000000   -1.829000
   335  O     s    -2.219818    6.648279   -2.219700    0.000000   -1.829000
   336  O     s    -2.219818    6.648279    2.219700    0.000000   -1.829000
   337  O     s    -2.219818   -2.219818   -2.219700    0.000000   -1.829000
   338  O     s    -2.219818   -2.219818    2.219700    0.000000   -1.829000
   339  O     s     2.214230    2.214230    6.674608    0.000000   -1.829000
   340  O     s     2.214230    2.214230   -6.674608    0.000000   -1.829000
   341  Cl    s     4.440682    8.890529    0.000000    0.000000   -1.285000
   342  Cl    s     4.440682   -4.462068    0.000000    0.000000   -1.285000
   343  Cl    s     8.890529    4.440682    0.000000    0.000000   -1.285000
   344  Cl    s     8.890529   -0.012221    0.000000    0.000000   -1.285000
   345  Cl    s    -0.012221    8.890529    0.000000    0.000000   -1.285000
   346  Cl    s    -0.012221   -4.462068    0.000000    0.000000   -1.285000
   347  Cl    s    -4.462068    4.440682    0.000000    0.000000   -1.285000
   348  Cl    s    -4.462068   -0.012221    0.000000    0.000000   -1.285000
   349  O     s     2.214230    6.632602    6.630038    0.000000   -1.829000
   350  O     s     2.214230    6.632602   -6.630038    0.000000   -1.829000
   351  O     s     2.214230   -2.204141    6.630038    0.000000   -1.829000
   352  O     s     2.214230   -2.204141   -6.630038    0.000000   -1.829000
   353  O     s     6.632602    2.214230    6.630038    0.000000   -1.829000
   354  O     s     6.632602    2.214230   -6.630038    0.000000   -1.829000
   355  O     s    -2.204141    2.214230    6.630038    0.000000   -1.829000
   356  O     s    -2.204141    2.214230   -6.630038    0.000000   -1.829000
   357  Cl    s     4.442485    8.897165    4.432247    0.000000   -1.285000
   358  Cl    s     4.442485    8.897165   -4.432247    0.000000   -1.285000
   359  Cl    s     4.442485   -4.468704    4.432247    0.000000   -1.285000
   360  Cl    s     4.442485   -4.468704   -4.432247    0.000000   -1.285000
   361  Cl    s     8.897165    4.442485    4.432247    0.000000   -1.285000
   362  Cl    s     8.897165    4.442485   -4.432247    0.000000   -1.285000
   363  Cl    s     8.897165   -0.014024    4.432247    0.000000   -1.285000
   364  Cl    s     8.897165   -0.014024   -4.432247    0.000000   -1.285000
   365  Cl    s    -0.014024    8.897165    4.432247    0.000000   -1.285000
   366  Cl    s    -0.014024    8.897165   -4.432247    0.000000   -1.285000
   367  Cl    s    -0.014024   -4.468704    4.432247    0.000000   -1.285000
   368  Cl    s    -0.014024   -4.468704   -4.432247    0.000000   -1.285000
   369  Cl    s    -4.468704    4.442485    4.432247    0.000000   -1.285000
   370  Cl    s    -4.468704    4.442485   -4.432247    0.000000   -1.285000
   371  Cl    s    -4.468704   -0.014024    4.432247    0.000000   -1.285000
   372  Cl    s    -4.468704   -0.014024   -4.432247    0.000000   -1.285000
   373  O     s     2.214230   11.062648   -2.221915    0.000000   -1.829000
   374  O     s     2.214230   11.062648    2.221915    0.000000   -1.829000
   375  O     s     2.214230   -6.634188   -2.221915    0.000000   -1.829000
   376  O     s     2.214230   -6.634188    2.221915    0.000000   -1.829000
   377  O     s    11.062648    2.214230   -2.221915    0.000000   -1.829000
   378  O     s    11.062648    2.214230    2.221915    0.000000   -1.829000
   379  O     s    -6.634188    2.214230   -2.221915    0.000000   -1.829000
   380  O     s    -6.634188    2.214230    2.221915    0.000000   -1.829000
   381  O     s     6.649136    6.649136    6.646968    0.000000   -1.829000
   382  O     s     6.649136    6.649136   -6.646968    0.000000   -1.829000
   383  O     s     6.649136   -2.220675    6.646968    0.000000   -1.829000
   384  O     s     6.649136   -2.220675   -6.646968    0.000000   -1.829000
   385  O     s    -2.220675    6.649136    6.646968    0.000000   -1.829000
   386  O     s    -2.220675    6.649136   -6.646968    0.000000   -1.829000
   387  O     s    -2.220675   -2.220675    6.646968    0.000000   -1.829000
   388  O     s    -2.220675   -2.220675   -6.646968    0.000000   -1.829000
   389  Cl    s     4.430468    4.430468    8.892151    0.000000   -1.285000
   390  Cl    s     4.430468    4.430468   -8.892151    0.000000   -1.285000
   391  Cl    s     4.430468   -0.002008    8.892151    0.000000   -1.285000
   392  Cl    s     4.430468   -0.002008   -8.892151    0.000000   -1.285000
   393  Cl    s    -0.002008    4.430468    8.892151    0.000000   -1.285000
   394  Cl    s    -0.002008    4.430468   -8.892151    0.000000   -1.285000
   395  Cl    s    -0.002008   -0.002008    8.892151    0.000000   -1.285000
   396  Cl    s    -0.002008   -0.002008   -8.892151    0.000000   -1.285000
   397  Cl    s     8.876909    8.876909    0.000000    0.000000   -1.285000
   398  Cl    s     8.876909   -4.448448    0.000000    0.000000   -1.285000
   399  Cl    s    -4.448448    8.876909    0.000000    0.000000   -1.285000
   400  Cl    s    -4.448448   -4.448448    0.000000    0.000000   -1.285000
   401  O     s     6.644959   11.074645   -2.212970    0.000000   -1.829000
   402  O     s     6.644959   11.074645    2.212970    0.000000   -1.829000
   403  O     s     6.644959   -6.646184   -2.212970    0.000000   -1.829000
   404  O     s     6.644959   -6.646184    2.212970    0.000000   -1.829000
   405  O     s    11.074645    6.644959   -2.212970    0.000000   -1.829000
   406  O     s    11.074645    6.644959    2.212970    0.000000   -1.829000
   407  O     s    11.074645   -2.216498   -2.212970    0.000000   -1.829000
   408  O     s    11.074645   -2.216498    2.212970    0.000000   -1.829000
   409  O     s    -2.216498   11.074645   -2.212970    0.000000   -1.829000
   410  O     s    -2.216498   11.074645    2.212970    0.000000   -1.829000
   411  O     s    -2.216498   -6.646184   -2.212970    0.000000   -1.829000
   412  O     s    -2.216498   -6.646184    2.212970    0.000000   -1.829000
   413  O     s    -6.646184    6.644959   -2.212970    0.000000   -1.829000
   414  O     s    -6.646184    6.644959    2.212970    0.000000   -1.829000
   415  O     s    -6.646184   -2.216498   -2.212970    0.000000   -1.829000
   416  O     s    -6.646184   -2.216498    2.212970    0.000000   -1.829000
   417  Cl    s     8.878375    8.878375    4.441189    0.000000   -1.285000
   418  Cl    s     8.878375    8.878375   -4.441189    0.000000   -1.285000
   419  Cl    s     8.878375   -4.449914    4.441189    0.000000   -1.285000
   420  Cl    s     8.878375   -4.449914   -4.441189    0.000000   -1.285000
   421  Cl    s    -4.449914    8.878375    4.441189    0.000000   -1.285000
   422  Cl    s    -4.449914    8.878375   -4.441189    0.000000   -1.285000
   423  Cl    s    -4.449914   -4.449914    4.441189    0.000000   -1.285000
   424  Cl    s    -4.449914   -4.449914   -4.441189    0.000000   -1.285000
--------------------------------------------------------------------------------

  Final coordinates of symmetry reduced region 1 (relative to defect centre):

--------------------------------------------------------------------------------
   No.  Atomic        x           y           z          Charge
        Label       (Angs)      (Angs)      (Angs)         (e) 
--------------------------------------------------------------------------------
     1  O     c     0.000000    0.000000   -2.296096    0.489000
     2  Cl    c     2.340500    2.340500    0.000000    0.615000
     3  Na    c     2.149288    0.000000   -1.902581    0.670000
     4  Na    c     0.000000    0.000000    4.443832    0.670000
     5  Na    c     0.000000    4.610122    0.000000    0.670000
     6  O     c     0.000000    4.400057   -2.198544    0.489000
     7  Cl    c     2.292552    2.292552    4.523858    0.615000
     8  Na    c     2.211995    4.386728   -2.215058    0.670000
     9  Na    c     0.000000    4.214927    4.404980    0.670000
    10  Na    c     4.416500    4.416500    0.000000    0.670000
    11  O     c     4.433749    4.433749   -2.219409    0.489000
    12  O     c     0.000000    0.000000    6.672616    0.489000
    13  Cl    c     2.226364    6.675052    0.000000    0.615000
    14  Na    c     2.206818    0.000000    6.684364    0.670000
    15  Na    c     6.621253    0.000000   -2.349355    0.670000
    16  Na    c     4.427361    4.427361    4.429846    0.670000
    17  O     c     0.000000    4.419200    6.629361    0.489000
    18  Cl    c     2.227990    6.681167    4.432149    0.615000
    19  Na    c     2.214844    4.425614    6.614746    0.670000
    20  Na    c     6.641183    4.416981   -2.207646    0.670000
    21  Na    c     0.000000    0.000000    8.873799    0.670000
    22  Na    c     0.000000    8.771634    0.000000    0.670000
    23  O     c     0.000000    8.848220   -2.220810    0.489000
    24  O     c     4.434508    4.434508    6.646822    0.489000
    25  Cl    c     2.216319    2.216319    8.891171    0.615000
    26  Na    c     2.212902    8.844038   -2.197327    0.670000
    27  Cl    c     6.661955    6.661955    0.000000    0.615000
    28  Na    c     6.631076    0.000000    6.563084    0.670000
    29  Na    c     0.000000    4.452904    8.846452    0.670000
    30  Na    c     0.000000    8.888791    4.430274    0.670000
    31  Na    c     4.431615    8.848741    0.000000    0.670000
    32  O     c     4.430562    8.860231   -2.213079    0.489000
    33  Cl    c     6.663413    6.663413    4.440709    0.615000
    34  Na    c     6.642059    4.424418    6.643928    0.670000
    35  Na    c     4.412943    4.412943    8.853841    0.670000
    36  Na    c     4.417672    8.837805    4.426102    0.670000
    37  O     s     0.000000    0.000000   -2.302895   -1.829000
    38  Cl    s     2.343126    2.343126    0.000000   -1.285000
    39  O     s     0.000000    4.402285   -2.197900   -1.829000
    40  Cl    s     2.295929    2.295929    4.527623   -1.285000
    41  O     s     4.434048    4.434048   -2.219700   -1.829000
    42  O     s     0.000000    0.000000    6.674608   -1.829000
    43  Cl    s     2.226451    6.676298    0.000000   -1.285000
    44  O     s     0.000000    4.418372    6.630038   -1.829000
    45  Cl    s     2.228254    6.682935    4.432247   -1.285000
    46  O     s     0.000000    8.848418   -2.221915   -1.829000
    47  O     s     4.434906    4.434906    6.646968   -1.829000
    48  Cl    s     2.216238    2.216238    8.892151   -1.285000
    49  Cl    s     6.662678    6.662678    0.000000   -1.285000
    50  O     s     4.430729    8.860415   -2.212970   -1.829000
    51  Cl    s     6.664144    6.664144    4.441189   -1.285000
--------------------------------------------------------------------------------


  Final derivatives for region 1 :

--------------------------------------------------------------------------------
   No.  Atomic          x             y             z            Radius
        Label       (eV/Angs)     (eV/Angs)     (eV/Angs)       (eV/Angs)
--------------------------------------------------------------------------------
     1  O     c       0.000000      0.000000     -0.001207      0.000000
     2  Cl    c       0.004148      0.000000      0.000000      0.000000
     3  Na    c       0.007144      0.000000     -0.004158      0.000000
     4  Na    c       0.000000      0.000000     -0.001016      0.000000
     5  Na    c       0.000000     -0.000797      0.000000      0.000000
     6  O     c       0.000000      0.001140      0.000571      0.000000
     7  Cl    c       0.000704      0.000000      0.000673      0.000000
     8  Na    c      -0.000690      0.001423      0.000161      0.000000
     9  Na    c       0.000000      0.000857     -0.001026      0.000000
    10  Na    c      -0.000227      0.000000      0.000000      0.000000
    11  O     c       0.000610      0.000000     -0.000223      0.000000
    12  O     c       0.000000      0.000000      0.000171      0.000000
    13  Cl    c       0.001124      0.000522      0.000000      0.000000
    14  Na    c       0.000119      0.000000      0.000905      0.000000
    15  Na    c      -0.000497      0.000000      0.000235      0.000000
    16  Na    c       0.000116      0.000000      0.000160      0.000000
    17  O     c       0.000000      0.000290      0.000135      0.000000
    18  Cl    c       0.000706      0.000423      0.000358      0.000000
    19  Na    c       0.000052     -0.000499     -0.000567      0.000000
    20  Na    c       0.000564      0.000337     -0.000275      0.000000
    21  Na    c       0.000000      0.000000      0.000132      0.000000
    22  Na    c       0.000000      0.000447      0.000000      0.000000
    23  O     c       0.000000     -0.000192     -0.000024      0.000000
    24  O     c       0.000425      0.000000      0.000206      0.000000
    25  Cl    c       0.000193      0.000000      0.000360      0.000000
    26  Na    c      -0.000272      0.000202     -0.000158      0.000000
    27  Cl    c       0.000238      0.000000      0.000000      0.000000
    28  Na    c       0.000106      0.000000      0.000286      0.000000
    29  Na    c       0.000000      0.000109      0.000303      0.000000
    30  Na    c       0.000000      0.000412      0.000083      0.000000
    31  Na    c       0.000118      0.000211      0.000000      0.000000
    32  O     c       0.000190      0.000344     -0.000096      0.000000
    33  Cl    c       0.000328      0.000000      0.000093      0.000000
    34  Na    c       0.000334      0.000276      0.000304      0.000000
    35  Na    c       0.000240      0.000000      0.000224      0.000000
    36  Na    c       0.000112      0.000256      0.000162      0.000000
    37  O     s       0.000000      0.000000      0.003366      0.000000
    38  Cl    s      -0.006325      0.000000      0.000000      0.000000
    39  O     s       0.000000     -0.003084      0.002231      0.000000
    40  Cl    s      -0.000914      0.000000     -0.001064      0.000000
    41  O     s      -0.002285      0.000000      0.001109      0.000000
    42  O     s       0.000000      0.000000     -0.000263      0.000000
    43  Cl    s      -0.000221     -0.000167      0.000000      0.000000
    44  O     s       0.000000     -0.000585     -0.001053      0.000000
    45  Cl    s      -0.000274     -0.001015     -0.000248      0.000000
    46  O     s       0.000000     -0.001572      0.000543      0.000000
    47  O     s      -0.001814      0.000000     -0.000910      0.000000
    48  Cl    s      -0.000265      0.000000     -0.000746      0.000000
    49  Cl    s      -0.000460      0.000000      0.000000      0.000000
    50  O     s      -0.000716     -0.001285      0.000399      0.000000
    51  Cl    s      -0.000681      0.000000     -0.000204      0.000000
--------------------------------------------------------------------------------

  Comparison of initial and final region 1 : 

--------------------------------------------------------------------------------
  Parameter   Initial value   Final value   Difference    Units      Percent
--------------------------------------------------------------------------------
      1 x          2.214230      2.214230     0.000000    Cartesian    0.00
      1 y          2.214230      2.214230     0.000000    Cartesian    0.00
      1 z         -2.214230     -2.296096    -0.081866    Cartesian    3.70
      2 x          4.428461      4.554730     0.126270    Cartesian    2.85
      2 y          4.428461      4.554730     0.126270    Cartesian    2.85
      2 z          0.000000      0.000000     0.000000    Cartesian    0.00
      3 x          4.428461      4.363519    -0.064942    Cartesian   -1.47
      3 y          2.214230      2.214230     0.000000    Cartesian    0.00
      3 z         -2.214230     -1.902581     0.311649    Cartesian  -14.07
      4 x          2.214230      2.214230     0.000000    Cartesian    0.00
      4 y          2.214230      2.214230     0.000000    Cartesian    0.00
      4 z          4.428461      4.443832     0.015371    Cartesian    0.35
      5 x          2.214230      2.214230     0.000000    Cartesian    0.00
      5 y          6.642691      6.824353     0.181662    Cartesian    2.73
      5 z          0.000000      0.000000     0.000000    Cartesian    0.00
      6 x          2.214230      2.214230     0.000000    Cartesian    0.00
      6 y          6.642691      6.614287    -0.028404    Cartesian   -0.43
      6 z         -2.214230     -2.198544     0.015687    Cartesian   -0.71
      7 x          4.428461      4.506782     0.078321    Cartesian    1.77
      7 y          4.428461      4.506782     0.078321    Cartesian    1.77
      7 z          4.428461      4.523858     0.095397    Cartesian    2.15
      8 x          4.428461      4.426226    -0.002235    Cartesian   -0.05
      8 y          6.642691      6.600959    -0.041733    Cartesian   -0.63
      8 z         -2.214230     -2.215058    -0.000827    Cartesian    0.04
      9 x          2.214230      2.214230     0.000000    Cartesian    0.00
      9 y          6.642691      6.429157    -0.213534    Cartesian   -3.21
      9 z          4.428461      4.404980    -0.023481    Cartesian   -0.53
     10 x          6.642691      6.630730    -0.011961    Cartesian   -0.18
     10 y          6.642691      6.630730    -0.011961    Cartesian   -0.18
     10 z          0.000000      0.000000     0.000000    Cartesian    0.00
     11 x          6.642691      6.647980     0.005288    Cartesian    0.08
     11 y          6.642691      6.647980     0.005288    Cartesian    0.08
     11 z         -2.214230     -2.219409    -0.005178    Cartesian    0.23
     12 x          2.214230      2.214230     0.000000    Cartesian    0.00
     12 y          2.214230      2.214230     0.000000    Cartesian    0.00
     12 z          6.642691      6.672616     0.029924    Cartesian    0.45
     13 x          4.428461      4.440594     0.012133    Cartesian    0.27
     13 y          8.856922      8.889282     0.032360    Cartesian    0.37
     13 z          0.000000      0.000000     0.000000    Cartesian    0.00
     14 x          4.428461      4.421048    -0.007413    Cartesian   -0.17
     14 y          2.214230      2.214230     0.000000    Cartesian    0.00
     14 z          6.642691      6.684364     0.041672    Cartesian    0.63
     15 x          8.856922      8.835484    -0.021438    Cartesian   -0.24
     15 y          2.214230      2.214230     0.000000    Cartesian    0.00
     15 z         -2.214230     -2.349355    -0.135125    Cartesian    6.10
     16 x          6.642691      6.641592    -0.001100    Cartesian   -0.02
     16 y          6.642691      6.641592    -0.001100    Cartesian   -0.02
     16 z          4.428461      4.429846     0.001385    Cartesian    0.03
     17 x          2.214230      2.214230     0.000000    Cartesian    0.00
     17 y          6.642691      6.633431    -0.009260    Cartesian   -0.14
     17 z          6.642691      6.629361    -0.013330    Cartesian   -0.20
     18 x          4.428461      4.442220     0.013759    Cartesian    0.31
     18 y          8.856922      8.895397     0.038475    Cartesian    0.43
     18 z          4.428461      4.432149     0.003688    Cartesian    0.08
     19 x          4.428461      4.429075     0.000614    Cartesian    0.01
     19 y          6.642691      6.639845    -0.002847    Cartesian   -0.04
     19 z          6.642691      6.614746    -0.027945    Cartesian   -0.42
     20 x          8.856922      8.855413    -0.001508    Cartesian   -0.02
     20 y          6.642691      6.631212    -0.011480    Cartesian   -0.17
     20 z         -2.214230     -2.207646     0.006585    Cartesian   -0.30
     21 x          2.214230      2.214230     0.000000    Cartesian    0.00
     21 y          2.214230      2.214230     0.000000    Cartesian    0.00
     21 z          8.856922      8.873799     0.016877    Cartesian    0.19
     22 x          2.214230      2.214230     0.000000    Cartesian    0.00
     22 y         11.071152     10.985864    -0.085288    Cartesian   -0.77
     22 z          0.000000      0.000000     0.000000    Cartesian    0.00
     23 x          2.214230      2.214230     0.000000    Cartesian    0.00
     23 y         11.071152     11.062450    -0.008702    Cartesian   -0.08
     23 z         -2.214230     -2.220810    -0.006579    Cartesian    0.30
     24 x          6.642691      6.648739     0.006047    Cartesian    0.09
     24 y          6.642691      6.648739     0.006047    Cartesian    0.09
     24 z          6.642691      6.646822     0.004131    Cartesian    0.06
     25 x          4.428461      4.430549     0.002088    Cartesian    0.05
     25 y          4.428461      4.430549     0.002088    Cartesian    0.05
     25 z          8.856922      8.891171     0.034249    Cartesian    0.39
     26 x          4.428461      4.427132    -0.001329    Cartesian   -0.03
     26 y         11.071152     11.058268    -0.012884    Cartesian   -0.12
     26 z         -2.214230     -2.197327     0.016904    Cartesian   -0.76
     27 x          8.856922      8.876185     0.019263    Cartesian    0.22
     27 y          8.856922      8.876185     0.019263    Cartesian    0.22
     27 z          0.000000      0.000000     0.000000    Cartesian    0.00
     28 x          8.856922      8.845306    -0.011616    Cartesian   -0.13
     28 y          2.214230      2.214230     0.000000    Cartesian    0.00
     28 z          6.642691      6.563084    -0.079608    Cartesian   -1.20
     29 x          2.214230      2.214230     0.000000    Cartesian    0.00
     29 y          6.642691      6.667135     0.024443    Cartesian    0.37
     29 z          8.856922      8.846452    -0.010470    Cartesian   -0.12
     30 x          2.214230      2.214230     0.000000    Cartesian    0.00
     30 y         11.071152     11.103022     0.031869    Cartesian    0.29
     30 z          4.428461      4.430274     0.001813    Cartesian    0.04
     31 x          6.642691      6.645846     0.003154    Cartesian    0.05
     31 y         11.071152     11.062972    -0.008180    Cartesian   -0.07
     31 z          0.000000      0.000000     0.000000    Cartesian    0.00
     32 x          6.642691      6.644793     0.002101    Cartesian    0.03
     32 y         11.071152     11.074462     0.003309    Cartesian    0.03
     32 z         -2.214230     -2.213079     0.001151    Cartesian   -0.05
     33 x          8.856922      8.877643     0.020721    Cartesian    0.23
     33 y          8.856922      8.877643     0.020721    Cartesian    0.23
     33 z          4.428461      4.440709     0.012248    Cartesian    0.28
     34 x          8.856922      8.856289    -0.000633    Cartesian   -0.01
     34 y          6.642691      6.638648    -0.004043    Cartesian   -0.06
     34 z          6.642691      6.643928     0.001237    Cartesian    0.02
     35 x          6.642691      6.627174    -0.015517    Cartesian   -0.23
     35 y          6.642691      6.627174    -0.015517    Cartesian   -0.23
     35 z          8.856922      8.853841    -0.003081    Cartesian   -0.03
     36 x          6.642691      6.631903    -0.010789    Cartesian   -0.16
     36 y         11.071152     11.052036    -0.019117    Cartesian   -0.17
     36 z          4.428461      4.426102    -0.002359    Cartesian   -0.05
     37 x          2.214230      2.214230     0.000000    Cartesian    0.00
     37 y          2.214230      2.214230     0.000000    Cartesian    0.00
     37 z         -2.214230     -2.302895    -0.088664    Cartesian    4.00
     38 x          4.428461      4.557356     0.128896    Cartesian    2.91
     38 y          4.428461      4.557356     0.128896    Cartesian    2.91
     38 z          0.000000      0.000000     0.000000    Cartesian    0.00
     39 x          2.214230      2.214230     0.000000    Cartesian    0.00
     39 y          6.642691      6.616516    -0.026175    Cartesian   -0.39
     39 z         -2.214230     -2.197900     0.016331    Cartesian   -0.74
     40 x          4.428461      4.510159     0.081698    Cartesian    1.84
     40 y          4.428461      4.510159     0.081698    Cartesian    1.84
     40 z          4.428461      4.527623     0.099162    Cartesian    2.24
     41 x          6.642691      6.648279     0.005587    Cartesian    0.08
     41 y          6.642691      6.648279     0.005587    Cartesian    0.08
     41 z         -2.214230     -2.219700    -0.005469    Cartesian    0.25
     42 x          2.214230      2.214230     0.000000    Cartesian    0.00
     42 y          2.214230      2.214230     0.000000    Cartesian    0.00
     42 z          6.642691      6.674608     0.031916    Cartesian    0.48
     43 x          4.428461      4.440682     0.012221    Cartesian    0.28
     43 y          8.856922      8.890529     0.033607    Cartesian    0.38
     43 z          0.000000      0.000000     0.000000    Cartesian    0.00
     44 x          2.214230      2.214230     0.000000    Cartesian    0.00
     44 y          6.642691      6.632602    -0.010089    Cartesian   -0.15
     44 z          6.642691      6.630038    -0.012653    Cartesian   -0.19
     45 x          4.428461      4.442485     0.014024    Cartesian    0.32
     45 y          8.856922      8.897165     0.040244    Cartesian    0.45
     45 z          4.428461      4.432247     0.003786    Cartesian    0.09
     46 x          2.214230      2.214230     0.000000    Cartesian    0.00
     46 y         11.071152     11.062648    -0.008504    Cartesian   -0.08
     46 z         -2.214230     -2.221915    -0.007684    Cartesian    0.35
     47 x          6.642691      6.649136     0.006445    Cartesian    0.10
     47 y          6.642691      6.649136     0.006445    Cartesian    0.10
     47 z          6.642691      6.646968     0.004276    Cartesian    0.06
     48 x          4.428461      4.430468     0.002008    Cartesian    0.05
     48 y          4.428461      4.430468     0.002008    Cartesian    0.05
     48 z          8.856922      8.892151     0.035229    Cartesian    0.40
     49 x          8.856922      8.876909     0.019987    Cartesian    0.23
     49 y          8.856922      8.876909     0.019987    Cartesian    0.23
     49 z          0.000000      0.000000     0.000000    Cartesian    0.00
     50 x          6.642691      6.644959     0.002268    Cartesian    0.03
     50 y         11.071152     11.074645     0.003493    Cartesian    0.03
     50 z         -2.214230     -2.212970     0.001261    Cartesian   -0.06
     51 x          8.856922      8.878375     0.021453    Cartesian    0.24
     51 y          8.856922      8.878375     0.021453    Cartesian    0.24
     51 z          4.428461      4.441189     0.012728    Cartesian    0.29
--------------------------------------------------------------------------------


  Time to end of optimisation  =        9.0685 seconds


  Peak dynamic memory used =      34.83 MB 


  Timing analysis for GULP :

--------------------------------------------------------------------------------
  Task / Subroutine                                          Time (Seconds)
--------------------------------------------------------------------------------
  Calculation of reciprocal space energy and derivatives          0.0002
  Calculation of reciprocal space energy using symmetry           0.0004
  Calculation of real space energy and derivatives                0.0012
  Calculation of real space energy using symmetry                 0.0036
  Calculation for region 1 energy and derivatives (2-b)           2.2696
  Calculation for region 2a energy                                6.6981
  Calculation for region 2b energy                                0.0001
  Calculation and manipulation of Hessian matrix                  0.0241
  Calculation of matrix inversion                                 0.0010
  Symmetry generation of equivalent positions                     0.0015
--------------------------------------------------------------------------------
  Total CPU time                                                  9.0686
--------------------------------------------------------------------------------


  Dump file written as Na3OCl.grs


  Job Finished at 16:22.39  5th July       2021                               

