********************************************************************************
*                       GENERAL UTILITY LATTICE PROGRAM                        *
*                                 Julian Gale                                  *
*                       Curtin Institute for Computation                       *
*                    School of Molecular and Life Sciences                     *
*                    Curtin University, Western Australia                      *
********************************************************************************
* Version = 5.2.0 * Last modified =  10th September 2020                       *
********************************************************************************
*  optimise     - perform optimisation run                                     *
*  conp         - constant pressure calculation                                *
*  property     - calculate properties for final geometry                      *
*  defect       - perform defect calculation after bulk run                    *
*  compare      - compare initial and final structures                         *
********************************************************************************

  Job Started  at 16:22.30  5th July       2021                               

  Number of CPUs =     1


  Total number of configurations input =      1

********************************************************************************
*  Input for Configuration =   1                                               *
********************************************************************************

  Formula = ClONa3                                                      

  Number of irreducible atoms/shells =       5


  Total number atoms/shells =       7

  Dimensionality = 3               :  Bulk   


  Symmetry :

  Crystal family                   :  Cubic       
  Crystal class  (Groth - 1921)    :  Cubic Hexakisoctahedral              

  Space group (centrosymmetric)    :  P M 3 M         

  Patterson group                  :  P m -3 m 

  Cartesian lattice vectors (Angstroms) :

        4.504000    0.000000    0.000000
        0.000000    4.504000    0.000000
        0.000000    0.000000    4.504000

  Cell parameters (Angstroms/Degrees):

  a =       4.5040    alpha =  90.0000
  b =       4.5040    beta  =  90.0000
  c =       4.5040    gamma =  90.0000

  Initial cell volume =          91.368216 Angs**3

  Temperature of configuration =   0.00     K 

  Pressure of configuration =         0.000 GPa 

  Fractional coordinates of asymmetric unit :

--------------------------------------------------------------------------------
   No.  Atomic       x           y          z         Charge      Occupancy
        Label      (Frac)      (Frac)     (Frac)        (e)         (Frac)  
--------------------------------------------------------------------------------
      1 Cl    c    0.000000    0.000000    0.000000     0.61500    1.000000    
      2 O     c    0.500000    0.500000    0.500000     0.48900    1.000000    
      3 Na    c    0.500000    0.500000    0.000000     0.67000    1.000000    
      4 Cl    s    0.000000    0.000000    0.000000    -1.28500    1.000000    
      5 O     s    0.500000    0.500000    0.500000    -1.82900    1.000000    
--------------------------------------------------------------------------------


  Constraints : 

--------------------------------------------------------------------------------
  Constraint no.      Unconstrained     Constrained    Coefficient    Offset
                         Variable         Variable
--------------------------------------------------------------------------------
           1              Strain 1        Strain 2       1.00000      0.0000
           2              Strain 1        Strain 3       1.00000      0.0000
--------------------------------------------------------------------------------


********************************************************************************
*  General input information                                                   *
********************************************************************************

  Species output for all configurations : 

--------------------------------------------------------------------------------
  Species    Type    Atomic    Atomic    Charge       Radii (Angs)     Library
                     Number     Mass       (e)     Cova   Ionic  VDW   Symbol
--------------------------------------------------------------------------------
    Na       Core       11      22.99   0.670000   0.970  0.000  2.300          
    O        Core        8      16.00   0.489000   0.730  0.000  1.360          
    O        Shell       8       0.00  -1.829000   0.730  0.000  1.360          
    Cl       Core       17      35.45   0.615000   0.990  0.000  1.650          
    Cl       Shell      17       0.00  -1.285000   0.990  0.000  1.650          
--------------------------------------------------------------------------------


  Lattice summation method               =    Ewald          (3-D)
                                         =    Parry          (2-D)
                                         =    Saunders et al (1-D)
  Accuracy factor for lattice sums       =   12.000


  Analytic derivatives to be used

  Time limit = Infinity

  Maximum range for interatomic potentials =    100000.000000 Angstroms

  General interatomic potentials :

--------------------------------------------------------------------------------
Atom  Types   Potential      Parameter       Value         Units   Cutoffs(Ang)
  1     2                                                            Min /  Max 
--------------------------------------------------------------------------------
O    c O    s Spring (c-s)  Spring k 2       34.450000    eV*Ang^-2 0.000  0.800
                            Spring k 4       0.0000000    eV*Ang^-4 
--------------------------------------------------------------------------------
Cl   c Cl   s Spring (c-s)  Spring k 2       28.250000    eV*Ang^-2 0.000  0.800
                            Spring k 4       0.0000000    eV*Ang^-4 
--------------------------------------------------------------------------------
Na   c Na   c Buckingham    Buckingham A     996.28210    eV        0.000 12.000
                            Buckingham rho  0.28830000    Ang       
                            Buckingham C     0.0000000    eV*Ang^6  
--------------------------------------------------------------------------------
Na   c O    s Buckingham    Buckingham A     12439.222    eV        0.000 12.000
                            Buckingham rho  0.20150000    Ang       
                            Buckingham C     0.0000000    eV*Ang^6  
--------------------------------------------------------------------------------
Na   c Cl   s Buckingham    Buckingham A     20907.738    eV        0.000 12.000
                            Buckingham rho  0.21660000    Ang       
                            Buckingham C     0.0000000    eV*Ang^6  
--------------------------------------------------------------------------------
O    s O    s Buckingham    Buckingham A     35546.853    eV        0.000 12.000
                            Buckingham rho  0.12056000    Ang       
                            Buckingham C     13.190000    eV*Ang^6  
--------------------------------------------------------------------------------
O    s Cl   s Buckingham    Buckingham A     47777.071    eV        0.000 12.000
                            Buckingham rho  0.24370000    Ang       
                            Buckingham C     62.200000    eV*Ang^6  
--------------------------------------------------------------------------------
Cl   s Cl   s Buckingham    Buckingham A     35155.254    eV        0.000 12.000
                            Buckingham rho  0.21360000    Ang       
                            Buckingham C     14.530000    eV*Ang^6  
--------------------------------------------------------------------------------

********************************************************************************
*  Output for configuration   1                                                *
********************************************************************************


  Components of energy : 

--------------------------------------------------------------------------------
  Interatomic potentials     =           1.21745275 eV    
  Monopole - monopole (real) =          -4.50527050 eV    
  Monopole - monopole (recip)=         -13.25862634 eV    
  Monopole - monopole (total)=         -17.76389683 eV    
--------------------------------------------------------------------------------
  Total lattice energy       =         -16.54644409 eV    
--------------------------------------------------------------------------------
  Total lattice energy       =           -1596.4789 kJ/(mole unit cells)
--------------------------------------------------------------------------------


  Number of variables =        1

  Maximum number of calculations  =          1000
  Maximum Hessian update interval =            10
  Maximum step size               =   1.000000000
  Maximum parameter tolerance     =   0.000010000
  Maximum function  tolerance     =   0.000010000
  Maximum gradient  tolerance     =   0.001000000
  Maximum gradient  component     =   0.010000000

  Symmetry constrained optimisation

  Symmetry used for second derivatives

  Cell parameters to be optimised using strains

  Newton-Raphson optimiser to be used

  BFGS hessian update to be used

  Lower half triangular hessian to be used

  Start of bulk optimisation :

  Cycle:      0 Energy:       -16.546444  Gnorm:      2.744113  CPU:    0.008
  ** Hessian calculated **
  Cycle:      1 Energy:       -16.570356  Gnorm:      0.030142  CPU:    0.010
  Cycle:      2 Energy:       -16.570358  Gnorm:      0.003103  CPU:    0.012


  **** Optimisation achieved ****


  Final energy =     -16.57035847 eV
  Final Gnorm  =       0.00000012

  Components of energy : 

--------------------------------------------------------------------------------
  Interatomic potentials     =           1.49654868 eV    
  Monopole - monopole (real) =          -4.58211982 eV    
  Monopole - monopole (recip)=         -13.48478733 eV    
  Monopole - monopole (total)=         -18.06690714 eV    
--------------------------------------------------------------------------------
  Total lattice energy       =         -16.57035847 eV    
--------------------------------------------------------------------------------
  Total lattice energy       =           -1598.7863 kJ/(mole unit cells)
--------------------------------------------------------------------------------

  Final asymmetric unit coordinates :

--------------------------------------------------------------------------------
   No.  Atomic        x           y           z         Radius
        Label       (Frac)      (Frac)      (Frac)       (Angs) 
--------------------------------------------------------------------------------
     1  Cl    c     0.000000    0.000000    0.000000    0.000000
     2  O     c     0.500000    0.500000    0.500000    0.000000
     3  Na    c     0.500000    0.500000    0.000000    0.000000
     4  Cl    s     0.000000    0.000000    0.000000    0.000000
     5  O     s     0.500000    0.500000    0.500000    0.000000
--------------------------------------------------------------------------------

  Final Cartesian lattice vectors (Angstroms) :

        4.428461    0.000000    0.000000
        0.000000    4.428461    0.000000
        0.000000    0.000000    4.428461


  Final cell parameters and derivatives :

--------------------------------------------------------------------------------
       a            4.428461 Angstrom     dE/de1(xx)     0.000000 eV/strain
       b            4.428461 Angstrom     dE/de2(yy)     0.000000 eV/strain
       c            4.428461 Angstrom     dE/de3(zz)     0.000000 eV/strain
       alpha       90.000000 Degrees      dE/de4(yz)     0.000000 eV/strain
       beta        90.000000 Degrees      dE/de5(xz)     0.000000 eV/strain
       gamma       90.000000 Degrees      dE/de6(xy)     0.000000 eV/strain
--------------------------------------------------------------------------------

  Primitive cell volume =            86.847723 Angs**3

  Density of cell =      2.302482 g/cm**3

  Non-primitive cell volume =            86.847723 Angs**3


  Final internal derivatives :

--------------------------------------------------------------------------------
   No.  Atomic          a             b             c           Radius
        Label          (eV)          (eV)          (eV)        (eV/Angs)
--------------------------------------------------------------------------------
      1 Cl    c       0.000000      0.000000      0.000000      0.000000
      2 O     c       0.000000      0.000000      0.000000      0.000000
      3 Na    c       0.000000      0.000000      0.000000      0.000000
      4 Cl    s       0.000000      0.000000      0.000000      0.000000
      5 O     s       0.000000      0.000000      0.000000      0.000000
--------------------------------------------------------------------------------
  Maximum abs         0.000000      0.000000      0.000000      0.000000
--------------------------------------------------------------------------------

  Comparison of initial and final structures : 

--------------------------------------------------------------------------------
  Parameter   Initial value   Final value   Difference    Units      Percent
--------------------------------------------------------------------------------
    Volume        91.368216     86.847723    -4.520493    Angs**3     -4.95
    a              4.504000      4.428461    -0.075539    Angstroms   -1.68
    b              4.504000      4.428461    -0.075539    Angstroms   -1.68
    c              4.504000      4.428461    -0.075539    Angstroms   -1.68
    alpha         90.000000     90.000000     0.000000    Degrees      0.00
    beta          90.000000     90.000000     0.000000    Degrees      0.00
    gamma         90.000000     90.000000     0.000000    Degrees      0.00
      1 x          0.000000      0.000000     0.000000    Fractional   0.00
      1 y          0.000000      0.000000     0.000000    Fractional   0.00
      1 z          0.000000      0.000000     0.000000    Fractional   0.00
      2 x          0.500000      0.500000     0.000000    Fractional   0.00
      2 y          0.500000      0.500000     0.000000    Fractional   0.00
      2 z          0.500000      0.500000     0.000000    Fractional   0.00
      3 x          0.500000      0.500000     0.000000    Fractional   0.00
      3 y          0.500000      0.500000     0.000000    Fractional   0.00
      3 z          0.000000      0.000000     0.000000    Fractional   0.00
      4 x          0.000000      0.000000     0.000000    Fractional   0.00
      4 y          0.000000      0.000000     0.000000    Fractional   0.00
      4 z          0.000000      0.000000     0.000000    Fractional   0.00
      5 x          0.500000      0.500000     0.000000    Fractional   0.00
      5 y          0.500000      0.500000     0.000000    Fractional   0.00
      5 z          0.500000      0.500000     0.000000    Fractional   0.00
--------------------------------------------------------------------------------


  Born effective charge tensors : 

-------------------------------------------------------------------------------
  Atom             x           y             z
-------------------------------------------------------------------------------
    1 Cl    x      -0.6995     -0.0000     -0.0000
            y      -0.0000     -0.6995     -0.0000
            z      -0.0000     -0.0000     -0.6995
-------------------------------------------------------------------------------
    2 O     x      -1.0805      0.0000      0.0000
            y       0.0000     -1.0805      0.0000
            z       0.0000      0.0000     -1.0805
-------------------------------------------------------------------------------
    3 Na    x       0.6486      0.0000     -0.0000
            y       0.0000      0.6486      0.0000
            z      -0.0000      0.0000      0.4827
-------------------------------------------------------------------------------




  Elastic Constant Matrix: (Units=GPa)

-------------------------------------------------------------------------------
  Indices      1         2         3         4         5         6    
-------------------------------------------------------------------------------
       1     77.0757   16.0262   16.0262   -0.0000   -0.0000   -0.0000
       2     16.0262   77.0757   16.0262   -0.0000   -0.0000    0.0000
       3     16.0262   16.0262   77.0757    0.0000    0.0000    0.0000
       4     -0.0000   -0.0000    0.0000   16.0262    0.0000   -0.0000
       5     -0.0000   -0.0000    0.0000    0.0000   16.0262   -0.0000
       6     -0.0000    0.0000    0.0000   -0.0000   -0.0000   16.0262
-------------------------------------------------------------------------------


  Elastic Compliance Matrix: (Units=1/GPa)

-------------------------------------------------------------------------------
  Indices      1         2         3         4         5         6    
-------------------------------------------------------------------------------
       1    0.013975 -0.002406 -0.002406  0.000000  0.000000  0.000000
       2   -0.002406  0.013975 -0.002406  0.000000  0.000000 -0.000000
       3   -0.002406 -0.002406  0.013975 -0.000000 -0.000000 -0.000000
       4    0.000000  0.000000 -0.000000  0.062398 -0.000000  0.000000
       5    0.000000  0.000000 -0.000000 -0.000000  0.062398  0.000000
       6    0.000000 -0.000000 -0.000000  0.000000  0.000000  0.062398
-------------------------------------------------------------------------------

  Mechanical properties :

-------------------------------------------------------------------------------
  Convention :                    Reuss         Voigt         Hill
-------------------------------------------------------------------------------
  Bulk  Modulus (GPa)     =      36.37603      36.37603      36.37603
  Shear Modulus (GPa)     =      19.78520      21.82562      20.80541
-------------------------------------------------------------------------------
  Velocity S-wave (km/s)  =       2.93138       3.07883       3.00601
  Velocity P-wave (km/s)  =       5.22072       5.33268       5.27700
-------------------------------------------------------------------------------
  Compressibility (1/GPa) =    0.02749063
-------------------------------------------------------------------------------
  Stress axis :                     x             y             z
-------------------------------------------------------------------------------
  Youngs Moduli (GPa)     =      71.55833      71.55833      71.55833
-------------------------------------------------------------------------------
  Poissons Ratio (x)      =                     0.17214       0.17214
  Poissons Ratio (y)      =       0.17214                     0.17214
  Poissons Ratio (z)      =       0.17214       0.17214
-------------------------------------------------------------------------------


  Piezoelectric Strain Matrix: (Units=C/m**2)

-------------------------------------------------------------------------------
  Indices      1         2         3         4         5         6    
-------------------------------------------------------------------------------
       x    -0.00000  -0.00000  -0.00000  -0.00000  -0.00000   0.00000
       y     0.00000   0.00000   0.00000  -0.00000  -0.00000  -0.00000
       z     0.00000   0.00000  -0.00000   0.00000  -0.00000  -0.00000
-------------------------------------------------------------------------------


  Piezoelectric Stress Matrix: (Units=10**-11 C/N)

-------------------------------------------------------------------------------
  Indices      1         2         3         4         5         6    
-------------------------------------------------------------------------------
       x    -0.00000  -0.00000  -0.00000  -0.00000  -0.00000   0.00000
       y     0.00000   0.00000   0.00000  -0.00000  -0.00000  -0.00000
       z     0.00000   0.00000  -0.00000   0.00000  -0.00000  -0.00000
-------------------------------------------------------------------------------


  Static dielectric constant tensor : 

-------------------------------------------------------------------------------
              x         y         z
-------------------------------------------------------------------------------
       x     5.77918   0.00000   0.00000
       y     0.00000   5.77918   0.00000
       z     0.00000   0.00000   5.77918
--------------------------------------------------------------------------------

  High frequency dielectric constant tensor : 

-------------------------------------------------------------------------------
              x         y         z
-------------------------------------------------------------------------------
       x     1.30980  -0.00000  -0.00000
       y    -0.00000   1.30980  -0.00000
       z    -0.00000  -0.00000   1.30980
-------------------------------------------------------------------------------

  Static refractive indices : 

-------------------------------------------------------------------------------
    1 =    2.40399      2 =    2.40399      3 =    2.40399
-------------------------------------------------------------------------------

  High frequency refractive indices : 

-------------------------------------------------------------------------------
    1 =    1.14447      2 =    1.14447      3 =    1.14447
-------------------------------------------------------------------------------


  Time to end of optimisation =       0.0173 seconds

********************************************************************************
*  Defect calculation for configuration   1 :                                  *
********************************************************************************

  Total number of defects =      1

  Total charge on defect  =  -0.67

  Defect centre is at   0.5000   0.5000   0.0000  Frac

  Region 1 radius =  13.0000      Number of ions =    760

  Number of symmetry inequivalent region 1 ions  =     84

  Region 2 radius =  24.0000      Number of ions =   3918

  Number of symmetry inequivalent region 2a ions =    322

  Region 2a mode = 4 : screened electrostatics due to region 1 
                       neglect correction to region 1 forces from 2a
                       region 2a displacements based on defects only

  Region 2a ions will only interact with defects in region 1

  Vacancies:

--------------------------------------------------------------------------------
    Specification type     Symbol/Number         x          y          z
--------------------------------------------------------------------------------
    Fractional                               0.500000   0.500000   0.000000
--------------------------------------------------------------------------------


  Symmetry reduced region 1 (Relative to defect centre) :

--------------------------------------------------------------------------------
   No.   Atomic       x            y             z       Radius  Multiplicity   
         Label      (Angs)       (Angs)        (Angs)    (Angs)     
--------------------------------------------------------------------------------
     1  O     c      0.0000       0.0000      -2.2142 *  0.0000     2          
     2  Cl    c      2.2142 *     2.2142       0.0000    0.0000     4          
     3  Na    c      2.2142 *     0.0000      -2.2142 *  0.0000     8          
     4  Na    c      0.0000       0.0000       4.4285 *  0.0000     2          
     5  Na    c      0.0000       4.4285 *     0.0000    0.0000     4          
     6  O     c      0.0000       4.4285 *    -2.2142 *  0.0000     8          
     7  Cl    c      2.2142 *     2.2142       4.4285 *  0.0000     8          
     8  Na    c      2.2142 *     4.4285 *    -2.2142 *  0.0000    16          
     9  Na    c      0.0000       4.4285 *     4.4285 *  0.0000     8          
    10  Na    c      4.4285 *     4.4285       0.0000    0.0000     4          
    11  O     c      4.4285 *     4.4285      -2.2142 *  0.0000     8          
    12  O     c      0.0000       0.0000       6.6427 *  0.0000     2          
    13  Cl    c      2.2142 *     6.6427 *     0.0000    0.0000     8          
    14  Na    c      2.2142 *     0.0000       6.6427 *  0.0000     8          
    15  Na    c      6.6427 *     0.0000      -2.2142 *  0.0000     8          
    16  Na    c      4.4285 *     4.4285       4.4285 *  0.0000     8          
    17  O     c      0.0000       4.4285 *     6.6427 *  0.0000     8          
    18  Cl    c      2.2142 *     6.6427 *     4.4285 *  0.0000    16          
    19  Na    c      2.2142 *     4.4285 *     6.6427 *  0.0000    16          
    20  Na    c      6.6427 *     4.4285 *    -2.2142 *  0.0000    16          
    21  Na    c      0.0000       0.0000       8.8569 *  0.0000     2          
    22  Na    c      0.0000       8.8569 *     0.0000    0.0000     4          
    23  O     c      0.0000       8.8569 *    -2.2142 *  0.0000     8          
    24  O     c      4.4285 *     4.4285       6.6427 *  0.0000     8          
    25  Cl    c      2.2142 *     2.2142       8.8569 *  0.0000     8          
    26  Na    c      2.2142 *     8.8569 *    -2.2142 *  0.0000    16          
    27  Cl    c      6.6427 *     6.6427       0.0000    0.0000     4          
    28  Na    c      6.6427 *     0.0000       6.6427 *  0.0000     8          
    29  Na    c      0.0000       4.4285 *     8.8569 *  0.0000     8          
    30  Na    c      0.0000       8.8569 *     4.4285 *  0.0000     8          
    31  Na    c      4.4285 *     8.8569 *     0.0000    0.0000     8          
    32  O     c      4.4285 *     8.8569 *    -2.2142 *  0.0000    16          
    33  Cl    c      6.6427 *     6.6427       4.4285 *  0.0000     8          
    34  Na    c      6.6427 *     4.4285 *     6.6427 *  0.0000    16          
    35  Na    c      4.4285 *     4.4285       8.8569 *  0.0000     8          
    36  Na    c      4.4285 *     8.8569 *     4.4285 *  0.0000    16          
    37  O     c      0.0000       8.8569 *     6.6427 *  0.0000     8          
    38  O     c      0.0000       0.0000      11.0712 *  0.0000     2          
    39  Cl    c      2.2142 *     6.6427 *     8.8569 *  0.0000    16          
    40  Na    c      2.2142 *     8.8569 *     6.6427 *  0.0000    16          
    41  Na    c      6.6427 *     8.8569 *    -2.2142 *  0.0000    16          
    42  Cl    c      2.2142 *    11.0712 *     0.0000    0.0000     8          
    43  Na    c      2.2142 *     0.0000      11.0712 *  0.0000     8          
    44  Na    c     11.0712 *     0.0000      -2.2142 *  0.0000     8          
    45  O     c      4.4285 *     8.8569 *     6.6427 *  0.0000    16          
    46  O     c      0.0000       4.4285 *    11.0712 *  0.0000     8          
    47  Cl    c      2.2142 *    11.0712 *     4.4285 *  0.0000    16          
    48  Na    c      2.2142 *     4.4285 *    11.0712 *  0.0000    16          
    49  Na    c     11.0712 *     4.4285 *    -2.2142 *  0.0000    16          
    50  Na    c      0.0000       8.8569 *     8.8569 *  0.0000     8          
    51  Na    c      8.8569 *     8.8569       0.0000    0.0000     4          
    52  O     c      8.8569 *     8.8569      -2.2142 *  0.0000     8          
    53  O     c      4.4285 *     4.4285      11.0712 *  0.0000     8          
    54  Cl    c      6.6427 *     6.6427       8.8569 *  0.0000     8          
    55  Cl    c      6.6427 *    11.0712 *     0.0000    0.0000     8          
    56  Na    c      6.6427 *     0.0000      11.0712 *  0.0000     8          
    57  Na    c      6.6427 *     8.8569 *     6.6427 *  0.0000    16          
    58  Na    c     11.0712 *     0.0000       6.6427 *  0.0000     8          
    59  O     s      0.0000       0.0000      -2.2142 *  0.0000     2          
    60  Cl    s      2.2142 *     2.2142       0.0000    0.0000     4          
    61  O     s      0.0000       4.4285 *    -2.2142 *  0.0000     8          
    62  Cl    s      2.2142 *     2.2142       4.4285 *  0.0000     8          
    63  O     s      4.4285 *     4.4285      -2.2142 *  0.0000     8          
    64  O     s      0.0000       0.0000       6.6427 *  0.0000     2          
    65  Cl    s      2.2142 *     6.6427 *     0.0000    0.0000     8          
    66  O     s      0.0000       4.4285 *     6.6427 *  0.0000     8          
    67  Cl    s      2.2142 *     6.6427 *     4.4285 *  0.0000    16          
    68  O     s      0.0000       8.8569 *    -2.2142 *  0.0000     8          
    69  O     s      4.4285 *     4.4285       6.6427 *  0.0000     8          
    70  Cl    s      2.2142 *     2.2142       8.8569 *  0.0000     8          
    71  Cl    s      6.6427 *     6.6427       0.0000    0.0000     4          
    72  O     s      4.4285 *     8.8569 *    -2.2142 *  0.0000    16          
    73  Cl    s      6.6427 *     6.6427       4.4285 *  0.0000     8          
    74  O     s      0.0000       8.8569 *     6.6427 *  0.0000     8          
    75  O     s      0.0000       0.0000      11.0712 *  0.0000     2          
    76  Cl    s      2.2142 *     6.6427 *     8.8569 *  0.0000    16          
    77  Cl    s      2.2142 *    11.0712 *     0.0000    0.0000     8          
    78  O     s      4.4285 *     8.8569 *     6.6427 *  0.0000    16          
    79  O     s      0.0000       4.4285 *    11.0712 *  0.0000     8          
    80  Cl    s      2.2142 *    11.0712 *     4.4285 *  0.0000    16          
    81  O     s      8.8569 *     8.8569      -2.2142 *  0.0000     8          
    82  O     s      4.4285 *     4.4285      11.0712 *  0.0000     8          
    83  Cl    s      6.6427 *     6.6427       8.8569 *  0.0000     8          
    84  Cl    s      6.6427 *    11.0712 *     0.0000    0.0000     8          
--------------------------------------------------------------------------------


  Constraints on symmetry reduced coordinates :

--------------------------------------------------------------------------------
  Constraint no.      Unconstrained     Constrained    Coefficient    
                         Variable         Variable
--------------------------------------------------------------------------------
           1                 2 x             2 y         1.00000
           2                 7 x             7 y         1.00000
           3                10 x            10 y         1.00000
           4                11 x            11 y         1.00000
           5                16 x            16 y         1.00000
           6                24 x            24 y         1.00000
           7                25 x            25 y         1.00000
           8                27 x            27 y         1.00000
           9                33 x            33 y         1.00000
          10                35 x            35 y         1.00000
          11                51 x            51 y         1.00000
          12                52 x            52 y         1.00000
          13                53 x            53 y         1.00000
          14                54 x            54 y         1.00000
          15                60 x            60 y         1.00000
          16                62 x            62 y         1.00000
          17                63 x            63 y         1.00000
          18                69 x            69 y         1.00000
          19                70 x            70 y         1.00000
          20                71 x            71 y         1.00000
          21                73 x            73 y         1.00000
          22                81 x            81 y         1.00000
          23                82 x            82 y         1.00000
          24                83 x            83 y         1.00000
--------------------------------------------------------------------------------


  Components of defect energy : 

--------------------------------------------------------------------------------
  Region 1 - region 1                   =     11.76627989 eV
  Region 1 - region 2a (unrelaxed)      =     -7.67308062 eV
  Region 1 - 2a (relaxed - correction)  =     -0.18486352 eV
  Region 1 (Total)                      =      3.90833575 eV
  Region 2a                             =      0.09241717 eV
  Region 2b                             =     -0.11154786 eV
--------------------------------------------------------------------------------
  Total defect energy                   =      3.88920506 eV
--------------------------------------------------------------------------------

  Largest displacement in region 2 =   0.0137 Angstroms


  Number of variables =      173

  Maximum number of calculations  =        1000
  Maximum Hessian update interval =          10
  Maximum step size               =   1.0000000
  Maximum parameter tolerance     =   0.0000100
  Maximum function  tolerance     =   0.0000100
  Maximum gradient  tolerance     =   0.0010000

  Symmetry adapted optimisation

  Symmetry to be used for second derivatives

  Newton-Raphson optimiser to be used

  BFGS hessian update to be used

  Lower half triangular hessian to be used

  Start of defect optimisation :

  Cycle:      0 Defect Energy:   3.889205  Gnorm:     0.098131  CPU:    5.792
  ** Hessian calculated **
  Cycle:      1 Defect Energy:   3.396761  Gnorm:     0.083059  CPU:    9.054
  Cycle:      2 Defect Energy:   2.565161  Gnorm:     0.017844  CPU:   11.319
  Cycle:      3 Defect Energy:   2.473512  Gnorm:     0.012719  CPU:   11.887
  Cycle:      4 Defect Energy:   2.410797  Gnorm:     0.007206  CPU:   12.418
  Cycle:      5 Defect Energy:   2.406111  Gnorm:     0.004953  CPU:   12.951
  Cycle:      6 Defect Energy:   2.403952  Gnorm:     0.003306  CPU:   13.504
  Cycle:      7 Defect Energy:   2.402969  Gnorm:     0.002279  CPU:   14.037
  Cycle:      8 Defect Energy:   2.402543  Gnorm:     0.001533  CPU:   14.572
  Cycle:      9 Defect Energy:   2.402366  Gnorm:     0.001058  CPU:   15.119
  Cycle:     10 Defect Energy:   2.402294  Gnorm:     0.000733  CPU:   15.651
  ** Hessian calculated **
  Cycle:     11 Defect Energy:   2.402267  Gnorm:     0.000513  CPU:   16.907
  Cycle:     12 Defect Energy:   2.402259  Gnorm:     0.000359  CPU:   17.422
  Cycle:     13 Defect Energy:   2.402258  Gnorm:     0.000252  CPU:   17.938
  Cycle:     14 Defect Energy:   2.402260  Gnorm:     0.000176  CPU:   18.464


  **** Optimisation achieved ****


  Final defect energy  =        2.40226271
  Final defect Gnorm   =        0.00012329

  Components of defect energy : 

--------------------------------------------------------------------------------
  Region 1 - region 1                   =     10.36634787 eV
  Region 1 - region 2a (unrelaxed)      =     -7.76846745 eV
  Region 1 - 2a (relaxed - correction)  =     -0.16813592 eV
  Region 1 (Total)                      =      2.42974450 eV
  Region 2a                             =      0.08406606 eV
  Region 2b                             =     -0.11154786 eV
--------------------------------------------------------------------------------
  Total defect energy                   =      2.40226271 eV
--------------------------------------------------------------------------------

  Largest displacement in region 2 =   0.0137 Angstroms

  Final coordinates of region 1 :

--------------------------------------------------------------------------------
   No.  Atomic        x           y           z          Radius      Charge
        Label       (Angs)      (Angs)      (Angs)       (Angs)       (e) 
--------------------------------------------------------------------------------
     1  O     c     2.214230    2.214230   -2.294461    0.000000    0.489000
     2  O     c     2.214230    2.214230    2.294461    0.000000    0.489000
     3  Cl    c     4.553788    4.553788    0.000000    0.000000    0.615000
     4  Cl    c     4.553788   -0.125328    0.000000    0.000000    0.615000
     5  Cl    c    -0.125328    4.553788    0.000000    0.000000    0.615000
     6  Cl    c    -0.125328   -0.125328    0.000000    0.000000    0.615000
     7  Na    c     4.363103    2.214230   -1.886119    0.000000    0.670000
     8  Na    c     4.363103    2.214230    1.886119    0.000000    0.670000
     9  Na    c     0.065358    2.214230   -1.886119    0.000000    0.670000
    10  Na    c     0.065358    2.214230    1.886119    0.000000    0.670000
    11  Na    c     2.214230    4.363103   -1.886119    0.000000    0.670000
    12  Na    c     2.214230    4.363103    1.886119    0.000000    0.670000
    13  Na    c     2.214230    0.065358   -1.886119    0.000000    0.670000
    14  Na    c     2.214230    0.065358    1.886119    0.000000    0.670000
    15  Na    c     2.214230    2.214230    4.447091    0.000000    0.670000
    16  Na    c     2.214230    2.214230   -4.447091    0.000000    0.670000
    17  Na    c     2.214230    6.860618    0.000000    0.000000    0.670000
    18  Na    c     2.214230   -2.432157    0.000000    0.000000    0.670000
    19  Na    c     6.860618    2.214230    0.000000    0.000000    0.670000
    20  Na    c    -2.432157    2.214230    0.000000    0.000000    0.670000
    21  O     c     2.214230    6.613346   -2.199728    0.000000    0.489000
    22  O     c     2.214230    6.613346    2.199728    0.000000    0.489000
    23  O     c     2.214230   -2.184885   -2.199728    0.000000    0.489000
    24  O     c     2.214230   -2.184885    2.199728    0.000000    0.489000
    25  O     c     6.613346    2.214230   -2.199728    0.000000    0.489000
    26  O     c     6.613346    2.214230    2.199728    0.000000    0.489000
    27  O     c    -2.184885    2.214230   -2.199728    0.000000    0.489000
    28  O     c    -2.184885    2.214230    2.199728    0.000000    0.489000
    29  Cl    c     4.506145    4.506145    4.528906    0.000000    0.615000
    30  Cl    c     4.506145    4.506145   -4.528906    0.000000    0.615000
    31  Cl    c     4.506145   -0.077684    4.528906    0.000000    0.615000
    32  Cl    c     4.506145   -0.077684   -4.528906    0.000000    0.615000
    33  Cl    c    -0.077684    4.506145    4.528906    0.000000    0.615000
    34  Cl    c    -0.077684    4.506145   -4.528906    0.000000    0.615000
    35  Cl    c    -0.077684   -0.077684    4.528906    0.000000    0.615000
    36  Cl    c    -0.077684   -0.077684   -4.528906    0.000000    0.615000
    37  Na    c     4.426156    6.601582   -2.207552    0.000000    0.670000
    38  Na    c     4.426156    6.601582    2.207552    0.000000    0.670000
    39  Na    c     4.426156   -2.173121   -2.207552    0.000000    0.670000
    40  Na    c     4.426156   -2.173121    2.207552    0.000000    0.670000
    41  Na    c     0.002305    6.601582   -2.207552    0.000000    0.670000
    42  Na    c     0.002305    6.601582    2.207552    0.000000    0.670000
    43  Na    c     0.002305   -2.173121   -2.207552    0.000000    0.670000
    44  Na    c     0.002305   -2.173121    2.207552    0.000000    0.670000
    45  Na    c     6.601582    4.426156   -2.207552    0.000000    0.670000
    46  Na    c     6.601582    4.426156    2.207552    0.000000    0.670000
    47  Na    c     6.601582    0.002305   -2.207552    0.000000    0.670000
    48  Na    c     6.601582    0.002305    2.207552    0.000000    0.670000
    49  Na    c    -2.173121    4.426156   -2.207552    0.000000    0.670000
    50  Na    c    -2.173121    4.426156    2.207552    0.000000    0.670000
    51  Na    c    -2.173121    0.002305   -2.207552    0.000000    0.670000
    52  Na    c    -2.173121    0.002305    2.207552    0.000000    0.670000
    53  Na    c     2.214230    6.380064    4.403544    0.000000    0.670000
    54  Na    c     2.214230    6.380064   -4.403544    0.000000    0.670000
    55  Na    c     2.214230   -1.951603    4.403544    0.000000    0.670000
    56  Na    c     2.214230   -1.951603   -4.403544    0.000000    0.670000
    57  Na    c     6.380064    2.214230    4.403544    0.000000    0.670000
    58  Na    c     6.380064    2.214230   -4.403544    0.000000    0.670000
    59  Na    c    -1.951603    2.214230    4.403544    0.000000    0.670000
    60  Na    c    -1.951603    2.214230   -4.403544    0.000000    0.670000
    61  Na    c     6.639561    6.639561    0.000000    0.000000    0.670000
    62  Na    c     6.639561   -2.211100    0.000000    0.000000    0.670000
    63  Na    c    -2.211100    6.639561    0.000000    0.000000    0.670000
    64  Na    c    -2.211100   -2.211100    0.000000    0.000000    0.670000
    65  O     c     6.647068    6.647068   -2.220760    0.000000    0.489000
    66  O     c     6.647068    6.647068    2.220760    0.000000    0.489000
    67  O     c     6.647068   -2.218607   -2.220760    0.000000    0.489000
    68  O     c     6.647068   -2.218607    2.220760    0.000000    0.489000
    69  O     c    -2.218607    6.647068   -2.220760    0.000000    0.489000
    70  O     c    -2.218607    6.647068    2.220760    0.000000    0.489000
    71  O     c    -2.218607   -2.218607   -2.220760    0.000000    0.489000
    72  O     c    -2.218607   -2.218607    2.220760    0.000000    0.489000
    73  O     c     2.214230    2.214230    6.681357    0.000000    0.489000
    74  O     c     2.214230    2.214230   -6.681357    0.000000    0.489000
    75  Cl    c     4.448459    8.885248    0.000000    0.000000    0.615000
    76  Cl    c     4.448459   -4.456787    0.000000    0.000000    0.615000
    77  Cl    c     8.885248    4.448459    0.000000    0.000000    0.615000
    78  Cl    c     8.885248   -0.019998    0.000000    0.000000    0.615000
    79  Cl    c    -0.019998    8.885248    0.000000    0.000000    0.615000
    80  Cl    c    -0.019998   -4.456787    0.000000    0.000000    0.615000
    81  Cl    c    -4.456787    4.448459    0.000000    0.000000    0.615000
    82  Cl    c    -4.456787   -0.019998    0.000000    0.000000    0.615000
    83  Na    c     4.422071    2.214230    6.710448    0.000000    0.670000
    84  Na    c     4.422071    2.214230   -6.710448    0.000000    0.670000
    85  Na    c     0.006390    2.214230    6.710448    0.000000    0.670000
    86  Na    c     0.006390    2.214230   -6.710448    0.000000    0.670000
    87  Na    c     2.214230    4.422071    6.710448    0.000000    0.670000
    88  Na    c     2.214230    4.422071   -6.710448    0.000000    0.670000
    89  Na    c     2.214230    0.006390    6.710448    0.000000    0.670000
    90  Na    c     2.214230    0.006390   -6.710448    0.000000    0.670000
    91  Na    c     8.830201    2.214230   -2.416254    0.000000    0.670000
    92  Na    c     8.830201    2.214230    2.416254    0.000000    0.670000
    93  Na    c    -4.401740    2.214230   -2.416254    0.000000    0.670000
    94  Na    c    -4.401740    2.214230    2.416254    0.000000    0.670000
    95  Na    c     2.214230    8.830201   -2.416254    0.000000    0.670000
    96  Na    c     2.214230    8.830201    2.416254    0.000000    0.670000
    97  Na    c     2.214230   -4.401740   -2.416254    0.000000    0.670000
    98  Na    c     2.214230   -4.401740    2.416254    0.000000    0.670000
    99  Na    c     6.636604    6.636604    4.432242    0.000000    0.670000
   100  Na    c     6.636604    6.636604   -4.432242    0.000000    0.670000
   101  Na    c     6.636604   -2.208143    4.432242    0.000000    0.670000
   102  Na    c     6.636604   -2.208143   -4.432242    0.000000    0.670000
   103  Na    c    -2.208143    6.636604    4.432242    0.000000    0.670000
   104  Na    c    -2.208143    6.636604   -4.432242    0.000000    0.670000
   105  Na    c    -2.208143   -2.208143    4.432242    0.000000    0.670000
   106  Na    c    -2.208143   -2.208143   -4.432242    0.000000    0.670000
   107  O     c     2.214230    6.636049    6.625312    0.000000    0.489000
   108  O     c     2.214230    6.636049   -6.625312    0.000000    0.489000
   109  O     c     2.214230   -2.207588    6.625312    0.000000    0.489000
   110  O     c     2.214230   -2.207588   -6.625312    0.000000    0.489000
   111  O     c     6.636049    2.214230    6.625312    0.000000    0.489000
   112  O     c     6.636049    2.214230   -6.625312    0.000000    0.489000
   113  O     c    -2.207588    2.214230    6.625312    0.000000    0.489000
   114  O     c    -2.207588    2.214230   -6.625312    0.000000    0.489000
   115  Cl    c     4.449106    8.892231    4.434842    0.000000    0.615000
   116  Cl    c     4.449106    8.892231   -4.434842    0.000000    0.615000
   117  Cl    c     4.449106   -4.463770    4.434842    0.000000    0.615000
   118  Cl    c     4.449106   -4.463770   -4.434842    0.000000    0.615000
   119  Cl    c     8.892231    4.449106    4.434842    0.000000    0.615000
   120  Cl    c     8.892231    4.449106   -4.434842    0.000000    0.615000
   121  Cl    c     8.892231   -0.020646    4.434842    0.000000    0.615000
   122  Cl    c     8.892231   -0.020646   -4.434842    0.000000    0.615000
   123  Cl    c    -0.020646    8.892231    4.434842    0.000000    0.615000
   124  Cl    c    -0.020646    8.892231   -4.434842    0.000000    0.615000
   125  Cl    c    -0.020646   -4.463770    4.434842    0.000000    0.615000
   126  Cl    c    -0.020646   -4.463770   -4.434842    0.000000    0.615000
   127  Cl    c    -4.463770    4.449106    4.434842    0.000000    0.615000
   128  Cl    c    -4.463770    4.449106   -4.434842    0.000000    0.615000
   129  Cl    c    -4.463770   -0.020646    4.434842    0.000000    0.615000
   130  Cl    c    -4.463770   -0.020646   -4.434842    0.000000    0.615000
   131  Na    c     4.430466    6.640114    6.620803    0.000000    0.670000
   132  Na    c     4.430466    6.640114   -6.620803    0.000000    0.670000
   133  Na    c     4.430466   -2.211653    6.620803    0.000000    0.670000
   134  Na    c     4.430466   -2.211653   -6.620803    0.000000    0.670000
   135  Na    c    -0.002005    6.640114    6.620803    0.000000    0.670000
   136  Na    c    -0.002005    6.640114   -6.620803    0.000000    0.670000
   137  Na    c    -0.002005   -2.211653    6.620803    0.000000    0.670000
   138  Na    c    -0.002005   -2.211653   -6.620803    0.000000    0.670000
   139  Na    c     6.640114    4.430466    6.620803    0.000000    0.670000
   140  Na    c     6.640114    4.430466   -6.620803    0.000000    0.670000
   141  Na    c     6.640114   -0.002005    6.620803    0.000000    0.670000
   142  Na    c     6.640114   -0.002005   -6.620803    0.000000    0.670000
   143  Na    c    -2.211653    4.430466    6.620803    0.000000    0.670000
   144  Na    c    -2.211653    4.430466   -6.620803    0.000000    0.670000
   145  Na    c    -2.211653   -0.002005    6.620803    0.000000    0.670000
   146  Na    c    -2.211653   -0.002005   -6.620803    0.000000    0.670000
   147  Na    c     8.854292    6.630746   -2.218496    0.000000    0.670000
   148  Na    c     8.854292    6.630746    2.218496    0.000000    0.670000
   149  Na    c     8.854292   -2.202285   -2.218496    0.000000    0.670000
   150  Na    c     8.854292   -2.202285    2.218496    0.000000    0.670000
   151  Na    c    -4.425831    6.630746   -2.218496    0.000000    0.670000
   152  Na    c    -4.425831    6.630746    2.218496    0.000000    0.670000
   153  Na    c    -4.425831   -2.202285   -2.218496    0.000000    0.670000
   154  Na    c    -4.425831   -2.202285    2.218496    0.000000    0.670000
   155  Na    c     6.630746    8.854292   -2.218496    0.000000    0.670000
   156  Na    c     6.630746    8.854292    2.218496    0.000000    0.670000
   157  Na    c     6.630746   -4.425831   -2.218496    0.000000    0.670000
   158  Na    c     6.630746   -4.425831    2.218496    0.000000    0.670000
   159  Na    c    -2.202285    8.854292   -2.218496    0.000000    0.670000
   160  Na    c    -2.202285    8.854292    2.218496    0.000000    0.670000
   161  Na    c    -2.202285   -4.425831   -2.218496    0.000000    0.670000
   162  Na    c    -2.202285   -4.425831    2.218496    0.000000    0.670000
   163  Na    c     2.214230    2.214230    8.883611    0.000000    0.670000
   164  Na    c     2.214230    2.214230   -8.883611    0.000000    0.670000
   165  Na    c     2.214230   10.895083    0.000000    0.000000    0.670000
   166  Na    c     2.214230   -6.466623    0.000000    0.000000    0.670000
   167  Na    c    10.895083    2.214230    0.000000    0.000000    0.670000
   168  Na    c    -6.466623    2.214230    0.000000    0.000000    0.670000
   169  O     c     2.214230   11.053047   -2.216065    0.000000    0.489000
   170  O     c     2.214230   11.053047    2.216065    0.000000    0.489000
   171  O     c     2.214230   -6.624586   -2.216065    0.000000    0.489000
   172  O     c     2.214230   -6.624586    2.216065    0.000000    0.489000
   173  O     c    11.053047    2.214230   -2.216065    0.000000    0.489000
   174  O     c    11.053047    2.214230    2.216065    0.000000    0.489000
   175  O     c    -6.624586    2.214230   -2.216065    0.000000    0.489000
   176  O     c    -6.624586    2.214230    2.216065    0.000000    0.489000
   177  O     c     6.651078    6.651078    6.650863    0.000000    0.489000
   178  O     c     6.651078    6.651078   -6.650863    0.000000    0.489000
   179  O     c     6.651078   -2.222617    6.650863    0.000000    0.489000
   180  O     c     6.651078   -2.222617   -6.650863    0.000000    0.489000
   181  O     c    -2.222617    6.651078    6.650863    0.000000    0.489000
   182  O     c    -2.222617    6.651078   -6.650863    0.000000    0.489000
   183  O     c    -2.222617   -2.222617    6.650863    0.000000    0.489000
   184  O     c    -2.222617   -2.222617   -6.650863    0.000000    0.489000
   185  Cl    c     4.428709    4.428709    8.884993    0.000000    0.615000
   186  Cl    c     4.428709    4.428709   -8.884993    0.000000    0.615000
   187  Cl    c     4.428709   -0.000248    8.884993    0.000000    0.615000
   188  Cl    c     4.428709   -0.000248   -8.884993    0.000000    0.615000
   189  Cl    c    -0.000248    4.428709    8.884993    0.000000    0.615000
   190  Cl    c    -0.000248    4.428709   -8.884993    0.000000    0.615000
   191  Cl    c    -0.000248   -0.000248    8.884993    0.000000    0.615000
   192  Cl    c    -0.000248   -0.000248   -8.884993    0.000000    0.615000
   193  Na    c     4.427203   11.050789   -2.194842    0.000000    0.670000
   194  Na    c     4.427203   11.050789    2.194842    0.000000    0.670000
   195  Na    c     4.427203   -6.622328   -2.194842    0.000000    0.670000
   196  Na    c     4.427203   -6.622328    2.194842    0.000000    0.670000
   197  Na    c     0.001258   11.050789   -2.194842    0.000000    0.670000
   198  Na    c     0.001258   11.050789    2.194842    0.000000    0.670000
   199  Na    c     0.001258   -6.622328   -2.194842    0.000000    0.670000
   200  Na    c     0.001258   -6.622328    2.194842    0.000000    0.670000
   201  Na    c    11.050789    4.427203   -2.194842    0.000000    0.670000
   202  Na    c    11.050789    4.427203    2.194842    0.000000    0.670000
   203  Na    c    11.050789    0.001258   -2.194842    0.000000    0.670000
   204  Na    c    11.050789    0.001258    2.194842    0.000000    0.670000
   205  Na    c    -6.622328    4.427203   -2.194842    0.000000    0.670000
   206  Na    c    -6.622328    4.427203    2.194842    0.000000    0.670000
   207  Na    c    -6.622328    0.001258   -2.194842    0.000000    0.670000
   208  Na    c    -6.622328    0.001258    2.194842    0.000000    0.670000
   209  Cl    c     8.876914    8.876914    0.000000    0.000000    0.615000
   210  Cl    c     8.876914   -4.448453    0.000000    0.000000    0.615000
   211  Cl    c    -4.448453    8.876914    0.000000    0.000000    0.615000
   212  Cl    c    -4.448453   -4.448453    0.000000    0.000000    0.615000
   213  Na    c     8.844934    2.214230    6.486685    0.000000    0.670000
   214  Na    c     8.844934    2.214230   -6.486685    0.000000    0.670000
   215  Na    c    -4.416473    2.214230    6.486685    0.000000    0.670000
   216  Na    c    -4.416473    2.214230   -6.486685    0.000000    0.670000
   217  Na    c     2.214230    8.844934    6.486685    0.000000    0.670000
   218  Na    c     2.214230    8.844934   -6.486685    0.000000    0.670000
   219  Na    c     2.214230   -4.416473    6.486685    0.000000    0.670000
   220  Na    c     2.214230   -4.416473   -6.486685    0.000000    0.670000
   221  Na    c     2.214230    6.708734    8.842837    0.000000    0.670000
   222  Na    c     2.214230    6.708734   -8.842837    0.000000    0.670000
   223  Na    c     2.214230   -2.280273    8.842837    0.000000    0.670000
   224  Na    c     2.214230   -2.280273   -8.842837    0.000000    0.670000
   225  Na    c     6.708734    2.214230    8.842837    0.000000    0.670000
   226  Na    c     6.708734    2.214230   -8.842837    0.000000    0.670000
   227  Na    c    -2.280273    2.214230    8.842837    0.000000    0.670000
   228  Na    c    -2.280273    2.214230   -8.842837    0.000000    0.670000
   229  Na    c     2.214230   11.187643    4.424576    0.000000    0.670000
   230  Na    c     2.214230   11.187643   -4.424576    0.000000    0.670000
   231  Na    c     2.214230   -6.759182    4.424576    0.000000    0.670000
   232  Na    c     2.214230   -6.759182   -4.424576    0.000000    0.670000
   233  Na    c    11.187643    2.214230    4.424576    0.000000    0.670000
   234  Na    c    11.187643    2.214230   -4.424576    0.000000    0.670000
   235  Na    c    -6.759182    2.214230    4.424576    0.000000    0.670000
   236  Na    c    -6.759182    2.214230   -4.424576    0.000000    0.670000
   237  Na    c     6.658821   11.056689    0.000000    0.000000    0.670000
   238  Na    c     6.658821   -6.628228    0.000000    0.000000    0.670000
   239  Na    c    11.056689    6.658821    0.000000    0.000000    0.670000
   240  Na    c    11.056689   -2.230360    0.000000    0.000000    0.670000
   241  Na    c    -2.230360   11.056689    0.000000    0.000000    0.670000
   242  Na    c    -2.230360   -6.628228    0.000000    0.000000    0.670000
   243  Na    c    -6.628228    6.658821    0.000000    0.000000    0.670000
   244  Na    c    -6.628228   -2.230360    0.000000    0.000000    0.670000
   245  O     c     6.643306   11.072277   -2.213320    0.000000    0.489000
   246  O     c     6.643306   11.072277    2.213320    0.000000    0.489000
   247  O     c     6.643306   -6.643816   -2.213320    0.000000    0.489000
   248  O     c     6.643306   -6.643816    2.213320    0.000000    0.489000
   249  O     c    11.072277    6.643306   -2.213320    0.000000    0.489000
   250  O     c    11.072277    6.643306    2.213320    0.000000    0.489000
   251  O     c    11.072277   -2.214846   -2.213320    0.000000    0.489000
   252  O     c    11.072277   -2.214846    2.213320    0.000000    0.489000
   253  O     c    -2.214846   11.072277   -2.213320    0.000000    0.489000
   254  O     c    -2.214846   11.072277    2.213320    0.000000    0.489000
   255  O     c    -2.214846   -6.643816   -2.213320    0.000000    0.489000
   256  O     c    -2.214846   -6.643816    2.213320    0.000000    0.489000
   257  O     c    -6.643816    6.643306   -2.213320    0.000000    0.489000
   258  O     c    -6.643816    6.643306    2.213320    0.000000    0.489000
   259  O     c    -6.643816   -2.214846   -2.213320    0.000000    0.489000
   260  O     c    -6.643816   -2.214846    2.213320    0.000000    0.489000
   261  Cl    c     8.875326    8.875326    4.439517    0.000000    0.615000
   262  Cl    c     8.875326    8.875326   -4.439517    0.000000    0.615000
   263  Cl    c     8.875326   -4.446865    4.439517    0.000000    0.615000
   264  Cl    c     8.875326   -4.446865   -4.439517    0.000000    0.615000
   265  Cl    c    -4.446865    8.875326    4.439517    0.000000    0.615000
   266  Cl    c    -4.446865    8.875326   -4.439517    0.000000    0.615000
   267  Cl    c    -4.446865   -4.446865    4.439517    0.000000    0.615000
   268  Cl    c    -4.446865   -4.446865   -4.439517    0.000000    0.615000
   269  Na    c     8.859389    6.642980    6.640616    0.000000    0.670000
   270  Na    c     8.859389    6.642980   -6.640616    0.000000    0.670000
   271  Na    c     8.859389   -2.214519    6.640616    0.000000    0.670000
   272  Na    c     8.859389   -2.214519   -6.640616    0.000000    0.670000
   273  Na    c    -4.430928    6.642980    6.640616    0.000000    0.670000
   274  Na    c    -4.430928    6.642980   -6.640616    0.000000    0.670000
   275  Na    c    -4.430928   -2.214519    6.640616    0.000000    0.670000
   276  Na    c    -4.430928   -2.214519   -6.640616    0.000000    0.670000
   277  Na    c     6.642980    8.859389    6.640616    0.000000    0.670000
   278  Na    c     6.642980    8.859389   -6.640616    0.000000    0.670000
   279  Na    c     6.642980   -4.430928    6.640616    0.000000    0.670000
   280  Na    c     6.642980   -4.430928   -6.640616    0.000000    0.670000
   281  Na    c    -2.214519    8.859389    6.640616    0.000000    0.670000
   282  Na    c    -2.214519    8.859389   -6.640616    0.000000    0.670000
   283  Na    c    -2.214519   -4.430928    6.640616    0.000000    0.670000
   284  Na    c    -2.214519   -4.430928   -6.640616    0.000000    0.670000
   285  Na    c     6.639968    6.639968    8.858093    0.000000    0.670000
   286  Na    c     6.639968    6.639968   -8.858093    0.000000    0.670000
   287  Na    c     6.639968   -2.211507    8.858093    0.000000    0.670000
   288  Na    c     6.639968   -2.211507   -8.858093    0.000000    0.670000
   289  Na    c    -2.211507    6.639968    8.858093    0.000000    0.670000
   290  Na    c    -2.211507    6.639968   -8.858093    0.000000    0.670000
   291  Na    c    -2.211507   -2.211507    8.858093    0.000000    0.670000
   292  Na    c    -2.211507   -2.211507   -8.858093    0.000000    0.670000
   293  Na    c     6.625958   11.069081    4.427924    0.000000    0.670000
   294  Na    c     6.625958   11.069081   -4.427924    0.000000    0.670000
   295  Na    c     6.625958   -6.640620    4.427924    0.000000    0.670000
   296  Na    c     6.625958   -6.640620   -4.427924    0.000000    0.670000
   297  Na    c    11.069081    6.625958    4.427924    0.000000    0.670000
   298  Na    c    11.069081    6.625958   -4.427924    0.000000    0.670000
   299  Na    c    11.069081   -2.197497    4.427924    0.000000    0.670000
   300  Na    c    11.069081   -2.197497   -4.427924    0.000000    0.670000
   301  Na    c    -2.197497   11.069081    4.427924    0.000000    0.670000
   302  Na    c    -2.197497   11.069081   -4.427924    0.000000    0.670000
   303  Na    c    -2.197497   -6.640620    4.427924    0.000000    0.670000
   304  Na    c    -2.197497   -6.640620   -4.427924    0.000000    0.670000
   305  Na    c    -6.640620    6.625958    4.427924    0.000000    0.670000
   306  Na    c    -6.640620    6.625958   -4.427924    0.000000    0.670000
   307  Na    c    -6.640620   -2.197497    4.427924    0.000000    0.670000
   308  Na    c    -6.640620   -2.197497   -4.427924    0.000000    0.670000
   309  O     c     2.214230   11.067238    6.634421    0.000000    0.489000
   310  O     c     2.214230   11.067238   -6.634421    0.000000    0.489000
   311  O     c     2.214230   -6.638778    6.634421    0.000000    0.489000
   312  O     c     2.214230   -6.638778   -6.634421    0.000000    0.489000
   313  O     c    11.067238    2.214230    6.634421    0.000000    0.489000
   314  O     c    11.067238    2.214230   -6.634421    0.000000    0.489000
   315  O     c    -6.638778    2.214230    6.634421    0.000000    0.489000
   316  O     c    -6.638778    2.214230   -6.634421    0.000000    0.489000
   317  O     c     2.214230    2.214230   11.082047    0.000000    0.489000
   318  O     c     2.214230    2.214230  -11.082047    0.000000    0.489000
   319  Cl    c     4.436442    8.867002    8.877194    0.000000    0.615000
   320  Cl    c     4.436442    8.867002   -8.877194    0.000000    0.615000
   321  Cl    c     4.436442   -4.438541    8.877194    0.000000    0.615000
   322  Cl    c     4.436442   -4.438541   -8.877194    0.000000    0.615000
   323  Cl    c     8.867002    4.436442    8.877194    0.000000    0.615000
   324  Cl    c     8.867002    4.436442   -8.877194    0.000000    0.615000
   325  Cl    c     8.867002   -0.007981    8.877194    0.000000    0.615000
   326  Cl    c     8.867002   -0.007981   -8.877194    0.000000    0.615000
   327  Cl    c    -0.007981    8.867002    8.877194    0.000000    0.615000
   328  Cl    c    -0.007981    8.867002   -8.877194    0.000000    0.615000
   329  Cl    c    -0.007981   -4.438541    8.877194    0.000000    0.615000
   330  Cl    c    -0.007981   -4.438541   -8.877194    0.000000    0.615000
   331  Cl    c    -4.438541    4.436442    8.877194    0.000000    0.615000
   332  Cl    c    -4.438541    4.436442   -8.877194    0.000000    0.615000
   333  Cl    c    -4.438541   -0.007981    8.877194    0.000000    0.615000
   334  Cl    c    -4.438541   -0.007981   -8.877194    0.000000    0.615000
   335  Na    c     4.427342   11.055274    6.646120    0.000000    0.670000
   336  Na    c     4.427342   11.055274   -6.646120    0.000000    0.670000
   337  Na    c     4.427342   -6.626814    6.646120    0.000000    0.670000
   338  Na    c     4.427342   -6.626814   -6.646120    0.000000    0.670000
   339  Na    c     0.001119   11.055274    6.646120    0.000000    0.670000
   340  Na    c     0.001119   11.055274   -6.646120    0.000000    0.670000
   341  Na    c     0.001119   -6.626814    6.646120    0.000000    0.670000
   342  Na    c     0.001119   -6.626814   -6.646120    0.000000    0.670000
   343  Na    c    11.055274    4.427342    6.646120    0.000000    0.670000
   344  Na    c    11.055274    4.427342   -6.646120    0.000000    0.670000
   345  Na    c    11.055274    0.001119    6.646120    0.000000    0.670000
   346  Na    c    11.055274    0.001119   -6.646120    0.000000    0.670000
   347  Na    c    -6.626814    4.427342    6.646120    0.000000    0.670000
   348  Na    c    -6.626814    4.427342   -6.646120    0.000000    0.670000
   349  Na    c    -6.626814    0.001119    6.646120    0.000000    0.670000
   350  Na    c    -6.626814    0.001119   -6.646120    0.000000    0.670000
   351  Na    c     8.856243   11.064945   -2.225615    0.000000    0.670000
   352  Na    c     8.856243   11.064945    2.225615    0.000000    0.670000
   353  Na    c     8.856243   -6.636484   -2.225615    0.000000    0.670000
   354  Na    c     8.856243   -6.636484    2.225615    0.000000    0.670000
   355  Na    c    -4.427782   11.064945   -2.225615    0.000000    0.670000
   356  Na    c    -4.427782   11.064945    2.225615    0.000000    0.670000
   357  Na    c    -4.427782   -6.636484   -2.225615    0.000000    0.670000
   358  Na    c    -4.427782   -6.636484    2.225615    0.000000    0.670000
   359  Na    c    11.064945    8.856243   -2.225615    0.000000    0.670000
   360  Na    c    11.064945    8.856243    2.225615    0.000000    0.670000
   361  Na    c    11.064945   -4.427782   -2.225615    0.000000    0.670000
   362  Na    c    11.064945   -4.427782    2.225615    0.000000    0.670000
   363  Na    c    -6.636484    8.856243   -2.225615    0.000000    0.670000
   364  Na    c    -6.636484    8.856243    2.225615    0.000000    0.670000
   365  Na    c    -6.636484   -4.427782   -2.225615    0.000000    0.670000
   366  Na    c    -6.636484   -4.427782    2.225615    0.000000    0.670000
   367  Cl    c     4.427501   13.312400    0.000000    0.000000    0.615000
   368  Cl    c     4.427501   -8.883939    0.000000    0.000000    0.615000
   369  Cl    c    13.312400    4.427501    0.000000    0.000000    0.615000
   370  Cl    c    13.312400    0.000960    0.000000    0.000000    0.615000
   371  Cl    c     0.000960   13.312400    0.000000    0.000000    0.615000
   372  Cl    c     0.000960   -8.883939    0.000000    0.000000    0.615000
   373  Cl    c    -8.883939    4.427501    0.000000    0.000000    0.615000
   374  Cl    c    -8.883939    0.000960    0.000000    0.000000    0.615000
   375  Na    c     4.433572    2.214230   11.056887    0.000000    0.670000
   376  Na    c     4.433572    2.214230  -11.056887    0.000000    0.670000
   377  Na    c    -0.005111    2.214230   11.056887    0.000000    0.670000
   378  Na    c    -0.005111    2.214230  -11.056887    0.000000    0.670000
   379  Na    c     2.214230    4.433572   11.056887    0.000000    0.670000
   380  Na    c     2.214230    4.433572  -11.056887    0.000000    0.670000
   381  Na    c     2.214230   -0.005111   11.056887    0.000000    0.670000
   382  Na    c     2.214230   -0.005111  -11.056887    0.000000    0.670000
   383  Na    c    13.274320    2.214230   -2.137194    0.000000    0.670000
   384  Na    c    13.274320    2.214230    2.137194    0.000000    0.670000
   385  Na    c    -8.845859    2.214230   -2.137194    0.000000    0.670000
   386  Na    c    -8.845859    2.214230    2.137194    0.000000    0.670000
   387  Na    c     2.214230   13.274320   -2.137194    0.000000    0.670000
   388  Na    c     2.214230   13.274320    2.137194    0.000000    0.670000
   389  Na    c     2.214230   -8.845859   -2.137194    0.000000    0.670000
   390  Na    c     2.214230   -8.845859    2.137194    0.000000    0.670000
   391  O     c     6.642970   11.074193    6.644787    0.000000    0.489000
   392  O     c     6.642970   11.074193   -6.644787    0.000000    0.489000
   393  O     c     6.642970   -6.645732    6.644787    0.000000    0.489000
   394  O     c     6.642970   -6.645732   -6.644787    0.000000    0.489000
   395  O     c    11.074193    6.642970    6.644787    0.000000    0.489000
   396  O     c    11.074193    6.642970   -6.644787    0.000000    0.489000
   397  O     c    11.074193   -2.214509    6.644787    0.000000    0.489000
   398  O     c    11.074193   -2.214509   -6.644787    0.000000    0.489000
   399  O     c    -2.214509   11.074193    6.644787    0.000000    0.489000
   400  O     c    -2.214509   11.074193   -6.644787    0.000000    0.489000
   401  O     c    -2.214509   -6.645732    6.644787    0.000000    0.489000
   402  O     c    -2.214509   -6.645732   -6.644787    0.000000    0.489000
   403  O     c    -6.645732    6.642970    6.644787    0.000000    0.489000
   404  O     c    -6.645732    6.642970   -6.644787    0.000000    0.489000
   405  O     c    -6.645732   -2.214509    6.644787    0.000000    0.489000
   406  O     c    -6.645732   -2.214509   -6.644787    0.000000    0.489000
   407  O     c     2.214230    6.649410   11.068176    0.000000    0.489000
   408  O     c     2.214230    6.649410  -11.068176    0.000000    0.489000
   409  O     c     2.214230   -2.220949   11.068176    0.000000    0.489000
   410  O     c     2.214230   -2.220949  -11.068176    0.000000    0.489000
   411  O     c     6.649410    2.214230   11.068176    0.000000    0.489000
   412  O     c     6.649410    2.214230  -11.068176    0.000000    0.489000
   413  O     c    -2.220949    2.214230   11.068176    0.000000    0.489000
   414  O     c    -2.220949    2.214230  -11.068176    0.000000    0.489000
   415  Cl    c     4.431016   13.298921    4.433575    0.000000    0.615000
   416  Cl    c     4.431016   13.298921   -4.433575    0.000000    0.615000
   417  Cl    c     4.431016   -8.870460    4.433575    0.000000    0.615000
   418  Cl    c     4.431016   -8.870460   -4.433575    0.000000    0.615000
   419  Cl    c    13.298921    4.431016    4.433575    0.000000    0.615000
   420  Cl    c    13.298921    4.431016   -4.433575    0.000000    0.615000
   421  Cl    c    13.298921   -0.002555    4.433575    0.000000    0.615000
   422  Cl    c    13.298921   -0.002555   -4.433575    0.000000    0.615000
   423  Cl    c    -0.002555   13.298921    4.433575    0.000000    0.615000
   424  Cl    c    -0.002555   13.298921   -4.433575    0.000000    0.615000
   425  Cl    c    -0.002555   -8.870460    4.433575    0.000000    0.615000
   426  Cl    c    -0.002555   -8.870460   -4.433575    0.000000    0.615000
   427  Cl    c    -8.870460    4.431016    4.433575    0.000000    0.615000
   428  Cl    c    -8.870460    4.431016   -4.433575    0.000000    0.615000
   429  Cl    c    -8.870460   -0.002555    4.433575    0.000000    0.615000
   430  Cl    c    -8.870460   -0.002555   -4.433575    0.000000    0.615000
   431  Na    c     4.428005    6.636960   11.058128    0.000000    0.670000
   432  Na    c     4.428005    6.636960  -11.058128    0.000000    0.670000
   433  Na    c     4.428005   -2.208499   11.058128    0.000000    0.670000
   434  Na    c     4.428005   -2.208499  -11.058128    0.000000    0.670000
   435  Na    c     0.000456    6.636960   11.058128    0.000000    0.670000
   436  Na    c     0.000456    6.636960  -11.058128    0.000000    0.670000
   437  Na    c     0.000456   -2.208499   11.058128    0.000000    0.670000
   438  Na    c     0.000456   -2.208499  -11.058128    0.000000    0.670000
   439  Na    c     6.636960    4.428005   11.058128    0.000000    0.670000
   440  Na    c     6.636960    4.428005  -11.058128    0.000000    0.670000
   441  Na    c     6.636960    0.000456   11.058128    0.000000    0.670000
   442  Na    c     6.636960    0.000456  -11.058128    0.000000    0.670000
   443  Na    c    -2.208499    4.428005   11.058128    0.000000    0.670000
   444  Na    c    -2.208499    4.428005  -11.058128    0.000000    0.670000
   445  Na    c    -2.208499    0.000456   11.058128    0.000000    0.670000
   446  Na    c    -2.208499    0.000456  -11.058128    0.000000    0.670000
   447  Na    c    13.283328    6.635569   -2.211046    0.000000    0.670000
   448  Na    c    13.283328    6.635569    2.211046    0.000000    0.670000
   449  Na    c    13.283328   -2.207108   -2.211046    0.000000    0.670000
   450  Na    c    13.283328   -2.207108    2.211046    0.000000    0.670000
   451  Na    c    -8.854867    6.635569   -2.211046    0.000000    0.670000
   452  Na    c    -8.854867    6.635569    2.211046    0.000000    0.670000
   453  Na    c    -8.854867   -2.207108   -2.211046    0.000000    0.670000
   454  Na    c    -8.854867   -2.207108    2.211046    0.000000    0.670000
   455  Na    c     6.635569   13.283328   -2.211046    0.000000    0.670000
   456  Na    c     6.635569   13.283328    2.211046    0.000000    0.670000
   457  Na    c     6.635569   -8.854867   -2.211046    0.000000    0.670000
   458  Na    c     6.635569   -8.854867    2.211046    0.000000    0.670000
   459  Na    c    -2.207108   13.283328   -2.211046    0.000000    0.670000
   460  Na    c    -2.207108   13.283328    2.211046    0.000000    0.670000
   461  Na    c    -2.207108   -8.854867   -2.211046    0.000000    0.670000
   462  Na    c    -2.207108   -8.854867    2.211046    0.000000    0.670000
   463  Na    c     2.214230   11.002535    8.849259    0.000000    0.670000
   464  Na    c     2.214230   11.002535   -8.849259    0.000000    0.670000
   465  Na    c     2.214230   -6.574074    8.849259    0.000000    0.670000
   466  Na    c     2.214230   -6.574074   -8.849259    0.000000    0.670000
   467  Na    c    11.002535    2.214230    8.849259    0.000000    0.670000
   468  Na    c    11.002535    2.214230   -8.849259    0.000000    0.670000
   469  Na    c    -6.574074    2.214230    8.849259    0.000000    0.670000
   470  Na    c    -6.574074    2.214230   -8.849259    0.000000    0.670000
   471  Na    c    11.059556   11.059556    0.000000    0.000000    0.670000
   472  Na    c    11.059556   -6.631096    0.000000    0.000000    0.670000
   473  Na    c    -6.631096   11.059556    0.000000    0.000000    0.670000
   474  Na    c    -6.631096   -6.631096    0.000000    0.000000    0.670000
   475  O     c    11.073369   11.073369   -2.215901    0.000000    0.489000
   476  O     c    11.073369   11.073369    2.215901    0.000000    0.489000
   477  O     c    11.073369   -6.644908   -2.215901    0.000000    0.489000
   478  O     c    11.073369   -6.644908    2.215901    0.000000    0.489000
   479  O     c    -6.644908   11.073369   -2.215901    0.000000    0.489000
   480  O     c    -6.644908   11.073369    2.215901    0.000000    0.489000
   481  O     c    -6.644908   -6.644908   -2.215901    0.000000    0.489000
   482  O     c    -6.644908   -6.644908    2.215901    0.000000    0.489000
   483  O     c     6.643890    6.643890   11.074814    0.000000    0.489000
   484  O     c     6.643890    6.643890  -11.074814    0.000000    0.489000
   485  O     c     6.643890   -2.215429   11.074814    0.000000    0.489000
   486  O     c     6.643890   -2.215429  -11.074814    0.000000    0.489000
   487  O     c    -2.215429    6.643890   11.074814    0.000000    0.489000
   488  O     c    -2.215429    6.643890  -11.074814    0.000000    0.489000
   489  O     c    -2.215429   -2.215429   11.074814    0.000000    0.489000
   490  O     c    -2.215429   -2.215429  -11.074814    0.000000    0.489000
   491  Cl    c     8.870914    8.870914    8.873364    0.000000    0.615000
   492  Cl    c     8.870914    8.870914   -8.873364    0.000000    0.615000
   493  Cl    c     8.870914   -4.442453    8.873364    0.000000    0.615000
   494  Cl    c     8.870914   -4.442453   -8.873364    0.000000    0.615000
   495  Cl    c    -4.442453    8.870914    8.873364    0.000000    0.615000
   496  Cl    c    -4.442453    8.870914   -8.873364    0.000000    0.615000
   497  Cl    c    -4.442453   -4.442453    8.873364    0.000000    0.615000
   498  Cl    c    -4.442453   -4.442453   -8.873364    0.000000    0.615000
   499  Cl    c     8.866125   13.304826    0.000000    0.000000    0.615000
   500  Cl    c     8.866125   -8.876365    0.000000    0.000000    0.615000
   501  Cl    c    13.304826    8.866125    0.000000    0.000000    0.615000
   502  Cl    c    13.304826   -4.437665    0.000000    0.000000    0.615000
   503  Cl    c    -4.437665   13.304826    0.000000    0.000000    0.615000
   504  Cl    c    -4.437665   -8.876365    0.000000    0.000000    0.615000
   505  Cl    c    -8.876365    8.866125    0.000000    0.000000    0.615000
   506  Cl    c    -8.876365   -4.437665    0.000000    0.000000    0.615000
   507  Na    c     8.857866    2.214230   11.088813    0.000000    0.670000
   508  Na    c     8.857866    2.214230  -11.088813    0.000000    0.670000
   509  Na    c    -4.429405    2.214230   11.088813    0.000000    0.670000
   510  Na    c    -4.429405    2.214230  -11.088813    0.000000    0.670000
   511  Na    c     2.214230    8.857866   11.088813    0.000000    0.670000
   512  Na    c     2.214230    8.857866  -11.088813    0.000000    0.670000
   513  Na    c     2.214230   -4.429405   11.088813    0.000000    0.670000
   514  Na    c     2.214230   -4.429405  -11.088813    0.000000    0.670000
   515  Na    c     8.855580   11.064353    6.633286    0.000000    0.670000
   516  Na    c     8.855580   11.064353   -6.633286    0.000000    0.670000
   517  Na    c     8.855580   -6.635892    6.633286    0.000000    0.670000
   518  Na    c     8.855580   -6.635892   -6.633286    0.000000    0.670000
   519  Na    c    -4.427119   11.064353    6.633286    0.000000    0.670000
   520  Na    c    -4.427119   11.064353   -6.633286    0.000000    0.670000
   521  Na    c    -4.427119   -6.635892    6.633286    0.000000    0.670000
   522  Na    c    -4.427119   -6.635892   -6.633286    0.000000    0.670000
   523  Na    c    11.064353    8.855580    6.633286    0.000000    0.670000
   524  Na    c    11.064353    8.855580   -6.633286    0.000000    0.670000
   525  Na    c    11.064353   -4.427119    6.633286    0.000000    0.670000
   526  Na    c    11.064353   -4.427119   -6.633286    0.000000    0.670000
   527  Na    c    -6.635892    8.855580    6.633286    0.000000    0.670000
   528  Na    c    -6.635892    8.855580   -6.633286    0.000000    0.670000
   529  Na    c    -6.635892   -4.427119    6.633286    0.000000    0.670000
   530  Na    c    -6.635892   -4.427119   -6.633286    0.000000    0.670000
   531  Na    c    13.282915    2.214230    6.684892    0.000000    0.670000
   532  Na    c    13.282915    2.214230   -6.684892    0.000000    0.670000
   533  Na    c    -8.854454    2.214230    6.684892    0.000000    0.670000
   534  Na    c    -8.854454    2.214230   -6.684892    0.000000    0.670000
   535  Na    c     2.214230   13.282915    6.684892    0.000000    0.670000
   536  Na    c     2.214230   13.282915   -6.684892    0.000000    0.670000
   537  Na    c     2.214230   -8.854454    6.684892    0.000000    0.670000
   538  Na    c     2.214230   -8.854454   -6.684892    0.000000    0.670000
   539  O     s     2.214230    2.214230   -2.300585    0.000000   -1.829000
   540  O     s     2.214230    2.214230    2.300585    0.000000   -1.829000
   541  Cl    s     4.556049    4.556049    0.000000    0.000000   -1.285000
   542  Cl    s     4.556049   -0.127588    0.000000    0.000000   -1.285000
   543  Cl    s    -0.127588    4.556049    0.000000    0.000000   -1.285000
   544  Cl    s    -0.127588   -0.127588    0.000000    0.000000   -1.285000
   545  O     s     2.214230    6.615513   -2.199441    0.000000   -1.829000
   546  O     s     2.214230    6.615513    2.199441    0.000000   -1.829000
   547  O     s     2.214230   -2.187052   -2.199441    0.000000   -1.829000
   548  O     s     2.214230   -2.187052    2.199441    0.000000   -1.829000
   549  O     s     6.615513    2.214230   -2.199441    0.000000   -1.829000
   550  O     s     6.615513    2.214230    2.199441    0.000000   -1.829000
   551  O     s    -2.187052    2.214230   -2.199441    0.000000   -1.829000
   552  O     s    -2.187052    2.214230    2.199441    0.000000   -1.829000
   553  Cl    s     4.509476    4.509476    4.532619    0.000000   -1.285000
   554  Cl    s     4.509476    4.509476   -4.532619    0.000000   -1.285000
   555  Cl    s     4.509476   -0.081015    4.532619    0.000000   -1.285000
   556  Cl    s     4.509476   -0.081015   -4.532619    0.000000   -1.285000
   557  Cl    s    -0.081015    4.509476    4.532619    0.000000   -1.285000
   558  Cl    s    -0.081015    4.509476   -4.532619    0.000000   -1.285000
   559  Cl    s    -0.081015   -0.081015    4.532619    0.000000   -1.285000
   560  Cl    s    -0.081015   -0.081015   -4.532619    0.000000   -1.285000
   561  O     s     6.647375    6.647375   -2.221073    0.000000   -1.829000
   562  O     s     6.647375    6.647375    2.221073    0.000000   -1.829000
   563  O     s     6.647375   -2.218914   -2.221073    0.000000   -1.829000
   564  O     s     6.647375   -2.218914    2.221073    0.000000   -1.829000
   565  O     s    -2.218914    6.647375   -2.221073    0.000000   -1.829000
   566  O     s    -2.218914    6.647375    2.221073    0.000000   -1.829000
   567  O     s    -2.218914   -2.218914   -2.221073    0.000000   -1.829000
   568  O     s    -2.218914   -2.218914    2.221073    0.000000   -1.829000
   569  O     s     2.214230    2.214230    6.683993    0.000000   -1.829000
[...]
      4 y          2.214230      2.214230     0.000000    Cartesian    0.00
      4 z          4.428461      4.447091     0.018630    Cartesian    0.42
      5 x          2.214230      2.214230     0.000000    Cartesian    0.00
      5 y          6.642691      6.860618     0.217927    Cartesian    3.28
      5 z          0.000000      0.000000     0.000000    Cartesian    0.00
      6 x          2.214230      2.214230     0.000000    Cartesian    0.00
      6 y          6.642691      6.613346    -0.029345    Cartesian   -0.44
      6 z         -2.214230     -2.199728     0.014503    Cartesian   -0.65
      7 x          4.428461      4.506145     0.077684    Cartesian    1.75
      7 y          4.428461      4.506145     0.077684    Cartesian    1.75
      7 z          4.428461      4.528906     0.100445    Cartesian    2.27
      8 x          4.428461      4.426156    -0.002305    Cartesian   -0.05
      8 y          6.642691      6.601582    -0.041109    Cartesian   -0.62
      8 z         -2.214230     -2.207552     0.006678    Cartesian   -0.30
      9 x          2.214230      2.214230     0.000000    Cartesian    0.00
      9 y          6.642691      6.380064    -0.262627    Cartesian   -3.95
      9 z          4.428461      4.403544    -0.024917    Cartesian   -0.56
     10 x          6.642691      6.639561    -0.003130    Cartesian   -0.05
     10 y          6.642691      6.639561    -0.003130    Cartesian   -0.05
     10 z          0.000000      0.000000     0.000000    Cartesian    0.00
     11 x          6.642691      6.647068     0.004377    Cartesian    0.07
     11 y          6.642691      6.647068     0.004377    Cartesian    0.07
     11 z         -2.214230     -2.220760    -0.006530    Cartesian    0.29
     12 x          2.214230      2.214230     0.000000    Cartesian    0.00
     12 y          2.214230      2.214230     0.000000    Cartesian    0.00
     12 z          6.642691      6.681357     0.038666    Cartesian    0.58
     13 x          4.428461      4.448459     0.019998    Cartesian    0.45
     13 y          8.856922      8.885248     0.028326    Cartesian    0.32
     13 z          0.000000      0.000000     0.000000    Cartesian    0.00
     14 x          4.428461      4.422071    -0.006390    Cartesian   -0.14
     14 y          2.214230      2.214230     0.000000    Cartesian    0.00
     14 z          6.642691      6.710448     0.067757    Cartesian    1.02
     15 x          8.856922      8.830201    -0.026721    Cartesian   -0.30
     15 y          2.214230      2.214230     0.000000    Cartesian    0.00
     15 z         -2.214230     -2.416254    -0.202023    Cartesian    9.12
     16 x          6.642691      6.636604    -0.006087    Cartesian   -0.09
     16 y          6.642691      6.636604    -0.006087    Cartesian   -0.09
     16 z          4.428461      4.432242     0.003781    Cartesian    0.09
     17 x          2.214230      2.214230     0.000000    Cartesian    0.00
     17 y          6.642691      6.636049    -0.006643    Cartesian   -0.10
     17 z          6.642691      6.625312    -0.017379    Cartesian   -0.26
     18 x          4.428461      4.449106     0.020646    Cartesian    0.47
     18 y          8.856922      8.892231     0.035309    Cartesian    0.40
     18 z          4.428461      4.434842     0.006381    Cartesian    0.14
     19 x          4.428461      4.430466     0.002005    Cartesian    0.05
     19 y          6.642691      6.640114    -0.002577    Cartesian   -0.04
     19 z          6.642691      6.620803    -0.021888    Cartesian   -0.33
     20 x          8.856922      8.854292    -0.002629    Cartesian   -0.03
     20 y          6.642691      6.630746    -0.011945    Cartesian   -0.18
     20 z         -2.214230     -2.218496    -0.004266    Cartesian    0.19
     21 x          2.214230      2.214230     0.000000    Cartesian    0.00
     21 y          2.214230      2.214230     0.000000    Cartesian    0.00
     21 z          8.856922      8.883611     0.026690    Cartesian    0.30
     22 x          2.214230      2.214230     0.000000    Cartesian    0.00
     22 y         11.071152     10.895083    -0.176069    Cartesian   -1.59
     22 z          0.000000      0.000000     0.000000    Cartesian    0.00
     23 x          2.214230      2.214230     0.000000    Cartesian    0.00
     23 y         11.071152     11.053047    -0.018106    Cartesian   -0.16
     23 z         -2.214230     -2.216065    -0.001835    Cartesian    0.08
     24 x          6.642691      6.651078     0.008386    Cartesian    0.13
     24 y          6.642691      6.651078     0.008386    Cartesian    0.13
     24 z          6.642691      6.650863     0.008171    Cartesian    0.12
     25 x          4.428461      4.428709     0.000248    Cartesian    0.01
     25 y          4.428461      4.428709     0.000248    Cartesian    0.01
     25 z          8.856922      8.884993     0.028071    Cartesian    0.32
     26 x          4.428461      4.427203    -0.001258    Cartesian   -0.03
     26 y         11.071152     11.050789    -0.020363    Cartesian   -0.18
     26 z         -2.214230     -2.194842     0.019389    Cartesian   -0.88
     27 x          8.856922      8.876914     0.019992    Cartesian    0.23
     27 y          8.856922      8.876914     0.019992    Cartesian    0.23
     27 z          0.000000      0.000000     0.000000    Cartesian    0.00
     28 x          8.856922      8.844934    -0.011988    Cartesian   -0.14
     28 y          2.214230      2.214230     0.000000    Cartesian    0.00
     28 z          6.642691      6.486685    -0.156007    Cartesian   -2.35
     29 x          2.214230      2.214230     0.000000    Cartesian    0.00
     29 y          6.642691      6.708734     0.066042    Cartesian    0.99
     29 z          8.856922      8.842837    -0.014085    Cartesian   -0.16
     30 x          2.214230      2.214230     0.000000    Cartesian    0.00
     30 y         11.071152     11.187643     0.116491    Cartesian    1.05
     30 z          4.428461      4.424576    -0.003885    Cartesian   -0.09
     31 x          6.642691      6.658821     0.016130    Cartesian    0.24
     31 y         11.071152     11.056689    -0.014463    Cartesian   -0.13
     31 z          0.000000      0.000000     0.000000    Cartesian    0.00
     32 x          6.642691      6.643306     0.000615    Cartesian    0.01
     32 y         11.071152     11.072277     0.001125    Cartesian    0.01
     32 z         -2.214230     -2.213320     0.000911    Cartesian   -0.04
     33 x          8.856922      8.875326     0.018404    Cartesian    0.21
     33 y          8.856922      8.875326     0.018404    Cartesian    0.21
     33 z          4.428461      4.439517     0.011056    Cartesian    0.25
     34 x          8.856922      8.859389     0.002467    Cartesian    0.03
     34 y          6.642691      6.642980     0.000289    Cartesian    0.00
     34 z          6.642691      6.640616    -0.002075    Cartesian   -0.03
     35 x          6.642691      6.639968    -0.002723    Cartesian   -0.04
     35 y          6.642691      6.639968    -0.002723    Cartesian   -0.04
     35 z          8.856922      8.858093     0.001171    Cartesian    0.01
     36 x          6.642691      6.625958    -0.016733    Cartesian   -0.25
     36 y         11.071152     11.069081    -0.002071    Cartesian   -0.02
     36 z          4.428461      4.427924    -0.000537    Cartesian   -0.01
     37 x          2.214230      2.214230     0.000000    Cartesian    0.00
     37 y         11.071152     11.067238    -0.003914    Cartesian   -0.04
     37 z          6.642691      6.634421    -0.008271    Cartesian   -0.12
     38 x          2.214230      2.214230     0.000000    Cartesian    0.00
     38 y          2.214230      2.214230     0.000000    Cartesian    0.00
     38 z         11.071152     11.082047     0.010895    Cartesian    0.10
     39 x          4.428461      4.436442     0.007981    Cartesian    0.18
     39 y          8.856922      8.867002     0.010080    Cartesian    0.11
     39 z          8.856922      8.877194     0.020272    Cartesian    0.23
     40 x          4.428461      4.427342    -0.001119    Cartesian   -0.03
     40 y         11.071152     11.055274    -0.015878    Cartesian   -0.14
     40 z          6.642691      6.646120     0.003429    Cartesian    0.05
     41 x          8.856922      8.856243    -0.000679    Cartesian   -0.01
     41 y         11.071152     11.064945    -0.006207    Cartesian   -0.06
     41 z         -2.214230     -2.225615    -0.011384    Cartesian    0.51
     42 x          4.428461      4.427501    -0.000960    Cartesian   -0.02
     42 y         13.285383     13.312400     0.027017    Cartesian    0.20
     42 z          0.000000      0.000000     0.000000    Cartesian    0.00
     43 x          4.428461      4.433572     0.005111    Cartesian    0.12
     43 y          2.214230      2.214230     0.000000    Cartesian    0.00
     43 z         11.071152     11.056887    -0.014265    Cartesian   -0.13
     44 x         13.285383     13.274320    -0.011063    Cartesian   -0.08
     44 y          2.214230      2.214230     0.000000    Cartesian    0.00
     44 z         -2.214230     -2.137194     0.077037    Cartesian   -3.48
     45 x          6.642691      6.642970     0.000278    Cartesian    0.00
     45 y         11.071152     11.074193     0.003041    Cartesian    0.03
     45 z          6.642691      6.644787     0.002096    Cartesian    0.03
     46 x          2.214230      2.214230     0.000000    Cartesian    0.00
     46 y          6.642691      6.649410     0.006719    Cartesian    0.10
     46 z         11.071152     11.068176    -0.002976    Cartesian   -0.03
     47 x          4.428461      4.431016     0.002555    Cartesian    0.06
     47 y         13.285383     13.298921     0.013539    Cartesian    0.10
     47 z          4.428461      4.433575     0.005114    Cartesian    0.12
     48 x          4.428461      4.428005    -0.000456    Cartesian   -0.01
     48 y          6.642691      6.636960    -0.005732    Cartesian   -0.09
     48 z         11.071152     11.058128    -0.013024    Cartesian   -0.12
     49 x         13.285383     13.283328    -0.002054    Cartesian   -0.02
     49 y          6.642691      6.635569    -0.007122    Cartesian   -0.11
     49 z         -2.214230     -2.211046     0.003184    Cartesian   -0.14
     50 x          2.214230      2.214230     0.000000    Cartesian    0.00
     50 y         11.071152     11.002535    -0.068618    Cartesian   -0.62
     50 z          8.856922      8.849259    -0.007663    Cartesian   -0.09
     51 x         11.071152     11.059556    -0.011596    Cartesian   -0.10
     51 y         11.071152     11.059556    -0.011596    Cartesian   -0.10
     51 z          0.000000      0.000000     0.000000    Cartesian    0.00
     52 x         11.071152     11.073369     0.002217    Cartesian    0.02
     52 y         11.071152     11.073369     0.002217    Cartesian    0.02
     52 z         -2.214230     -2.215901    -0.001671    Cartesian    0.08
     53 x          6.642691      6.643890     0.001199    Cartesian    0.02
     53 y          6.642691      6.643890     0.001199    Cartesian    0.02
     53 z         11.071152     11.074814     0.003662    Cartesian    0.03
     54 x          8.856922      8.870914     0.013992    Cartesian    0.16
     54 y          8.856922      8.870914     0.013992    Cartesian    0.16
     54 z          8.856922      8.873364     0.016443    Cartesian    0.19
     55 x          8.856922      8.866125     0.009204    Cartesian    0.10
     55 y         13.285383     13.304826     0.019443    Cartesian    0.15
     55 z          0.000000      0.000000     0.000000    Cartesian    0.00
     56 x          8.856922      8.857866     0.000944    Cartesian    0.01
     56 y          2.214230      2.214230     0.000000    Cartesian    0.00
     56 z         11.071152     11.088813     0.017661    Cartesian    0.16
     57 x          8.856922      8.855580    -0.001342    Cartesian   -0.02
     57 y         11.071152     11.064353    -0.006799    Cartesian   -0.06
     57 z          6.642691      6.633286    -0.009405    Cartesian   -0.14
     58 x         13.285383     13.282915    -0.002468    Cartesian   -0.02
     58 y          2.214230      2.214230     0.000000    Cartesian    0.00
     58 z          6.642691      6.684892     0.042200    Cartesian    0.64
     59 x          2.214230      2.214230     0.000000    Cartesian    0.00
     59 y          2.214230      2.214230     0.000000    Cartesian    0.00
     59 z         -2.214230     -2.300585    -0.086354    Cartesian    3.90
     60 x          4.428461      4.556049     0.127588    Cartesian    2.88
     60 y          4.428461      4.556049     0.127588    Cartesian    2.88
     60 z          0.000000      0.000000     0.000000    Cartesian    0.00
     61 x          2.214230      2.214230     0.000000    Cartesian    0.00
     61 y          6.642691      6.615513    -0.027179    Cartesian   -0.41
     61 z         -2.214230     -2.199441     0.014789    Cartesian   -0.67
     62 x          4.428461      4.509476     0.081015    Cartesian    1.83
     62 y          4.428461      4.509476     0.081015    Cartesian    1.83
     62 z          4.428461      4.532619     0.104158    Cartesian    2.35
     63 x          6.642691      6.647375     0.004684    Cartesian    0.07
     63 y          6.642691      6.647375     0.004684    Cartesian    0.07
     63 z         -2.214230     -2.221073    -0.006842    Cartesian    0.31
     64 x          2.214230      2.214230     0.000000    Cartesian    0.00
     64 y          2.214230      2.214230     0.000000    Cartesian    0.00
     64 z          6.642691      6.683993     0.041302    Cartesian    0.62
     65 x          4.428461      4.448140     0.019679    Cartesian    0.44
     65 y          8.856922      8.886683     0.029762    Cartesian    0.34
     65 z          0.000000      0.000000     0.000000    Cartesian    0.00
     66 x          2.214230      2.214230     0.000000    Cartesian    0.00
     66 y          6.642691      6.635263    -0.007428    Cartesian   -0.11
     66 z          6.642691      6.625923    -0.016768    Cartesian   -0.25
     67 x          4.428461      4.449058     0.020597    Cartesian    0.47
     67 y          8.856922      8.893760     0.036838    Cartesian    0.42
     67 z          4.428461      4.435046     0.006585    Cartesian    0.15
     68 x          2.214230      2.214230     0.000000    Cartesian    0.00
     68 y         11.071152     11.053424    -0.017728    Cartesian   -0.16
     68 z         -2.214230     -2.216968    -0.002737    Cartesian    0.12
     69 x          6.642691      6.651496     0.008805    Cartesian    0.13
     69 y          6.642691      6.651496     0.008805    Cartesian    0.13
     69 z          6.642691      6.651027     0.008336    Cartesian    0.13
     70 x          4.428461      4.428390    -0.000070    Cartesian   -0.00
     70 y          4.428461      4.428390    -0.000070    Cartesian   -0.00
     70 z          8.856922      8.885793     0.028871    Cartesian    0.33
     71 x          8.856922      8.877742     0.020820    Cartesian    0.24
     71 y          8.856922      8.877742     0.020820    Cartesian    0.24
     71 z          0.000000      0.000000     0.000000    Cartesian    0.00
     72 x          6.642691      6.643362     0.000670    Cartesian    0.01
     72 y         11.071152     11.072397     0.001245    Cartesian    0.01
     72 z         -2.214230     -2.213233     0.000997    Cartesian   -0.05
     73 x          8.856922      8.876101     0.019179    Cartesian    0.22
     73 y          8.856922      8.876101     0.019179    Cartesian    0.22
     73 z          4.428461      4.439953     0.011492    Cartesian    0.26
     74 x          2.214230      2.214230     0.000000    Cartesian    0.00
     74 y         11.071152     11.068059    -0.003093    Cartesian   -0.03
     74 z          6.642691      6.633890    -0.008801    Cartesian   -0.13
     75 x          2.214230      2.214230     0.000000    Cartesian    0.00
     75 y          2.214230      2.214230     0.000000    Cartesian    0.00
     75 z         11.071152     11.081183     0.010030    Cartesian    0.09
     76 x          4.428461      4.436629     0.008168    Cartesian    0.18
     76 y          8.856922      8.867479     0.010558    Cartesian    0.12
     76 z          8.856922      8.878244     0.021323    Cartesian    0.24
     77 x          4.428461      4.427248    -0.001212    Cartesian   -0.03
     77 y         13.285383     13.313845     0.028463    Cartesian    0.21
     77 z          0.000000      0.000000     0.000000    Cartesian    0.00
     78 x          6.642691      6.643043     0.000352    Cartesian    0.01
     78 y         11.071152     11.074201     0.003048    Cartesian    0.03
     78 z          6.642691      6.644966     0.002275    Cartesian    0.03
     79 x          2.214230      2.214230     0.000000    Cartesian    0.00
     79 y          6.642691      6.649987     0.007296    Cartesian    0.11
     79 z         11.071152     11.068620    -0.002532    Cartesian   -0.02
     80 x          4.428461      4.431047     0.002587    Cartesian    0.06
     80 y         13.285383     13.299033     0.013651    Cartesian    0.10
     80 z          4.428461      4.433897     0.005436    Cartesian    0.12
     81 x         11.071152     11.073521     0.002369    Cartesian    0.02
     81 y         11.071152     11.073521     0.002369    Cartesian    0.02
     81 z         -2.214230     -2.216199    -0.001969    Cartesian    0.09
     82 x          6.642691      6.643986     0.001295    Cartesian    0.02
     82 y          6.642691      6.643986     0.001295    Cartesian    0.02
     82 z         11.071152     11.074958     0.003806    Cartesian    0.03
     83 x          8.856922      8.871367     0.014445    Cartesian    0.16
     83 y          8.856922      8.871367     0.014445    Cartesian    0.16
     83 z          8.856922      8.873909     0.016987    Cartesian    0.19
     84 x          8.856922      8.866439     0.009517    Cartesian    0.11
     84 y         13.285383     13.305568     0.020185    Cartesian    0.15
     84 z          0.000000      0.000000     0.000000    Cartesian    0.00
--------------------------------------------------------------------------------


  Time to end of optimisation  =       19.0049 seconds


  Peak dynamic memory used =     101.77 MB 


  Timing analysis for GULP :

--------------------------------------------------------------------------------
  Task / Subroutine                                          Time (Seconds)
--------------------------------------------------------------------------------
  Calculation of reciprocal space energy and derivatives          0.0004
  Calculation of reciprocal space energy using symmetry           0.0007
  Calculation of real space energy and derivatives                0.0021
  Calculation of real space energy using symmetry                 0.0066
  Calculation for region 1 energy and derivatives (2-b)           6.7439
  Calculation for region 2a energy                               11.7567
  Calculation for region 2b energy                                0.0014
  Calculation and manipulation of Hessian matrix                  0.1736
  Calculation of matrix inversion                                 0.0073
  Symmetry generation of equivalent positions                     0.0026
--------------------------------------------------------------------------------
  Total CPU time                                                 19.0050
--------------------------------------------------------------------------------


  Dump file written as Na3OCl.grs


  Job Finished at 16:22.50  5th July       2021                               

