********************************************************************************
*                       GENERAL UTILITY LATTICE PROGRAM                        *
*                                 Julian Gale                                  *
*                       Curtin Institute for Computation                       *
*                    School of Molecular and Life Sciences                     *
*                    Curtin University, Western Australia                      *
********************************************************************************
* Version = 5.2.0 * Last modified =  10th September 2020                       *
********************************************************************************
*  optimise     - perform optimisation run                                     *
*  conp         - constant pressure calculation                                *
*  property     - calculate properties for final geometry                      *
*  defect       - perform defect calculation after bulk run                    *
*  compare      - compare initial and final structures                         *
********************************************************************************

  Job Started  at 16:22.29  5th July       2021                               

  Number of CPUs =     1


  Total number of configurations input =      1

********************************************************************************
*  Input for Configuration =   1                                               *
********************************************************************************

  Formula = ClONa3                                                      

  Number of irreducible atoms/shells =       5


  Total number atoms/shells =       7

  Dimensionality = 3               :  Bulk   


  Symmetry :

  Crystal family                   :  Cubic       
  Crystal class  (Groth - 1921)    :  Cubic Hexakisoctahedral              

  Space group (centrosymmetric)    :  P M 3 M         

  Patterson group                  :  P m -3 m 

  Cartesian lattice vectors (Angstroms) :

        4.504000    0.000000    0.000000
        0.000000    4.504000    0.000000
        0.000000    0.000000    4.504000

  Cell parameters (Angstroms/Degrees):

  a =       4.5040    alpha =  90.0000
  b =       4.5040    beta  =  90.0000
  c =       4.5040    gamma =  90.0000

  Initial cell volume =          91.368216 Angs**3

  Temperature of configuration =   0.00     K 

  Pressure of configuration =         0.000 GPa 

  Fractional coordinates of asymmetric unit :

--------------------------------------------------------------------------------
   No.  Atomic       x           y          z         Charge      Occupancy
        Label      (Frac)      (Frac)     (Frac)        (e)         (Frac)  
--------------------------------------------------------------------------------
      1 Cl    c    0.000000    0.000000    0.000000     0.61500    1.000000    
      2 O     c    0.500000    0.500000    0.500000     0.48900    1.000000    
      3 Na    c    0.500000    0.500000    0.000000     0.67000    1.000000    
      4 Cl    s    0.000000    0.000000    0.000000    -1.28500    1.000000    
      5 O     s    0.500000    0.500000    0.500000    -1.82900    1.000000    
--------------------------------------------------------------------------------


  Constraints : 

--------------------------------------------------------------------------------
  Constraint no.      Unconstrained     Constrained    Coefficient    Offset
                         Variable         Variable
--------------------------------------------------------------------------------
           1              Strain 1        Strain 2       1.00000      0.0000
           2              Strain 1        Strain 3       1.00000      0.0000
--------------------------------------------------------------------------------


********************************************************************************
*  General input information                                                   *
********************************************************************************

  Species output for all configurations : 

--------------------------------------------------------------------------------
  Species    Type    Atomic    Atomic    Charge       Radii (Angs)     Library
                     Number     Mass       (e)     Cova   Ionic  VDW   Symbol
--------------------------------------------------------------------------------
    Na       Core       11      22.99   0.670000   0.970  0.000  2.300          
    O        Core        8      16.00   0.489000   0.730  0.000  1.360          
    O        Shell       8       0.00  -1.829000   0.730  0.000  1.360          
    Cl       Core       17      35.45   0.615000   0.990  0.000  1.650          
    Cl       Shell      17       0.00  -1.285000   0.990  0.000  1.650          
--------------------------------------------------------------------------------


  Lattice summation method               =    Ewald          (3-D)
                                         =    Parry          (2-D)
                                         =    Saunders et al (1-D)
  Accuracy factor for lattice sums       =   12.000


  Analytic derivatives to be used

  Time limit = Infinity

  Maximum range for interatomic potentials =    100000.000000 Angstroms

  General interatomic potentials :

--------------------------------------------------------------------------------
Atom  Types   Potential      Parameter       Value         Units   Cutoffs(Ang)
  1     2                                                            Min /  Max 
--------------------------------------------------------------------------------
O    c O    s Spring (c-s)  Spring k 2       34.450000    eV*Ang^-2 0.000  0.800
                            Spring k 4       0.0000000    eV*Ang^-4 
--------------------------------------------------------------------------------
Cl   c Cl   s Spring (c-s)  Spring k 2       28.250000    eV*Ang^-2 0.000  0.800
                            Spring k 4       0.0000000    eV*Ang^-4 
--------------------------------------------------------------------------------
Na   c Na   c Buckingham    Buckingham A     996.28210    eV        0.000 12.000
                            Buckingham rho  0.28830000    Ang       
                            Buckingham C     0.0000000    eV*Ang^6  
--------------------------------------------------------------------------------
Na   c O    s Buckingham    Buckingham A     12439.222    eV        0.000 12.000
                            Buckingham rho  0.20150000    Ang       
                            Buckingham C     0.0000000    eV*Ang^6  
--------------------------------------------------------------------------------
Na   c Cl   s Buckingham    Buckingham A     20907.738    eV        0.000 12.000
                            Buckingham rho  0.21660000    Ang       
                            Buckingham C     0.0000000    eV*Ang^6  
--------------------------------------------------------------------------------
O    s O    s Buckingham    Buckingham A     35546.853    eV        0.000 12.000
                            Buckingham rho  0.12056000    Ang       
                            Buckingham C     13.190000    eV*Ang^6  
--------------------------------------------------------------------------------
O    s Cl   s Buckingham    Buckingham A     47777.071    eV        0.000 12.000
                            Buckingham rho  0.24370000    Ang       
                            Buckingham C     62.200000    eV*Ang^6  
--------------------------------------------------------------------------------
Cl   s Cl   s Buckingham    Buckingham A     35155.254    eV        0.000 12.000
                            Buckingham rho  0.21360000    Ang       
                            Buckingham C     14.530000    eV*Ang^6  
--------------------------------------------------------------------------------

********************************************************************************
*  Output for configuration   1                                                *
********************************************************************************


  Components of energy : 

--------------------------------------------------------------------------------
  Interatomic potentials     =           1.21745275 eV    
  Monopole - monopole (real) =          -4.50527050 eV    
  Monopole - monopole (recip)=         -13.25862634 eV    
  Monopole - monopole (total)=         -17.76389683 eV    
--------------------------------------------------------------------------------
  Total lattice energy       =         -16.54644409 eV    
--------------------------------------------------------------------------------
  Total lattice energy       =           -1596.4789 kJ/(mole unit cells)
--------------------------------------------------------------------------------


  Number of variables =        1

  Maximum number of calculations  =          1000
  Maximum Hessian update interval =            10
  Maximum step size               =   1.000000000
  Maximum parameter tolerance     =   0.000010000
  Maximum function  tolerance     =   0.000010000
  Maximum gradient  tolerance     =   0.001000000
  Maximum gradient  component     =   0.010000000

  Symmetry constrained optimisation

  Symmetry used for second derivatives

  Cell parameters to be optimised using strains

  Newton-Raphson optimiser to be used

  BFGS hessian update to be used

  Lower half triangular hessian to be used

  Start of bulk optimisation :

  Cycle:      0 Energy:       -16.546444  Gnorm:      2.744113  CPU:    0.008
  ** Hessian calculated **
  Cycle:      1 Energy:       -16.570356  Gnorm:      0.030142  CPU:    0.010
  Cycle:      2 Energy:       -16.570358  Gnorm:      0.003103  CPU:    0.012


  **** Optimisation achieved ****


  Final energy =     -16.57035847 eV
  Final Gnorm  =       0.00000012

  Components of energy : 

--------------------------------------------------------------------------------
  Interatomic potentials     =           1.49654868 eV    
  Monopole - monopole (real) =          -4.58211982 eV    
  Monopole - monopole (recip)=         -13.48478733 eV    
  Monopole - monopole (total)=         -18.06690714 eV    
--------------------------------------------------------------------------------
  Total lattice energy       =         -16.57035847 eV    
--------------------------------------------------------------------------------
  Total lattice energy       =           -1598.7863 kJ/(mole unit cells)
--------------------------------------------------------------------------------

  Final asymmetric unit coordinates :

--------------------------------------------------------------------------------
   No.  Atomic        x           y           z         Radius
        Label       (Frac)      (Frac)      (Frac)       (Angs) 
--------------------------------------------------------------------------------
     1  Cl    c     0.000000    0.000000    0.000000    0.000000
     2  O     c     0.500000    0.500000    0.500000    0.000000
     3  Na    c     0.500000    0.500000    0.000000    0.000000
     4  Cl    s     0.000000    0.000000    0.000000    0.000000
     5  O     s     0.500000    0.500000    0.500000    0.000000
--------------------------------------------------------------------------------

  Final Cartesian lattice vectors (Angstroms) :

        4.428461    0.000000    0.000000
        0.000000    4.428461    0.000000
        0.000000    0.000000    4.428461


  Final cell parameters and derivatives :

--------------------------------------------------------------------------------
       a            4.428461 Angstrom     dE/de1(xx)     0.000000 eV/strain
       b            4.428461 Angstrom     dE/de2(yy)     0.000000 eV/strain
       c            4.428461 Angstrom     dE/de3(zz)     0.000000 eV/strain
       alpha       90.000000 Degrees      dE/de4(yz)     0.000000 eV/strain
       beta        90.000000 Degrees      dE/de5(xz)     0.000000 eV/strain
       gamma       90.000000 Degrees      dE/de6(xy)     0.000000 eV/strain
--------------------------------------------------------------------------------

  Primitive cell volume =            86.847723 Angs**3

  Density of cell =      2.302482 g/cm**3

  Non-primitive cell volume =            86.847723 Angs**3


  Final internal derivatives :

--------------------------------------------------------------------------------
   No.  Atomic          a             b             c           Radius
        Label          (eV)          (eV)          (eV)        (eV/Angs)
--------------------------------------------------------------------------------
      1 Cl    c       0.000000      0.000000      0.000000      0.000000
      2 O     c       0.000000      0.000000      0.000000      0.000000
      3 Na    c       0.000000      0.000000      0.000000      0.000000
      4 Cl    s       0.000000      0.000000      0.000000      0.000000
      5 O     s       0.000000      0.000000      0.000000      0.000000
--------------------------------------------------------------------------------
  Maximum abs         0.000000      0.000000      0.000000      0.000000
--------------------------------------------------------------------------------

  Comparison of initial and final structures : 

--------------------------------------------------------------------------------
  Parameter   Initial value   Final value   Difference    Units      Percent
--------------------------------------------------------------------------------
    Volume        91.368216     86.847723    -4.520493    Angs**3     -4.95
    a              4.504000      4.428461    -0.075539    Angstroms   -1.68
    b              4.504000      4.428461    -0.075539    Angstroms   -1.68
    c              4.504000      4.428461    -0.075539    Angstroms   -1.68
    alpha         90.000000     90.000000     0.000000    Degrees      0.00
    beta          90.000000     90.000000     0.000000    Degrees      0.00
    gamma         90.000000     90.000000     0.000000    Degrees      0.00
      1 x          0.000000      0.000000     0.000000    Fractional   0.00
      1 y          0.000000      0.000000     0.000000    Fractional   0.00
      1 z          0.000000      0.000000     0.000000    Fractional   0.00
      2 x          0.500000      0.500000     0.000000    Fractional   0.00
      2 y          0.500000      0.500000     0.000000    Fractional   0.00
      2 z          0.500000      0.500000     0.000000    Fractional   0.00
      3 x          0.500000      0.500000     0.000000    Fractional   0.00
      3 y          0.500000      0.500000     0.000000    Fractional   0.00
      3 z          0.000000      0.000000     0.000000    Fractional   0.00
      4 x          0.000000      0.000000     0.000000    Fractional   0.00
      4 y          0.000000      0.000000     0.000000    Fractional   0.00
      4 z          0.000000      0.000000     0.000000    Fractional   0.00
      5 x          0.500000      0.500000     0.000000    Fractional   0.00
      5 y          0.500000      0.500000     0.000000    Fractional   0.00
      5 z          0.500000      0.500000     0.000000    Fractional   0.00
--------------------------------------------------------------------------------


  Born effective charge tensors : 

-------------------------------------------------------------------------------
  Atom             x           y             z
-------------------------------------------------------------------------------
    1 Cl    x      -0.6995     -0.0000     -0.0000
            y      -0.0000     -0.6995     -0.0000
            z      -0.0000     -0.0000     -0.6995
-------------------------------------------------------------------------------
    2 O     x      -1.0805      0.0000      0.0000
            y       0.0000     -1.0805      0.0000
            z       0.0000      0.0000     -1.0805
-------------------------------------------------------------------------------
    3 Na    x       0.6486      0.0000     -0.0000
            y       0.0000      0.6486      0.0000
            z      -0.0000      0.0000      0.4827
-------------------------------------------------------------------------------




  Elastic Constant Matrix: (Units=GPa)

-------------------------------------------------------------------------------
  Indices      1         2         3         4         5         6    
-------------------------------------------------------------------------------
       1     77.0757   16.0262   16.0262   -0.0000   -0.0000   -0.0000
       2     16.0262   77.0757   16.0262   -0.0000   -0.0000    0.0000
       3     16.0262   16.0262   77.0757    0.0000    0.0000    0.0000
       4     -0.0000   -0.0000    0.0000   16.0262    0.0000   -0.0000
       5     -0.0000   -0.0000    0.0000    0.0000   16.0262   -0.0000
       6     -0.0000    0.0000    0.0000   -0.0000   -0.0000   16.0262
-------------------------------------------------------------------------------


  Elastic Compliance Matrix: (Units=1/GPa)

-------------------------------------------------------------------------------
  Indices      1         2         3         4         5         6    
-------------------------------------------------------------------------------
       1    0.013975 -0.002406 -0.002406  0.000000  0.000000  0.000000
       2   -0.002406  0.013975 -0.002406  0.000000  0.000000 -0.000000
       3   -0.002406 -0.002406  0.013975 -0.000000 -0.000000 -0.000000
       4    0.000000  0.000000 -0.000000  0.062398 -0.000000  0.000000
       5    0.000000  0.000000 -0.000000 -0.000000  0.062398  0.000000
       6    0.000000 -0.000000 -0.000000  0.000000  0.000000  0.062398
-------------------------------------------------------------------------------

  Mechanical properties :

-------------------------------------------------------------------------------
  Convention :                    Reuss         Voigt         Hill
-------------------------------------------------------------------------------
  Bulk  Modulus (GPa)     =      36.37603      36.37603      36.37603
  Shear Modulus (GPa)     =      19.78520      21.82562      20.80541
-------------------------------------------------------------------------------
  Velocity S-wave (km/s)  =       2.93138       3.07883       3.00601
  Velocity P-wave (km/s)  =       5.22072       5.33268       5.27700
-------------------------------------------------------------------------------
  Compressibility (1/GPa) =    0.02749063
-------------------------------------------------------------------------------
  Stress axis :                     x             y             z
-------------------------------------------------------------------------------
  Youngs Moduli (GPa)     =      71.55833      71.55833      71.55833
-------------------------------------------------------------------------------
  Poissons Ratio (x)      =                     0.17214       0.17214
  Poissons Ratio (y)      =       0.17214                     0.17214
  Poissons Ratio (z)      =       0.17214       0.17214
-------------------------------------------------------------------------------


  Piezoelectric Strain Matrix: (Units=C/m**2)

-------------------------------------------------------------------------------
  Indices      1         2         3         4         5         6    
-------------------------------------------------------------------------------
       x    -0.00000  -0.00000  -0.00000  -0.00000  -0.00000   0.00000
       y     0.00000   0.00000   0.00000  -0.00000  -0.00000  -0.00000
       z     0.00000   0.00000  -0.00000   0.00000  -0.00000  -0.00000
-------------------------------------------------------------------------------


  Piezoelectric Stress Matrix: (Units=10**-11 C/N)

-------------------------------------------------------------------------------
  Indices      1         2         3         4         5         6    
-------------------------------------------------------------------------------
       x    -0.00000  -0.00000  -0.00000  -0.00000  -0.00000   0.00000
       y     0.00000   0.00000   0.00000  -0.00000  -0.00000  -0.00000
       z     0.00000   0.00000  -0.00000   0.00000  -0.00000  -0.00000
-------------------------------------------------------------------------------


  Static dielectric constant tensor : 

-------------------------------------------------------------------------------
              x         y         z
-------------------------------------------------------------------------------
       x     5.77918   0.00000   0.00000
       y     0.00000   5.77918   0.00000
       z     0.00000   0.00000   5.77918
--------------------------------------------------------------------------------

  High frequency dielectric constant tensor : 

-------------------------------------------------------------------------------
              x         y         z
-------------------------------------------------------------------------------
       x     1.30980  -0.00000  -0.00000
       y    -0.00000   1.30980  -0.00000
       z    -0.00000  -0.00000   1.30980
-------------------------------------------------------------------------------

  Static refractive indices : 

-------------------------------------------------------------------------------
    1 =    2.40399      2 =    2.40399      3 =    2.40399
-------------------------------------------------------------------------------

  High frequency refractive indices : 

-------------------------------------------------------------------------------
    1 =    1.14447      2 =    1.14447      3 =    1.14447
-------------------------------------------------------------------------------


  Time to end of optimisation =       0.0165 seconds

********************************************************************************
*  Defect calculation for configuration   1 :                                  *
********************************************************************************

  Total number of defects =      1

  Total charge on defect  =  -0.67

  Defect centre is at   0.5000   0.5000   0.0000  Frac

  Region 1 radius =  15.0000      Number of ions =   1126

  Number of symmetry inequivalent region 1 ions  =    116

  Region 2 radius =  24.0000      Number of ions =   3552

  Number of symmetry inequivalent region 2a ions =    290

  Region 2a mode = 4 : screened electrostatics due to region 1 
                       neglect correction to region 1 forces from 2a
                       region 2a displacements based on defects only

  Region 2a ions will only interact with defects in region 1

  Vacancies:

--------------------------------------------------------------------------------
    Specification type     Symbol/Number         x          y          z
--------------------------------------------------------------------------------
    Fractional                               0.500000   0.500000   0.000000
--------------------------------------------------------------------------------


  Symmetry reduced region 1 (Relative to defect centre) :

--------------------------------------------------------------------------------
   No.   Atomic       x            y             z       Radius  Multiplicity   
         Label      (Angs)       (Angs)        (Angs)    (Angs)     
--------------------------------------------------------------------------------
     1  O     c      0.0000       0.0000      -2.2142 *  0.0000     2          
     2  Cl    c      2.2142 *     2.2142       0.0000    0.0000     4          
     3  Na    c      2.2142 *     0.0000      -2.2142 *  0.0000     8          
     4  Na    c      0.0000       0.0000       4.4285 *  0.0000     2          
     5  Na    c      0.0000       4.4285 *     0.0000    0.0000     4          
     6  O     c      0.0000       4.4285 *    -2.2142 *  0.0000     8          
     7  Cl    c      2.2142 *     2.2142       4.4285 *  0.0000     8          
     8  Na    c      2.2142 *     4.4285 *    -2.2142 *  0.0000    16          
     9  Na    c      0.0000       4.4285 *     4.4285 *  0.0000     8          
    10  Na    c      4.4285 *     4.4285       0.0000    0.0000     4          
    11  O     c      4.4285 *     4.4285      -2.2142 *  0.0000     8          
    12  O     c      0.0000       0.0000       6.6427 *  0.0000     2          
    13  Cl    c      2.2142 *     6.6427 *     0.0000    0.0000     8          
    14  Na    c      2.2142 *     0.0000       6.6427 *  0.0000     8          
    15  Na    c      6.6427 *     0.0000      -2.2142 *  0.0000     8          
    16  Na    c      4.4285 *     4.4285       4.4285 *  0.0000     8          
    17  O     c      0.0000       4.4285 *     6.6427 *  0.0000     8          
    18  Cl    c      2.2142 *     6.6427 *     4.4285 *  0.0000    16          
    19  Na    c      2.2142 *     4.4285 *     6.6427 *  0.0000    16          
    20  Na    c      6.6427 *     4.4285 *    -2.2142 *  0.0000    16          
    21  Na    c      0.0000       0.0000       8.8569 *  0.0000     2          
    22  Na    c      0.0000       8.8569 *     0.0000    0.0000     4          
    23  O     c      0.0000       8.8569 *    -2.2142 *  0.0000     8          
    24  O     c      4.4285 *     4.4285       6.6427 *  0.0000     8          
    25  Cl    c      2.2142 *     2.2142       8.8569 *  0.0000     8          
    26  Na    c      2.2142 *     8.8569 *    -2.2142 *  0.0000    16          
    27  Cl    c      6.6427 *     6.6427       0.0000    0.0000     4          
    28  Na    c      6.6427 *     0.0000       6.6427 *  0.0000     8          
    29  Na    c      0.0000       4.4285 *     8.8569 *  0.0000     8          
    30  Na    c      0.0000       8.8569 *     4.4285 *  0.0000     8          
    31  Na    c      4.4285 *     8.8569 *     0.0000    0.0000     8          
    32  O     c      4.4285 *     8.8569 *    -2.2142 *  0.0000    16          
    33  Cl    c      6.6427 *     6.6427       4.4285 *  0.0000     8          
    34  Na    c      6.6427 *     4.4285 *     6.6427 *  0.0000    16          
    35  Na    c      4.4285 *     4.4285       8.8569 *  0.0000     8          
    36  Na    c      4.4285 *     8.8569 *     4.4285 *  0.0000    16          
    37  O     c      0.0000       8.8569 *     6.6427 *  0.0000     8          
    38  O     c      0.0000       0.0000      11.0712 *  0.0000     2          
    39  Cl    c      2.2142 *     6.6427 *     8.8569 *  0.0000    16          
    40  Na    c      2.2142 *     8.8569 *     6.6427 *  0.0000    16          
    41  Na    c      6.6427 *     8.8569 *    -2.2142 *  0.0000    16          
    42  Cl    c      2.2142 *    11.0712 *     0.0000    0.0000     8          
    43  Na    c      2.2142 *     0.0000      11.0712 *  0.0000     8          
    44  Na    c     11.0712 *     0.0000      -2.2142 *  0.0000     8          
    45  O     c      4.4285 *     8.8569 *     6.6427 *  0.0000    16          
    46  O     c      0.0000       4.4285 *    11.0712 *  0.0000     8          
    47  Cl    c      2.2142 *    11.0712 *     4.4285 *  0.0000    16          
    48  Na    c      2.2142 *     4.4285 *    11.0712 *  0.0000    16          
    49  Na    c     11.0712 *     4.4285 *    -2.2142 *  0.0000    16          
    50  Na    c      0.0000       8.8569 *     8.8569 *  0.0000     8          
    51  Na    c      8.8569 *     8.8569       0.0000    0.0000     4          
    52  O     c      8.8569 *     8.8569      -2.2142 *  0.0000     8          
    53  O     c      4.4285 *     4.4285      11.0712 *  0.0000     8          
    54  Cl    c      6.6427 *     6.6427       8.8569 *  0.0000     8          
    55  Cl    c      6.6427 *    11.0712 *     0.0000    0.0000     8          
    56  Na    c      6.6427 *     0.0000      11.0712 *  0.0000     8          
    57  Na    c      6.6427 *     8.8569 *     6.6427 *  0.0000    16          
    58  Na    c     11.0712 *     0.0000       6.6427 *  0.0000     8          
    59  Na    c      0.0000      13.2854 *     0.0000    0.0000     4          
    60  Na    c      4.4285 *     8.8569 *     8.8569 *  0.0000    16          
    61  Na    c      8.8569 *     8.8569       4.4285 *  0.0000     8          
    62  Na    c      0.0000       0.0000      13.2854 *  0.0000     2          
    63  O     c      0.0000      13.2854 *    -2.2142 *  0.0000     8          
    64  Na    c      2.2142 *    13.2854 *    -2.2142 *  0.0000    16          
    65  Cl    c      2.2142 *     2.2142      13.2854 *  0.0000     8          
    66  Cl    c      6.6427 *    11.0712 *     4.4285 *  0.0000    16          
    67  Na    c      6.6427 *     4.4285 *    11.0712 *  0.0000    16          
    68  Na    c     11.0712 *     4.4285 *     6.6427 *  0.0000    16          
    69  Na    c      0.0000      13.2854 *     4.4285 *  0.0000     8          
    70  Na    c      4.4285 *    13.2854 *     0.0000    0.0000     8          
    71  Na    c      0.0000       4.4285 *    13.2854 *  0.0000     8          
    72  O     c      4.4285 *    13.2854 *    -2.2142 *  0.0000    16          
    73  O     c      8.8569 *     8.8569       6.6427 *  0.0000     8          
    74  O     c      0.0000       8.8569 *    11.0712 *  0.0000     8          
    75  Cl    c      2.2142 *    11.0712 *     8.8569 *  0.0000    16          
    76  Na    c      2.2142 *     8.8569 *    11.0712 *  0.0000    16          
    77  Na    c     11.0712 *     8.8569 *    -2.2142 *  0.0000    16          
    78  Na    c      4.4285 *    13.2854 *     4.4285 *  0.0000    16          
    79  Na    c      4.4285 *     4.4285      13.2854 *  0.0000     8          
    80  O     c      0.0000      13.2854 *     6.6427 *  0.0000     8          
    81  O     c      4.4285 *     8.8569 *    11.0712 *  0.0000    16          
    82  O     s      0.0000       0.0000      -2.2142 *  0.0000     2          
    83  Cl    s      2.2142 *     2.2142       0.0000    0.0000     4          
    84  O     s      0.0000       4.4285 *    -2.2142 *  0.0000     8          
    85  Cl    s      2.2142 *     2.2142       4.4285 *  0.0000     8          
    86  O     s      4.4285 *     4.4285      -2.2142 *  0.0000     8          
    87  O     s      0.0000       0.0000       6.6427 *  0.0000     2          
    88  Cl    s      2.2142 *     6.6427 *     0.0000    0.0000     8          
    89  O     s      0.0000       4.4285 *     6.6427 *  0.0000     8          
    90  Cl    s      2.2142 *     6.6427 *     4.4285 *  0.0000    16          
    91  O     s      0.0000       8.8569 *    -2.2142 *  0.0000     8          
    92  O     s      4.4285 *     4.4285       6.6427 *  0.0000     8          
    93  Cl    s      2.2142 *     2.2142       8.8569 *  0.0000     8          
    94  Cl    s      6.6427 *     6.6427       0.0000    0.0000     4          
    95  O     s      4.4285 *     8.8569 *    -2.2142 *  0.0000    16          
    96  Cl    s      6.6427 *     6.6427       4.4285 *  0.0000     8          
    97  O     s      0.0000       8.8569 *     6.6427 *  0.0000     8          
    98  O     s      0.0000       0.0000      11.0712 *  0.0000     2          
    99  Cl    s      2.2142 *     6.6427 *     8.8569 *  0.0000    16          
   100  Cl    s      2.2142 *    11.0712 *     0.0000    0.0000     8          
   101  O     s      4.4285 *     8.8569 *     6.6427 *  0.0000    16          
   102  O     s      0.0000       4.4285 *    11.0712 *  0.0000     8          
   103  Cl    s      2.2142 *    11.0712 *     4.4285 *  0.0000    16          
   104  O     s      8.8569 *     8.8569      -2.2142 *  0.0000     8          
   105  O     s      4.4285 *     4.4285      11.0712 *  0.0000     8          
   106  Cl    s      6.6427 *     6.6427       8.8569 *  0.0000     8          
   107  Cl    s      6.6427 *    11.0712 *     0.0000    0.0000     8          
   108  O     s      0.0000      13.2854 *    -2.2142 *  0.0000     8          
   109  Cl    s      2.2142 *     2.2142      13.2854 *  0.0000     8          
   110  Cl    s      6.6427 *    11.0712 *     4.4285 *  0.0000    16          
   111  O     s      4.4285 *    13.2854 *    -2.2142 *  0.0000    16          
   112  O     s      8.8569 *     8.8569       6.6427 *  0.0000     8          
   113  O     s      0.0000       8.8569 *    11.0712 *  0.0000     8          
   114  Cl    s      2.2142 *    11.0712 *     8.8569 *  0.0000    16          
   115  O     s      0.0000      13.2854 *     6.6427 *  0.0000     8          
   116  O     s      4.4285 *     8.8569 *    11.0712 *  0.0000    16          
--------------------------------------------------------------------------------


  Constraints on symmetry reduced coordinates :

--------------------------------------------------------------------------------
  Constraint no.      Unconstrained     Constrained    Coefficient    
                         Variable         Variable
--------------------------------------------------------------------------------
           1                 2 x             2 y         1.00000
           2                 7 x             7 y         1.00000
           3                10 x            10 y         1.00000
           4                11 x            11 y         1.00000
           5                16 x            16 y         1.00000
           6                24 x            24 y         1.00000
           7                25 x            25 y         1.00000
           8                27 x            27 y         1.00000
           9                33 x            33 y         1.00000
          10                35 x            35 y         1.00000
          11                51 x            51 y         1.00000
          12                52 x            52 y         1.00000
          13                53 x            53 y         1.00000
          14                54 x            54 y         1.00000
          15                61 x            61 y         1.00000
          16                65 x            65 y         1.00000
          17                73 x            73 y         1.00000
          18                79 x            79 y         1.00000
          19                83 x            83 y         1.00000
          20                85 x            85 y         1.00000
          21                86 x            86 y         1.00000
          22                92 x            92 y         1.00000
          23                93 x            93 y         1.00000
          24                94 x            94 y         1.00000
          25                96 x            96 y         1.00000
          26               104 x           104 y         1.00000
          27               105 x           105 y         1.00000
          28               106 x           106 y         1.00000
          29               109 x           109 y         1.00000
          30               112 x           112 y         1.00000
--------------------------------------------------------------------------------


  Components of defect energy : 

--------------------------------------------------------------------------------
  Region 1 - region 1                   =     14.70278214 eV
  Region 1 - region 2a (unrelaxed)      =    -10.60958294 eV
  Region 1 - 2a (relaxed - correction)  =     -0.13798929 eV
  Region 1 (Total)                      =      3.95520991 eV
  Region 2a                             =      0.06898471 eV
  Region 2b                             =     -0.11154786 eV
--------------------------------------------------------------------------------
  Total defect energy                   =      3.91264677 eV
--------------------------------------------------------------------------------

  Largest displacement in region 2 =   0.0113 Angstroms


  Number of variables =      250

  Maximum number of calculations  =        1000
  Maximum Hessian update interval =          10
  Maximum step size               =   1.0000000
  Maximum parameter tolerance     =   0.0000100
  Maximum function  tolerance     =   0.0000100
  Maximum gradient  tolerance     =   0.0010000

  Symmetry adapted optimisation

  Symmetry to be used for second derivatives

  Newton-Raphson optimiser to be used

  BFGS hessian update to be used

  Lower half triangular hessian to be used

  Start of defect optimisation :

  Cycle:      0 Defect Energy:   3.912647  Gnorm:     0.069282  CPU:    5.514
  ** Hessian calculated **
  Cycle:      1 Defect Energy:   3.042387  Gnorm:     0.033722  CPU:   10.035
  Cycle:      2 Defect Energy:   2.833965  Gnorm:     0.016508  CPU:   13.533
  Cycle:      3 Defect Energy:   2.754145  Gnorm:     0.015326  CPU:   17.606
  Cycle:      4 Defect Energy:   2.726643  Gnorm:     0.012070  CPU:   18.448
  Cycle:      5 Defect Energy:   2.691108  Gnorm:     0.009635  CPU:   19.309
  Cycle:      6 Defect Energy:   2.653134  Gnorm:     0.008035  CPU:   20.149
  Cycle:      7 Defect Energy:   2.617298  Gnorm:     0.007054  CPU:   20.999
  Cycle:      8 Defect Energy:   2.584234  Gnorm:     0.007234  CPU:   21.912
  Cycle:      9 Defect Energy:   2.554373  Gnorm:     0.007412  CPU:   22.806
  Cycle:     10 Defect Energy:   2.527221  Gnorm:     0.007627  CPU:   23.683
  ** Hessian calculated **
  Cycle:     11 Defect Energy:   2.452232  Gnorm:     0.005450  CPU:   25.558
  Cycle:     12 Defect Energy:   2.413831  Gnorm:     0.003803  CPU:   26.372
  Cycle:     13 Defect Energy:   2.395948  Gnorm:     0.002644  CPU:   27.314
  Cycle:     14 Defect Energy:   2.387458  Gnorm:     0.001847  CPU:   28.091
  Cycle:     15 Defect Energy:   2.383369  Gnorm:     0.001290  CPU:   28.860
  Cycle:     16 Defect Energy:   2.381397  Gnorm:     0.000902  CPU:   29.639
  Cycle:     17 Defect Energy:   2.380447  Gnorm:     0.000631  CPU:   30.422
  Cycle:     18 Defect Energy:   2.379991  Gnorm:     0.000442  CPU:   31.200
  Cycle:     19 Defect Energy:   2.379775  Gnorm:     0.000309  CPU:   32.064
  Cycle:     20 Defect Energy:   2.379673  Gnorm:     0.000216  CPU:   32.851
  ** Hessian calculated **
  Cycle:     21 Defect Energy:   2.379626  Gnorm:     0.000151  CPU:   34.592
  Cycle:     22 Defect Energy:   2.379606  Gnorm:     0.000106  CPU:   35.301


  **** Optimisation achieved ****


  Final defect energy  =        2.37959703
  Final defect Gnorm   =        0.00007415

  Components of defect energy : 

--------------------------------------------------------------------------------
  Region 1 - region 1                   =     13.24826924 eV
  Region 1 - region 2a (unrelaxed)      =    -10.69558104 eV
  Region 1 - 2a (relaxed - correction)  =     -0.12309212 eV
  Region 1 (Total)                      =      2.42959608 eV
  Region 2a                             =      0.06154880 eV
  Region 2b                             =     -0.11154786 eV
--------------------------------------------------------------------------------
  Total defect energy                   =      2.37959703 eV
--------------------------------------------------------------------------------

  Largest displacement in region 2 =   0.0113 Angstroms

  Final coordinates of region 1 :

--------------------------------------------------------------------------------
   No.  Atomic        x           y           z          Radius      Charge
        Label       (Angs)      (Angs)      (Angs)       (Angs)       (e) 
--------------------------------------------------------------------------------
     1  O     c     2.214230    2.214230   -2.291843    0.000000    0.489000
     2  O     c     2.214230    2.214230    2.291843    0.000000    0.489000
     3  Cl    c     4.553013    4.553013    0.000000    0.000000    0.615000
     4  Cl    c     4.553013   -0.124552    0.000000    0.000000    0.615000
     5  Cl    c    -0.124552    4.553013    0.000000    0.000000    0.615000
     6  Cl    c    -0.124552   -0.124552    0.000000    0.000000    0.615000
     7  Na    c     4.363329    2.214230   -1.878807    0.000000    0.670000
     8  Na    c     4.363329    2.214230    1.878807    0.000000    0.670000
     9  Na    c     0.065132    2.214230   -1.878807    0.000000    0.670000
    10  Na    c     0.065132    2.214230    1.878807    0.000000    0.670000
    11  Na    c     2.214230    4.363329   -1.878807    0.000000    0.670000
    12  Na    c     2.214230    4.363329    1.878807    0.000000    0.670000
    13  Na    c     2.214230    0.065132   -1.878807    0.000000    0.670000
    14  Na    c     2.214230    0.065132    1.878807    0.000000    0.670000
    15  Na    c     2.214230    2.214230    4.445914    0.000000    0.670000
    16  Na    c     2.214230    2.214230   -4.445914    0.000000    0.670000
    17  Na    c     2.214230    6.876563    0.000000    0.000000    0.670000
    18  Na    c     2.214230   -2.448102    0.000000    0.000000    0.670000
    19  Na    c     6.876563    2.214230    0.000000    0.000000    0.670000
    20  Na    c    -2.448102    2.214230    0.000000    0.000000    0.670000
    21  O     c     2.214230    6.614753   -2.199634    0.000000    0.489000
    22  O     c     2.214230    6.614753    2.199634    0.000000    0.489000
    23  O     c     2.214230   -2.186292   -2.199634    0.000000    0.489000
    24  O     c     2.214230   -2.186292    2.199634    0.000000    0.489000
    25  O     c     6.614753    2.214230   -2.199634    0.000000    0.489000
    26  O     c     6.614753    2.214230    2.199634    0.000000    0.489000
    27  O     c    -2.186292    2.214230   -2.199634    0.000000    0.489000
    28  O     c    -2.186292    2.214230    2.199634    0.000000    0.489000
    29  Cl    c     4.504498    4.504498    4.528369    0.000000    0.615000
    30  Cl    c     4.504498    4.504498   -4.528369    0.000000    0.615000
    31  Cl    c     4.504498   -0.076037    4.528369    0.000000    0.615000
    32  Cl    c     4.504498   -0.076037   -4.528369    0.000000    0.615000
    33  Cl    c    -0.076037    4.504498    4.528369    0.000000    0.615000
    34  Cl    c    -0.076037    4.504498   -4.528369    0.000000    0.615000
    35  Cl    c    -0.076037   -0.076037    4.528369    0.000000    0.615000
    36  Cl    c    -0.076037   -0.076037   -4.528369    0.000000    0.615000
    37  Na    c     4.425988    6.602311   -2.201551    0.000000    0.670000
    38  Na    c     4.425988    6.602311    2.201551    0.000000    0.670000
    39  Na    c     4.425988   -2.173851   -2.201551    0.000000    0.670000
    40  Na    c     4.425988   -2.173851    2.201551    0.000000    0.670000
    41  Na    c     0.002473    6.602311   -2.201551    0.000000    0.670000
    42  Na    c     0.002473    6.602311    2.201551    0.000000    0.670000
    43  Na    c     0.002473   -2.173851   -2.201551    0.000000    0.670000
    44  Na    c     0.002473   -2.173851    2.201551    0.000000    0.670000
    45  Na    c     6.602311    4.425988   -2.201551    0.000000    0.670000
    46  Na    c     6.602311    4.425988    2.201551    0.000000    0.670000
    47  Na    c     6.602311    0.002473   -2.201551    0.000000    0.670000
    48  Na    c     6.602311    0.002473    2.201551    0.000000    0.670000
    49  Na    c    -2.173851    4.425988   -2.201551    0.000000    0.670000
    50  Na    c    -2.173851    4.425988    2.201551    0.000000    0.670000
    51  Na    c    -2.173851    0.002473   -2.201551    0.000000    0.670000
    52  Na    c    -2.173851    0.002473    2.201551    0.000000    0.670000
    53  Na    c     2.214230    6.360816    4.401488    0.000000    0.670000
    54  Na    c     2.214230    6.360816   -4.401488    0.000000    0.670000
    55  Na    c     2.214230   -1.932355    4.401488    0.000000    0.670000
    56  Na    c     2.214230   -1.932355   -4.401488    0.000000    0.670000
    57  Na    c     6.360816    2.214230    4.401488    0.000000    0.670000
    58  Na    c     6.360816    2.214230   -4.401488    0.000000    0.670000
    59  Na    c    -1.932355    2.214230    4.401488    0.000000    0.670000
    60  Na    c    -1.932355    2.214230   -4.401488    0.000000    0.670000
    61  Na    c     6.645480    6.645480    0.000000    0.000000    0.670000
    62  Na    c     6.645480   -2.217019    0.000000    0.000000    0.670000
    63  Na    c    -2.217019    6.645480    0.000000    0.000000    0.670000
    64  Na    c    -2.217019   -2.217019    0.000000    0.000000    0.670000
    65  O     c     6.646666    6.646666   -2.220543    0.000000    0.489000
    66  O     c     6.646666    6.646666    2.220543    0.000000    0.489000
    67  O     c     6.646666   -2.218205   -2.220543    0.000000    0.489000
    68  O     c     6.646666   -2.218205    2.220543    0.000000    0.489000
    69  O     c    -2.218205    6.646666   -2.220543    0.000000    0.489000
    70  O     c    -2.218205    6.646666    2.220543    0.000000    0.489000
    71  O     c    -2.218205   -2.218205   -2.220543    0.000000    0.489000
    72  O     c    -2.218205   -2.218205    2.220543    0.000000    0.489000
    73  O     c     2.214230    2.214230    6.680607    0.000000    0.489000
    74  O     c     2.214230    2.214230   -6.680607    0.000000    0.489000
    75  Cl    c     4.453790    8.881213    0.000000    0.000000    0.615000
    76  Cl    c     4.453790   -4.452752    0.000000    0.000000    0.615000
    77  Cl    c     8.881213    4.453790    0.000000    0.000000    0.615000
    78  Cl    c     8.881213   -0.025329    0.000000    0.000000    0.615000
    79  Cl    c    -0.025329    8.881213    0.000000    0.000000    0.615000
    80  Cl    c    -0.025329   -4.452752    0.000000    0.000000    0.615000
    81  Cl    c    -4.452752    4.453790    0.000000    0.000000    0.615000
    82  Cl    c    -4.452752   -0.025329    0.000000    0.000000    0.615000
    83  Na    c     4.423273    2.214230    6.717889    0.000000    0.670000
    84  Na    c     4.423273    2.214230   -6.717889    0.000000    0.670000
    85  Na    c     0.005188    2.214230    6.717889    0.000000    0.670000
    86  Na    c     0.005188    2.214230   -6.717889    0.000000    0.670000
    87  Na    c     2.214230    4.423273    6.717889    0.000000    0.670000
    88  Na    c     2.214230    4.423273   -6.717889    0.000000    0.670000
    89  Na    c     2.214230    0.005188    6.717889    0.000000    0.670000
    90  Na    c     2.214230    0.005188   -6.717889    0.000000    0.670000
    91  Na    c     8.829707    2.214230   -2.447599    0.000000    0.670000
    92  Na    c     8.829707    2.214230    2.447599    0.000000    0.670000
    93  Na    c    -4.401246    2.214230   -2.447599    0.000000    0.670000
    94  Na    c    -4.401246    2.214230    2.447599    0.000000    0.670000
    95  Na    c     2.214230    8.829707   -2.447599    0.000000    0.670000
    96  Na    c     2.214230    8.829707    2.447599    0.000000    0.670000
    97  Na    c     2.214230   -4.401246   -2.447599    0.000000    0.670000
    98  Na    c     2.214230   -4.401246    2.447599    0.000000    0.670000
    99  Na    c     6.631640    6.631640    4.430877    0.000000    0.670000
   100  Na    c     6.631640    6.631640   -4.430877    0.000000    0.670000
   101  Na    c     6.631640   -2.203180    4.430877    0.000000    0.670000
   102  Na    c     6.631640   -2.203180   -4.430877    0.000000    0.670000
   103  Na    c    -2.203180    6.631640    4.430877    0.000000    0.670000
   104  Na    c    -2.203180    6.631640   -4.430877    0.000000    0.670000
   105  Na    c    -2.203180   -2.203180    4.430877    0.000000    0.670000
   106  Na    c    -2.203180   -2.203180   -4.430877    0.000000    0.670000
   107  O     c     2.214230    6.638238    6.621667    0.000000    0.489000
   108  O     c     2.214230    6.638238   -6.621667    0.000000    0.489000
   109  O     c     2.214230   -2.209777    6.621667    0.000000    0.489000
   110  O     c     2.214230   -2.209777   -6.621667    0.000000    0.489000
   111  O     c     6.638238    2.214230    6.621667    0.000000    0.489000
   112  O     c     6.638238    2.214230   -6.621667    0.000000    0.489000
   113  O     c    -2.209777    2.214230    6.621667    0.000000    0.489000
   114  O     c    -2.209777    2.214230   -6.621667    0.000000    0.489000
   115  Cl    c     4.453113    8.891848    4.435309    0.000000    0.615000
   116  Cl    c     4.453113    8.891848   -4.435309    0.000000    0.615000
   117  Cl    c     4.453113   -4.463387    4.435309    0.000000    0.615000
   118  Cl    c     4.453113   -4.463387   -4.435309    0.000000    0.615000
   119  Cl    c     8.891848    4.453113    4.435309    0.000000    0.615000
   120  Cl    c     8.891848    4.453113   -4.435309    0.000000    0.615000
   121  Cl    c     8.891848   -0.024652    4.435309    0.000000    0.615000
   122  Cl    c     8.891848   -0.024652   -4.435309    0.000000    0.615000
   123  Cl    c    -0.024652    8.891848    4.435309    0.000000    0.615000
   124  Cl    c    -0.024652    8.891848   -4.435309    0.000000    0.615000
   125  Cl    c    -0.024652   -4.463387    4.435309    0.000000    0.615000
   126  Cl    c    -0.024652   -4.463387   -4.435309    0.000000    0.615000
   127  Cl    c    -4.463387    4.453113    4.435309    0.000000    0.615000
   128  Cl    c    -4.463387    4.453113   -4.435309    0.000000    0.615000
   129  Cl    c    -4.463387   -0.024652    4.435309    0.000000    0.615000
   130  Cl    c    -4.463387   -0.024652   -4.435309    0.000000    0.615000
   131  Na    c     4.430353    6.641737    6.620732    0.000000    0.670000
   132  Na    c     4.430353    6.641737   -6.620732    0.000000    0.670000
   133  Na    c     4.430353   -2.213276    6.620732    0.000000    0.670000
   134  Na    c     4.430353   -2.213276   -6.620732    0.000000    0.670000
   135  Na    c    -0.001892    6.641737    6.620732    0.000000    0.670000
   136  Na    c    -0.001892    6.641737   -6.620732    0.000000    0.670000
   137  Na    c    -0.001892   -2.213276    6.620732    0.000000    0.670000
   138  Na    c    -0.001892   -2.213276   -6.620732    0.000000    0.670000
   139  Na    c     6.641737    4.430353    6.620732    0.000000    0.670000
   140  Na    c     6.641737    4.430353   -6.620732    0.000000    0.670000
   141  Na    c     6.641737   -0.001892    6.620732    0.000000    0.670000
   142  Na    c     6.641737   -0.001892   -6.620732    0.000000    0.670000
   143  Na    c    -2.213276    4.430353    6.620732    0.000000    0.670000
   144  Na    c    -2.213276    4.430353   -6.620732    0.000000    0.670000
   145  Na    c    -2.213276   -0.001892    6.620732    0.000000    0.670000
   146  Na    c    -2.213276   -0.001892   -6.620732    0.000000    0.670000
   147  Na    c     8.853945    6.629733   -2.223976    0.000000    0.670000
   148  Na    c     8.853945    6.629733    2.223976    0.000000    0.670000
   149  Na    c     8.853945   -2.201272   -2.223976    0.000000    0.670000
   150  Na    c     8.853945   -2.201272    2.223976    0.000000    0.670000
   151  Na    c    -4.425484    6.629733   -2.223976    0.000000    0.670000
   152  Na    c    -4.425484    6.629733    2.223976    0.000000    0.670000
   153  Na    c    -4.425484   -2.201272   -2.223976    0.000000    0.670000
   154  Na    c    -4.425484   -2.201272    2.223976    0.000000    0.670000
   155  Na    c     6.629733    8.853945   -2.223976    0.000000    0.670000
   156  Na    c     6.629733    8.853945    2.223976    0.000000    0.670000
   157  Na    c     6.629733   -4.425484   -2.223976    0.000000    0.670000
   158  Na    c     6.629733   -4.425484    2.223976    0.000000    0.670000
   159  Na    c    -2.201272    8.853945   -2.223976    0.000000    0.670000
   160  Na    c    -2.201272    8.853945    2.223976    0.000000    0.670000
   161  Na    c    -2.201272   -4.425484   -2.223976    0.000000    0.670000
   162  Na    c    -2.201272   -4.425484    2.223976    0.000000    0.670000
   163  Na    c     2.214230    2.214230    8.880659    0.000000    0.670000
   164  Na    c     2.214230    2.214230   -8.880659    0.000000    0.670000
   165  Na    c     2.214230   10.843272    0.000000    0.000000    0.670000
   166  Na    c     2.214230   -6.414811    0.000000    0.000000    0.670000
   167  Na    c    10.843272    2.214230    0.000000    0.000000    0.670000
   168  Na    c    -6.414811    2.214230    0.000000    0.000000    0.670000
   169  O     c     2.214230   11.050305   -2.213522    0.000000    0.489000
   170  O     c     2.214230   11.050305    2.213522    0.000000    0.489000
   171  O     c     2.214230   -6.621844   -2.213522    0.000000    0.489000
   172  O     c     2.214230   -6.621844    2.213522    0.000000    0.489000
   173  O     c    11.050305    2.214230   -2.213522    0.000000    0.489000
   174  O     c    11.050305    2.214230    2.213522    0.000000    0.489000
   175  O     c    -6.621844    2.214230   -2.213522    0.000000    0.489000
   176  O     c    -6.621844    2.214230    2.213522    0.000000    0.489000
   177  O     c     6.650694    6.650694    6.648569    0.000000    0.489000
   178  O     c     6.650694    6.650694   -6.648569    0.000000    0.489000
   179  O     c     6.650694   -2.222233    6.648569    0.000000    0.489000
   180  O     c     6.650694   -2.222233   -6.648569    0.000000    0.489000
   181  O     c    -2.222233    6.650694    6.648569    0.000000    0.489000
   182  O     c    -2.222233    6.650694   -6.648569    0.000000    0.489000
   183  O     c    -2.222233   -2.222233    6.648569    0.000000    0.489000
   184  O     c    -2.222233   -2.222233   -6.648569    0.000000    0.489000
   185  Cl    c     4.425534    4.425534    8.883681    0.000000    0.615000
   186  Cl    c     4.425534    4.425534   -8.883681    0.000000    0.615000
   187  Cl    c     4.425534    0.002927    8.883681    0.000000    0.615000
   188  Cl    c     4.425534    0.002927   -8.883681    0.000000    0.615000
   189  Cl    c     0.002927    4.425534    8.883681    0.000000    0.615000
   190  Cl    c     0.002927    4.425534   -8.883681    0.000000    0.615000
   191  Cl    c     0.002927    0.002927    8.883681    0.000000    0.615000
   192  Cl    c     0.002927    0.002927   -8.883681    0.000000    0.615000
   193  Na    c     4.427620   11.052098   -2.196399    0.000000    0.670000
   194  Na    c     4.427620   11.052098    2.196399    0.000000    0.670000
   195  Na    c     4.427620   -6.623637   -2.196399    0.000000    0.670000
   196  Na    c     4.427620   -6.623637    2.196399    0.000000    0.670000
   197  Na    c     0.000841   11.052098   -2.196399    0.000000    0.670000
   198  Na    c     0.000841   11.052098    2.196399    0.000000    0.670000
   199  Na    c     0.000841   -6.623637   -2.196399    0.000000    0.670000
   200  Na    c     0.000841   -6.623637    2.196399    0.000000    0.670000
   201  Na    c    11.052098    4.427620   -2.196399    0.000000    0.670000
   202  Na    c    11.052098    4.427620    2.196399    0.000000    0.670000
   203  Na    c    11.052098    0.000841   -2.196399    0.000000    0.670000
   204  Na    c    11.052098    0.000841    2.196399    0.000000    0.670000
   205  Na    c    -6.623637    4.427620   -2.196399    0.000000    0.670000
   206  Na    c    -6.623637    4.427620    2.196399    0.000000    0.670000
   207  Na    c    -6.623637    0.000841   -2.196399    0.000000    0.670000
   208  Na    c    -6.623637    0.000841    2.196399    0.000000    0.670000
   209  Cl    c     8.874364    8.874364    0.000000    0.000000    0.615000
   210  Cl    c     8.874364   -4.445903    0.000000    0.000000    0.615000
   211  Cl    c    -4.445903    8.874364    0.000000    0.000000    0.615000
   212  Cl    c    -4.445903   -4.445903    0.000000    0.000000    0.615000
   213  Na    c     8.846293    2.214230    6.455113    0.000000    0.670000
   214  Na    c     8.846293    2.214230   -6.455113    0.000000    0.670000
   215  Na    c    -4.417832    2.214230    6.455113    0.000000    0.670000
   216  Na    c    -4.417832    2.214230   -6.455113    0.000000    0.670000
   217  Na    c     2.214230    8.846293    6.455113    0.000000    0.670000
   218  Na    c     2.214230    8.846293   -6.455113    0.000000    0.670000
   219  Na    c     2.214230   -4.417832    6.455113    0.000000    0.670000
   220  Na    c     2.214230   -4.417832   -6.455113    0.000000    0.670000
   221  Na    c     2.214230    6.731439    8.839259    0.000000    0.670000
   222  Na    c     2.214230    6.731439   -8.839259    0.000000    0.670000
   223  Na    c     2.214230   -2.302978    8.839259    0.000000    0.670000
   224  Na    c     2.214230   -2.302978   -8.839259    0.000000    0.670000
   225  Na    c     6.731439    2.214230    8.839259    0.000000    0.670000
   226  Na    c     6.731439    2.214230   -8.839259    0.000000    0.670000
   227  Na    c    -2.302978    2.214230    8.839259    0.000000    0.670000
   228  Na    c    -2.302978    2.214230   -8.839259    0.000000    0.670000
   229  Na    c     2.214230   11.230718    4.422152    0.000000    0.670000
   230  Na    c     2.214230   11.230718   -4.422152    0.000000    0.670000
   231  Na    c     2.214230   -6.802257    4.422152    0.000000    0.670000
   232  Na    c     2.214230   -6.802257   -4.422152    0.000000    0.670000
   233  Na    c    11.230718    2.214230    4.422152    0.000000    0.670000
   234  Na    c    11.230718    2.214230   -4.422152    0.000000    0.670000
   235  Na    c    -6.802257    2.214230    4.422152    0.000000    0.670000
   236  Na    c    -6.802257    2.214230   -4.422152    0.000000    0.670000
   237  Na    c     6.657982   11.049639    0.000000    0.000000    0.670000
   238  Na    c     6.657982   -6.621178    0.000000    0.000000    0.670000
   239  Na    c    11.049639    6.657982    0.000000    0.000000    0.670000
   240  Na    c    11.049639   -2.229521    0.000000    0.000000    0.670000
   241  Na    c    -2.229521   11.049639    0.000000    0.000000    0.670000
   242  Na    c    -2.229521   -6.621178    0.000000    0.000000    0.670000
   243  Na    c    -6.621178    6.657982    0.000000    0.000000    0.670000
   244  Na    c    -6.621178   -2.229521    0.000000    0.000000    0.670000
   245  O     c     6.643695   11.072131   -2.214192    0.000000    0.489000
   246  O     c     6.643695   11.072131    2.214192    0.000000    0.489000
   247  O     c     6.643695   -6.643670   -2.214192    0.000000    0.489000
   248  O     c     6.643695   -6.643670    2.214192    0.000000    0.489000
   249  O     c    11.072131    6.643695   -2.214192    0.000000    0.489000
   250  O     c    11.072131    6.643695    2.214192    0.000000    0.489000
   251  O     c    11.072131   -2.215234   -2.214192    0.000000    0.489000
   252  O     c    11.072131   -2.215234    2.214192    0.000000    0.489000
   253  O     c    -2.215234   11.072131   -2.214192    0.000000    0.489000
   254  O     c    -2.215234   11.072131    2.214192    0.000000    0.489000
   255  O     c    -2.215234   -6.643670   -2.214192    0.000000    0.489000
   256  O     c    -2.215234   -6.643670    2.214192    0.000000    0.489000
   257  O     c    -6.643670    6.643695   -2.214192    0.000000    0.489000
   258  O     c    -6.643670    6.643695    2.214192    0.000000    0.489000
   259  O     c    -6.643670   -2.215234   -2.214192    0.000000    0.489000
   260  O     c    -6.643670   -2.215234    2.214192    0.000000    0.489000
   261  Cl    c     8.875307    8.875307    4.439246    0.000000    0.615000
   262  Cl    c     8.875307    8.875307   -4.439246    0.000000    0.615000
   263  Cl    c     8.875307   -4.446846    4.439246    0.000000    0.615000
   264  Cl    c     8.875307   -4.446846   -4.439246    0.000000    0.615000
   265  Cl    c    -4.446846    8.875307    4.439246    0.000000    0.615000
   266  Cl    c    -4.446846    8.875307   -4.439246    0.000000    0.615000
   267  Cl    c    -4.446846   -4.446846    4.439246    0.000000    0.615000
   268  Cl    c    -4.446846   -4.446846   -4.439246    0.000000    0.615000
   269  Na    c     8.859367    6.647549    6.633523    0.000000    0.670000
   270  Na    c     8.859367    6.647549   -6.633523    0.000000    0.670000
   271  Na    c     8.859367   -2.219088    6.633523    0.000000    0.670000
   272  Na    c     8.859367   -2.219088   -6.633523    0.000000    0.670000
   273  Na    c    -4.430906    6.647549    6.633523    0.000000    0.670000
   274  Na    c    -4.430906    6.647549   -6.633523    0.000000    0.670000
   275  Na    c    -4.430906   -2.219088    6.633523    0.000000    0.670000
   276  Na    c    -4.430906   -2.219088   -6.633523    0.000000    0.670000
   277  Na    c     6.647549    8.859367    6.633523    0.000000    0.670000
   278  Na    c     6.647549    8.859367   -6.633523    0.000000    0.670000
   279  Na    c     6.647549   -4.430906    6.633523    0.000000    0.670000
   280  Na    c     6.647549   -4.430906   -6.633523    0.000000    0.670000
   281  Na    c    -2.219088    8.859367    6.633523    0.000000    0.670000
   282  Na    c    -2.219088    8.859367   -6.633523    0.000000    0.670000
   283  Na    c    -2.219088   -4.430906    6.633523    0.000000    0.670000
   284  Na    c    -2.219088   -4.430906   -6.633523    0.000000    0.670000
   285  Na    c     6.643858    6.643858    8.854847    0.000000    0.670000
   286  Na    c     6.643858    6.643858   -8.854847    0.000000    0.670000
   287  Na    c     6.643858   -2.215397    8.854847    0.000000    0.670000
   288  Na    c     6.643858   -2.215397   -8.854847    0.000000    0.670000
   289  Na    c    -2.215397    6.643858    8.854847    0.000000    0.670000
   290  Na    c    -2.215397    6.643858   -8.854847    0.000000    0.670000
   291  Na    c    -2.215397   -2.215397    8.854847    0.000000    0.670000
   292  Na    c    -2.215397   -2.215397   -8.854847    0.000000    0.670000
   293  Na    c     6.626281   11.074610    4.428059    0.000000    0.670000
   294  Na    c     6.626281   11.074610   -4.428059    0.000000    0.670000
   295  Na    c     6.626281   -6.646149    4.428059    0.000000    0.670000
   296  Na    c     6.626281   -6.646149   -4.428059    0.000000    0.670000
   297  Na    c    11.074610    6.626281    4.428059    0.000000    0.670000
   298  Na    c    11.074610    6.626281   -4.428059    0.000000    0.670000
   299  Na    c    11.074610   -2.197820    4.428059    0.000000    0.670000
   300  Na    c    11.074610   -2.197820   -4.428059    0.000000    0.670000
   301  Na    c    -2.197820   11.074610    4.428059    0.000000    0.670000
   302  Na    c    -2.197820   11.074610   -4.428059    0.000000    0.670000
   303  Na    c    -2.197820   -6.646149    4.428059    0.000000    0.670000
   304  Na    c    -2.197820   -6.646149   -4.428059    0.000000    0.670000
   305  Na    c    -6.646149    6.626281    4.428059    0.000000    0.670000
   306  Na    c    -6.646149    6.626281   -4.428059    0.000000    0.670000
   307  Na    c    -6.646149   -2.197820    4.428059    0.000000    0.670000
   308  Na    c    -6.646149   -2.197820   -4.428059    0.000000    0.670000
   309  O     c     2.214230   11.067145    6.633932    0.000000    0.489000
   310  O     c     2.214230   11.067145   -6.633932    0.000000    0.489000
   311  O     c     2.214230   -6.638684    6.633932    0.000000    0.489000
   312  O     c     2.214230   -6.638684   -6.633932    0.000000    0.489000
   313  O     c    11.067145    2.214230    6.633932    0.000000    0.489000
   314  O     c    11.067145    2.214230   -6.633932    0.000000    0.489000
   315  O     c    -6.638684    2.214230    6.633932    0.000000    0.489000
   316  O     c    -6.638684    2.214230   -6.633932    0.000000    0.489000
   317  O     c     2.214230    2.214230   11.079292    0.000000    0.489000
   318  O     c     2.214230    2.214230  -11.079292    0.000000    0.489000
   319  Cl    c     4.438556    8.869529    8.876581    0.000000    0.615000
   320  Cl    c     4.438556    8.869529   -8.876581    0.000000    0.615000
   321  Cl    c     4.438556   -4.441068    8.876581    0.000000    0.615000
   322  Cl    c     4.438556   -4.441068   -8.876581    0.000000    0.615000
   323  Cl    c     8.869529    4.438556    8.876581    0.000000    0.615000
   324  Cl    c     8.869529    4.438556   -8.876581    0.000000    0.615000
   325  Cl    c     8.869529   -0.010095    8.876581    0.000000    0.615000
   326  Cl    c     8.869529   -0.010095   -8.876581    0.000000    0.615000
   327  Cl    c    -0.010095    8.869529    8.876581    0.000000    0.615000
   328  Cl    c    -0.010095    8.869529   -8.876581    0.000000    0.615000
   329  Cl    c    -0.010095   -4.441068    8.876581    0.000000    0.615000
   330  Cl    c    -0.010095   -4.441068   -8.876581    0.000000    0.615000
   331  Cl    c    -4.441068    4.438556    8.876581    0.000000    0.615000
   332  Cl    c    -4.441068    4.438556   -8.876581    0.000000    0.615000
   333  Cl    c    -4.441068   -0.010095    8.876581    0.000000    0.615000
   334  Cl    c    -4.441068   -0.010095   -8.876581    0.000000    0.615000
   335  Na    c     4.427810   11.049684    6.644717    0.000000    0.670000
   336  Na    c     4.427810   11.049684   -6.644717    0.000000    0.670000
   337  Na    c     4.427810   -6.621223    6.644717    0.000000    0.670000
   338  Na    c     4.427810   -6.621223   -6.644717    0.000000    0.670000
   339  Na    c     0.000650   11.049684    6.644717    0.000000    0.670000
   340  Na    c     0.000650   11.049684   -6.644717    0.000000    0.670000
   341  Na    c     0.000650   -6.621223    6.644717    0.000000    0.670000
   342  Na    c     0.000650   -6.621223   -6.644717    0.000000    0.670000
   343  Na    c    11.049684    4.427810    6.644717    0.000000    0.670000
   344  Na    c    11.049684    4.427810   -6.644717    0.000000    0.670000
   345  Na    c    11.049684    0.000650    6.644717    0.000000    0.670000
   346  Na    c    11.049684    0.000650   -6.644717    0.000000    0.670000
   347  Na    c    -6.621223    4.427810    6.644717    0.000000    0.670000
   348  Na    c    -6.621223    4.427810   -6.644717    0.000000    0.670000
   349  Na    c    -6.621223    0.000650    6.644717    0.000000    0.670000
   350  Na    c    -6.621223    0.000650   -6.644717    0.000000    0.670000
   351  Na    c     8.855446   11.060975   -2.226828    0.000000    0.670000
   352  Na    c     8.855446   11.060975    2.226828    0.000000    0.670000
   353  Na    c     8.855446   -6.632514   -2.226828    0.000000    0.670000
   354  Na    c     8.855446   -6.632514    2.226828    0.000000    0.670000
   355  Na    c    -4.426985   11.060975   -2.226828    0.000000    0.670000
   356  Na    c    -4.426985   11.060975    2.226828    0.000000    0.670000
   357  Na    c    -4.426985   -6.632514   -2.226828    0.000000    0.670000
   358  Na    c    -4.426985   -6.632514    2.226828    0.000000    0.670000
   359  Na    c    11.060975    8.855446   -2.226828    0.000000    0.670000
   360  Na    c    11.060975    8.855446    2.226828    0.000000    0.670000
   361  Na    c    11.060975   -4.426985   -2.226828    0.000000    0.670000
   362  Na    c    11.060975   -4.426985    2.226828    0.000000    0.670000
   363  Na    c    -6.632514    8.855446   -2.226828    0.000000    0.670000
   364  Na    c    -6.632514    8.855446    2.226828    0.000000    0.670000
   365  Na    c    -6.632514   -4.426985   -2.226828    0.000000    0.670000
   366  Na    c    -6.632514   -4.426985    2.226828    0.000000    0.670000
   367  Cl    c     4.435358   13.302962    0.000000    0.000000    0.615000
   368  Cl    c     4.435358   -8.874501    0.000000    0.000000    0.615000
   369  Cl    c    13.302962    4.435358    0.000000    0.000000    0.615000
   370  Cl    c    13.302962   -0.006897    0.000000    0.000000    0.615000
   371  Cl    c    -0.006897   13.302962    0.000000    0.000000    0.615000
   372  Cl    c    -0.006897   -8.874501    0.000000    0.000000    0.615000
   373  Cl    c    -8.874501    4.435358    0.000000    0.000000    0.615000
   374  Cl    c    -8.874501   -0.006897    0.000000    0.000000    0.615000
   375  Na    c     4.433364    2.214230   11.040752    0.000000    0.670000
   376  Na    c     4.433364    2.214230  -11.040752    0.000000    0.670000
   377  Na    c    -0.004903    2.214230   11.040752    0.000000    0.670000
   378  Na    c    -0.004903    2.214230  -11.040752    0.000000    0.670000
   379  Na    c     2.214230    4.433364   11.040752    0.000000    0.670000
   380  Na    c     2.214230    4.433364  -11.040752    0.000000    0.670000
   381  Na    c     2.214230   -0.004903   11.040752    0.000000    0.670000
   382  Na    c     2.214230   -0.004903  -11.040752    0.000000    0.670000
   383  Na    c    13.269420    2.214230   -2.071679    0.000000    0.670000
   384  Na    c    13.269420    2.214230    2.071679    0.000000    0.670000
   385  Na    c    -8.840959    2.214230   -2.071679    0.000000    0.670000
   386  Na    c    -8.840959    2.214230    2.071679    0.000000    0.670000
   387  Na    c     2.214230   13.269420   -2.071679    0.000000    0.670000
   388  Na    c     2.214230   13.269420    2.071679    0.000000    0.670000
   389  Na    c     2.214230   -8.840959   -2.071679    0.000000    0.670000
   390  Na    c     2.214230   -8.840959    2.071679    0.000000    0.670000
   391  O     c     6.643625   11.073695    6.644512    0.000000    0.489000
   392  O     c     6.643625   11.073695   -6.644512    0.000000    0.489000
   393  O     c     6.643625   -6.645234    6.644512    0.000000    0.489000
   394  O     c     6.643625   -6.645234   -6.644512    0.000000    0.489000
   395  O     c    11.073695    6.643625    6.644512    0.000000    0.489000
   396  O     c    11.073695    6.643625   -6.644512    0.000000    0.489000
   397  O     c    11.073695   -2.215165    6.644512    0.000000    0.489000
   398  O     c    11.073695   -2.215165   -6.644512    0.000000    0.489000
   399  O     c    -2.215165   11.073695    6.644512    0.000000    0.489000
   400  O     c    -2.215165   11.073695   -6.644512    0.000000    0.489000
   401  O     c    -2.215165   -6.645234    6.644512    0.000000    0.489000
   402  O     c    -2.215165   -6.645234   -6.644512    0.000000    0.489000
   403  O     c    -6.645234    6.643625    6.644512    0.000000    0.489000
   404  O     c    -6.645234    6.643625   -6.644512    0.000000    0.489000
   405  O     c    -6.645234   -2.215165    6.644512    0.000000    0.489000
   406  O     c    -6.645234   -2.215165   -6.644512    0.000000    0.489000
   407  O     c     2.214230    6.647597   11.064617    0.000000    0.489000
   408  O     c     2.214230    6.647597  -11.064617    0.000000    0.489000
   409  O     c     2.214230   -2.219136   11.064617    0.000000    0.489000
   410  O     c     2.214230   -2.219136  -11.064617    0.000000    0.489000
   411  O     c     6.647597    2.214230   11.064617    0.000000    0.489000
   412  O     c     6.647597    2.214230  -11.064617    0.000000    0.489000
   413  O     c    -2.219136    2.214230   11.064617    0.000000    0.489000
   414  O     c    -2.219136    2.214230  -11.064617    0.000000    0.489000
   415  Cl    c     4.432690   13.295688    4.433095    0.000000    0.615000
   416  Cl    c     4.432690   13.295688   -4.433095    0.000000    0.615000
   417  Cl    c     4.432690   -8.867227    4.433095    0.000000    0.615000
   418  Cl    c     4.432690   -8.867227   -4.433095    0.000000    0.615000
   419  Cl    c    13.295688    4.432690    4.433095    0.000000    0.615000
   420  Cl    c    13.295688    4.432690   -4.433095    0.000000    0.615000
   421  Cl    c    13.295688   -0.004229    4.433095    0.000000    0.615000
   422  Cl    c    13.295688   -0.004229   -4.433095    0.000000    0.615000
   423  Cl    c    -0.004229   13.295688    4.433095    0.000000    0.615000
   424  Cl    c    -0.004229   13.295688   -4.433095    0.000000    0.615000
   425  Cl    c    -0.004229   -8.867227    4.433095    0.000000    0.615000
   426  Cl    c    -0.004229   -8.867227   -4.433095    0.000000    0.615000
   427  Cl    c    -8.867227    4.432690    4.433095    0.000000    0.615000
   428  Cl    c    -8.867227    4.432690   -4.433095    0.000000    0.615000
   429  Cl    c    -8.867227   -0.004229    4.433095    0.000000    0.615000
   430  Cl    c    -8.867227   -0.004229   -4.433095    0.000000    0.615000
   431  Na    c     4.427660    6.638698   11.052555    0.000000    0.670000
   432  Na    c     4.427660    6.638698  -11.052555    0.000000    0.670000
   433  Na    c     4.427660   -2.210237   11.052555    0.000000    0.670000
   434  Na    c     4.427660   -2.210237  -11.052555    0.000000    0.670000
   435  Na    c     0.000801    6.638698   11.052555    0.000000    0.670000
   436  Na    c     0.000801    6.638698  -11.052555    0.000000    0.670000
   437  Na    c     0.000801   -2.210237   11.052555    0.000000    0.670000
   438  Na    c     0.000801   -2.210237  -11.052555    0.000000    0.670000
   439  Na    c     6.638698    4.427660   11.052555    0.000000    0.670000
   440  Na    c     6.638698    4.427660  -11.052555    0.000000    0.670000
   441  Na    c     6.638698    0.000801   11.052555    0.000000    0.670000
   442  Na    c     6.638698    0.000801  -11.052555    0.000000    0.670000
   443  Na    c    -2.210237    4.427660   11.052555    0.000000    0.670000
   444  Na    c    -2.210237    4.427660  -11.052555    0.000000    0.670000
   445  Na    c    -2.210237    0.000801   11.052555    0.000000    0.670000
   446  Na    c    -2.210237    0.000801  -11.052555    0.000000    0.670000
   447  Na    c    13.283367    6.642442   -2.201746    0.000000    0.670000
   448  Na    c    13.283367    6.642442    2.201746    0.000000    0.670000
   449  Na    c    13.283367   -2.213981   -2.201746    0.000000    0.670000
   450  Na    c    13.283367   -2.213981    2.201746    0.000000    0.670000
   451  Na    c    -8.854906    6.642442   -2.201746    0.000000    0.670000
   452  Na    c    -8.854906    6.642442    2.201746    0.000000    0.670000
   453  Na    c    -8.854906   -2.213981   -2.201746    0.000000    0.670000
   454  Na    c    -8.854906   -2.213981    2.201746    0.000000    0.670000
   455  Na    c     6.642442   13.283367   -2.201746    0.000000    0.670000
   456  Na    c     6.642442   13.283367    2.201746    0.000000    0.670000
   457  Na    c     6.642442   -8.854906   -2.201746    0.000000    0.670000
   458  Na    c     6.642442   -8.854906    2.201746    0.000000    0.670000
   459  Na    c    -2.213981   13.283367   -2.201746    0.000000    0.670000
   460  Na    c    -2.213981   13.283367    2.201746    0.000000    0.670000
   461  Na    c    -2.213981   -8.854906   -2.201746    0.000000    0.670000
   462  Na    c    -2.213981   -8.854906    2.201746    0.000000    0.670000
   463  Na    c     2.214230   10.972453    8.849834    0.000000    0.670000
   464  Na    c     2.214230   10.972453   -8.849834    0.000000    0.670000
   465  Na    c     2.214230   -6.543992    8.849834    0.000000    0.670000
   466  Na    c     2.214230   -6.543992   -8.849834    0.000000    0.670000
   467  Na    c    10.972453    2.214230    8.849834    0.000000    0.670000
   468  Na    c    10.972453    2.214230   -8.849834    0.000000    0.670000
   469  Na    c    -6.543992    2.214230    8.849834    0.000000    0.670000
   470  Na    c    -6.543992    2.214230   -8.849834    0.000000    0.670000
   471  Na    c    11.055530   11.055530    0.000000    0.000000    0.670000
   472  Na    c    11.055530   -6.627069    0.000000    0.000000    0.670000
   473  Na    c    -6.627069   11.055530    0.000000    0.000000    0.670000
   474  Na    c    -6.627069   -6.627069    0.000000    0.000000    0.670000
   475  O     c    11.070727   11.070727   -2.215303    0.000000    0.489000
   476  O     c    11.070727   11.070727    2.215303    0.000000    0.489000
   477  O     c    11.070727   -6.642266   -2.215303    0.000000    0.489000
   478  O     c    11.070727   -6.642266    2.215303    0.000000    0.489000
   479  O     c    -6.642266   11.070727   -2.215303    0.000000    0.489000
   480  O     c    -6.642266   11.070727    2.215303    0.000000    0.489000
   481  O     c    -6.642266   -6.642266   -2.215303    0.000000    0.489000
   482  O     c    -6.642266   -6.642266    2.215303    0.000000    0.489000
   483  O     c     6.642480    6.642480   11.070400    0.000000    0.489000
   484  O     c     6.642480    6.642480  -11.070400    0.000000    0.489000
   485  O     c     6.642480   -2.214019   11.070400    0.000000    0.489000
   486  O     c     6.642480   -2.214019  -11.070400    0.000000    0.489000
   487  O     c    -2.214019    6.642480   11.070400    0.000000    0.489000
   488  O     c    -2.214019    6.642480  -11.070400    0.000000    0.489000
   489  O     c    -2.214019   -2.214019   11.070400    0.000000    0.489000
   490  O     c    -2.214019   -2.214019  -11.070400    0.000000    0.489000
   491  Cl    c     8.867886    8.867886    8.869104    0.000000    0.615000
   492  Cl    c     8.867886    8.867886   -8.869104    0.000000    0.615000
   493  Cl    c     8.867886   -4.439426    8.869104    0.000000    0.615000
   494  Cl    c     8.867886   -4.439426   -8.869104    0.000000    0.615000
   495  Cl    c    -4.439426    8.867886    8.869104    0.000000    0.615000
   496  Cl    c    -4.439426    8.867886   -8.869104    0.000000    0.615000
   497  Cl    c    -4.439426   -4.439426    8.869104    0.000000    0.615000
   498  Cl    c    -4.439426   -4.439426   -8.869104    0.000000    0.615000
   499  Cl    c     8.862969   13.297479    0.000000    0.000000    0.615000
   500  Cl    c     8.862969   -8.869018    0.000000    0.000000    0.615000
   501  Cl    c    13.297479    8.862969    0.000000    0.000000    0.615000
   502  Cl    c    13.297479   -4.434508    0.000000    0.000000    0.615000
   503  Cl    c    -4.434508   13.297479    0.000000    0.000000    0.615000
   504  Cl    c    -4.434508   -8.869018    0.000000    0.000000    0.615000
   505  Cl    c    -8.869018    8.862969    0.000000    0.000000    0.615000
   506  Cl    c    -8.869018   -4.434508    0.000000    0.000000    0.615000
   507  Na    c     8.856087    2.214230   11.118639    0.000000    0.670000
   508  Na    c     8.856087    2.214230  -11.118639    0.000000    0.670000
   509  Na    c    -4.427627    2.214230   11.118639    0.000000    0.670000
   510  Na    c    -4.427627    2.214230  -11.118639    0.000000    0.670000
   511  Na    c     2.214230    8.856087   11.118639    0.000000    0.670000
   512  Na    c     2.214230    8.856087  -11.118639    0.000000    0.670000
   513  Na    c     2.214230   -4.427627   11.118639    0.000000    0.670000
   514  Na    c     2.214230   -4.427627  -11.118639    0.000000    0.670000
   515  Na    c     8.857915   11.070816    6.632830    0.000000    0.670000
   516  Na    c     8.857915   11.070816   -6.632830    0.000000    0.670000
   517  Na    c     8.857915   -6.642355    6.632830    0.000000    0.670000
   518  Na    c     8.857915   -6.642355   -6.632830    0.000000    0.670000
   519  Na    c    -4.429454   11.070816    6.632830    0.000000    0.670000
   520  Na    c    -4.429454   11.070816   -6.632830    0.000000    0.670000
   521  Na    c    -4.429454   -6.642355    6.632830    0.000000    0.670000
   522  Na    c    -4.429454   -6.642355   -6.632830    0.000000    0.670000
[...]
     36 y         11.071152     11.074610     0.003458    Cartesian    0.03
     36 z          4.428461      4.428059    -0.000401    Cartesian   -0.01
     37 x          2.214230      2.214230     0.000000    Cartesian    0.00
     37 y         11.071152     11.067145    -0.004007    Cartesian   -0.04
     37 z          6.642691      6.633932    -0.008759    Cartesian   -0.13
     38 x          2.214230      2.214230     0.000000    Cartesian    0.00
     38 y          2.214230      2.214230     0.000000    Cartesian    0.00
     38 z         11.071152     11.079292     0.008140    Cartesian    0.07
     39 x          4.428461      4.438556     0.010095    Cartesian    0.23
     39 y          8.856922      8.869529     0.012607    Cartesian    0.14
     39 z          8.856922      8.876581     0.019659    Cartesian    0.22
     40 x          4.428461      4.427810    -0.000650    Cartesian   -0.01
     40 y         11.071152     11.049684    -0.021469    Cartesian   -0.19
     40 z          6.642691      6.644717     0.002025    Cartesian    0.03
     41 x          8.856922      8.855446    -0.001475    Cartesian   -0.02
     41 y         11.071152     11.060975    -0.010177    Cartesian   -0.09
     41 z         -2.214230     -2.226828    -0.012597    Cartesian    0.57
     42 x          4.428461      4.435358     0.006897    Cartesian    0.16
     42 y         13.285383     13.302962     0.017580    Cartesian    0.13
     42 z          0.000000      0.000000     0.000000    Cartesian    0.00
     43 x          4.428461      4.433364     0.004903    Cartesian    0.11
     43 y          2.214230      2.214230     0.000000    Cartesian    0.00
     43 z         11.071152     11.040752    -0.030401    Cartesian   -0.27
     44 x         13.285383     13.269420    -0.015962    Cartesian   -0.12
     44 y          2.214230      2.214230     0.000000    Cartesian    0.00
     44 z         -2.214230     -2.071679     0.142551    Cartesian   -6.44
     45 x          6.642691      6.643625     0.000934    Cartesian    0.01
     45 y         11.071152     11.073695     0.002543    Cartesian    0.02
     45 z          6.642691      6.644512     0.001820    Cartesian    0.03
     46 x          2.214230      2.214230     0.000000    Cartesian    0.00
     46 y          6.642691      6.647597     0.004906    Cartesian    0.07
     46 z         11.071152     11.064617    -0.006536    Cartesian   -0.06
     47 x          4.428461      4.432690     0.004229    Cartesian    0.10
     47 y         13.285383     13.295688     0.010305    Cartesian    0.08
     47 z          4.428461      4.433095     0.004634    Cartesian    0.10
     48 x          4.428461      4.427660    -0.000801    Cartesian   -0.02
     48 y          6.642691      6.638698    -0.003993    Cartesian   -0.06
     48 z         11.071152     11.052555    -0.018597    Cartesian   -0.17
     49 x         13.285383     13.283367    -0.002015    Cartesian   -0.02
     49 y          6.642691      6.642442    -0.000250    Cartesian   -0.00
     49 z         -2.214230     -2.201746     0.012485    Cartesian   -0.56
     50 x          2.214230      2.214230     0.000000    Cartesian    0.00
     50 y         11.071152     10.972453    -0.098700    Cartesian   -0.89
     50 z          8.856922      8.849834    -0.007087    Cartesian   -0.08
     51 x         11.071152     11.055530    -0.015622    Cartesian   -0.14
     51 y         11.071152     11.055530    -0.015622    Cartesian   -0.14
     51 z          0.000000      0.000000     0.000000    Cartesian    0.00
     52 x         11.071152     11.070727    -0.000425    Cartesian   -0.00
     52 y         11.071152     11.070727    -0.000425    Cartesian   -0.00
     52 z         -2.214230     -2.215303    -0.001073    Cartesian    0.05
     53 x          6.642691      6.642480    -0.000211    Cartesian   -0.00
     53 y          6.642691      6.642480    -0.000211    Cartesian   -0.00
     53 z         11.071152     11.070400    -0.000752    Cartesian   -0.01
     54 x          8.856922      8.867886     0.010965    Cartesian    0.12
     54 y          8.856922      8.867886     0.010965    Cartesian    0.12
     54 z          8.856922      8.869104     0.012183    Cartesian    0.14
     55 x          8.856922      8.862969     0.006047    Cartesian    0.07
     55 y         13.285383     13.297479     0.012096    Cartesian    0.09
     55 z          0.000000      0.000000     0.000000    Cartesian    0.00
     56 x          8.856922      8.856087    -0.000834    Cartesian   -0.01
     56 y          2.214230      2.214230     0.000000    Cartesian    0.00
     56 z         11.071152     11.118639     0.047487    Cartesian    0.43
     57 x          8.856922      8.857915     0.000993    Cartesian    0.01
     57 y         11.071152     11.070816    -0.000336    Cartesian   -0.00
     57 z          6.642691      6.632830    -0.009862    Cartesian   -0.15
     58 x         13.285383     13.280458    -0.004925    Cartesian   -0.04
     58 y          2.214230      2.214230     0.000000    Cartesian    0.00
     58 z          6.642691      6.726582     0.083891    Cartesian    1.26
     59 x          2.214230      2.214230     0.000000    Cartesian    0.00
     59 y         15.499613     15.562523     0.062910    Cartesian    0.41
     59 z          0.000000      0.000000     0.000000    Cartesian    0.00
     60 x          6.642691      6.651287     0.008595    Cartesian    0.13
     60 y         11.071152     11.064193    -0.006959    Cartesian   -0.06
     60 z          8.856922      8.857009     0.000087    Cartesian    0.00
     61 x         11.071152     11.075014     0.003862    Cartesian    0.03
     61 y         11.071152     11.075014     0.003862    Cartesian    0.03
     61 z          4.428461      4.428661     0.000200    Cartesian    0.00
     62 x          2.214230      2.214230     0.000000    Cartesian    0.00
     62 y          2.214230      2.214230     0.000000    Cartesian    0.00
     62 z         13.285383     13.282898    -0.002484    Cartesian   -0.02
     63 x          2.214230      2.214230     0.000000    Cartesian    0.00
     63 y         15.499613     15.492624    -0.006989    Cartesian   -0.05
     63 z         -2.214230     -2.207710     0.006520    Cartesian   -0.29
     64 x          4.428461      4.427600    -0.000861    Cartesian   -0.02
     64 y         15.499613     15.486822    -0.012791    Cartesian   -0.08
     64 z         -2.214230     -2.228858    -0.014627    Cartesian    0.66
     65 x          4.428461      4.433054     0.004594    Cartesian    0.10
     65 y          4.428461      4.433054     0.004594    Cartesian    0.10
     65 z         13.285383     13.303485     0.018103    Cartesian    0.14
     66 x          8.856922      8.864468     0.007547    Cartesian    0.09
     66 y         13.285383     13.297489     0.012106    Cartesian    0.09
     66 z          4.428461      4.432782     0.004322    Cartesian    0.10
     67 x          8.856922      8.856596    -0.000325    Cartesian   -0.00
     67 y          6.642691      6.638895    -0.003796    Cartesian   -0.06
     67 z         11.071152     11.069625    -0.001527    Cartesian   -0.01
     68 x         13.285383     13.284262    -0.001120    Cartesian   -0.01
     68 y          6.642691      6.635813    -0.006878    Cartesian   -0.10
     68 z          6.642691      6.645795     0.003104    Cartesian    0.05
     69 x          2.214230      2.214230     0.000000    Cartesian    0.00
     69 y         15.499613     15.434468    -0.065145    Cartesian   -0.42
     69 z          4.428461      4.426078    -0.002383    Cartesian   -0.05
     70 x          6.642691      6.631693    -0.010998    Cartesian   -0.17
     70 y         15.499613     15.498619    -0.000994    Cartesian   -0.01
     70 z          0.000000      0.000000     0.000000    Cartesian    0.00
     71 x          2.214230      2.214230     0.000000    Cartesian    0.00
     71 y          6.642691      6.618063    -0.024628    Cartesian   -0.37
     71 z         13.285383     13.281499    -0.003883    Cartesian   -0.03
     72 x          6.642691      6.643056     0.000364    Cartesian    0.01
     72 y         15.499613     15.500748     0.001135    Cartesian    0.01
     72 z         -2.214230     -2.214770    -0.000540    Cartesian    0.02
     73 x         11.071152     11.074155     0.003003    Cartesian    0.03
     73 y         11.071152     11.074155     0.003003    Cartesian    0.03
     73 z          6.642691      6.643788     0.001096    Cartesian    0.02
     74 x          2.214230      2.214230     0.000000    Cartesian    0.00
     74 y         11.071152     11.069290    -0.001862    Cartesian   -0.02
     74 z         11.071152     11.070793    -0.000359    Cartesian   -0.00
     75 x          4.428461      4.431117     0.002656    Cartesian    0.06
     75 y         13.285383     13.301791     0.016408    Cartesian    0.12
     75 z          8.856922      8.863613     0.006692    Cartesian    0.08
     76 x          4.428461      4.428665     0.000204    Cartesian    0.00
     76 y         11.071152     11.073354     0.002201    Cartesian    0.02
     76 z         11.071152     11.055352    -0.015800    Cartesian   -0.14
     77 x         13.285383     13.283255    -0.002127    Cartesian   -0.02
     77 y         11.071152     11.064208    -0.006944    Cartesian   -0.06
     77 z         -2.214230     -2.207089     0.007141    Cartesian   -0.32
     78 x          6.642691      6.643606     0.000915    Cartesian    0.01
     78 y         15.499613     15.486892    -0.012721    Cartesian   -0.08
     78 z          4.428461      4.428362    -0.000099    Cartesian   -0.00
     79 x          6.642691      6.634983    -0.007709    Cartesian   -0.12
     79 y          6.642691      6.634983    -0.007709    Cartesian   -0.12
     79 z         13.285383     13.282212    -0.003170    Cartesian   -0.02
     80 x          2.214230      2.214230     0.000000    Cartesian    0.00
     80 y         15.499613     15.496503    -0.003110    Cartesian   -0.02
     80 z          6.642691      6.646682     0.003991    Cartesian    0.06
     81 x          6.642691      6.644034     0.001343    Cartesian    0.02
     81 y         11.071152     11.073732     0.002580    Cartesian    0.02
     81 z         11.071152     11.073520     0.002368    Cartesian    0.02
     82 x          2.214230      2.214230     0.000000    Cartesian    0.00
     82 y          2.214230      2.214230     0.000000    Cartesian    0.00
     82 z         -2.214230     -2.297804    -0.083574    Cartesian    3.77
     83 x          4.428461      4.555178     0.126717    Cartesian    2.86
     83 y          4.428461      4.555178     0.126717    Cartesian    2.86
     83 z          0.000000      0.000000     0.000000    Cartesian    0.00
     84 x          2.214230      2.214230     0.000000    Cartesian    0.00
     84 y          6.642691      6.616885    -0.025806    Cartesian   -0.39
     84 z         -2.214230     -2.199498     0.014733    Cartesian   -0.67
     85 x          4.428461      4.507818     0.079357    Cartesian    1.79
     85 y          4.428461      4.507818     0.079357    Cartesian    1.79
     85 z          4.428461      4.532072     0.103611    Cartesian    2.34
     86 x          6.642691      6.646965     0.004274    Cartesian    0.06
     86 y          6.642691      6.646965     0.004274    Cartesian    0.06
     86 z         -2.214230     -2.220911    -0.006681    Cartesian    0.30
     87 x          2.214230      2.214230     0.000000    Cartesian    0.00
     87 y          2.214230      2.214230     0.000000    Cartesian    0.00
     87 z          6.642691      6.683634     0.040943    Cartesian    0.62
     88 x          4.428461      4.453261     0.024800    Cartesian    0.56
     88 y          8.856922      8.882702     0.025780    Cartesian    0.29
     88 z          0.000000      0.000000     0.000000    Cartesian    0.00
     89 x          2.214230      2.214230     0.000000    Cartesian    0.00
     89 y          6.642691      6.637462    -0.005230    Cartesian   -0.08
     89 z          6.642691      6.622217    -0.020474    Cartesian   -0.31
     90 x          4.428461      4.452919     0.024458    Cartesian    0.55
     90 y          8.856922      8.893294     0.036372    Cartesian    0.41
     90 z          4.428461      4.435566     0.007105    Cartesian    0.16
     91 x          2.214230      2.214230     0.000000    Cartesian    0.00
     91 y         11.071152     11.050708    -0.020444    Cartesian   -0.18
     91 z         -2.214230     -2.214202     0.000028    Cartesian   -0.00
     92 x          6.642691      6.651117     0.008426    Cartesian    0.13
     92 y          6.642691      6.651117     0.008426    Cartesian    0.13
     92 z          6.642691      6.648711     0.006020    Cartesian    0.09
     93 x          4.428461      4.424982    -0.003479    Cartesian   -0.08
     93 y          4.428461      4.424982    -0.003479    Cartesian   -0.08
     93 z          8.856922      8.884576     0.027654    Cartesian    0.31
     94 x          8.856922      8.875185     0.018263    Cartesian    0.21
     94 y          8.856922      8.875185     0.018263    Cartesian    0.21
     94 z          0.000000      0.000000     0.000000    Cartesian    0.00
     95 x          6.642691      6.643828     0.001137    Cartesian    0.02
     95 y         11.071152     11.072229     0.001077    Cartesian    0.01
     95 z         -2.214230     -2.214170     0.000060    Cartesian   -0.00
     96 x          8.856922      8.876020     0.019098    Cartesian    0.22
     96 y          8.856922      8.876020     0.019098    Cartesian    0.22
     96 z          4.428461      4.439627     0.011166    Cartesian    0.25
     97 x          2.214230      2.214230     0.000000    Cartesian    0.00
     97 y         11.071152     11.068060    -0.003092    Cartesian   -0.03
     97 z          6.642691      6.633615    -0.009076    Cartesian   -0.14
     98 x          2.214230      2.214230     0.000000    Cartesian    0.00
     98 y          2.214230      2.214230     0.000000    Cartesian    0.00
     98 z         11.071152     11.078098     0.006946    Cartesian    0.06
     99 x          4.428461      4.438693     0.010232    Cartesian    0.23
     99 y          8.856922      8.870171     0.013249    Cartesian    0.15
     99 z          8.856922      8.877700     0.020778    Cartesian    0.23
    100 x          4.428461      4.434994     0.006533    Cartesian    0.15
    100 y         13.285383     13.304046     0.018664    Cartesian    0.14
    100 z          0.000000      0.000000     0.000000    Cartesian    0.00
    101 x          6.642691      6.643633     0.000942    Cartesian    0.01
    101 y         11.071152     11.073706     0.002554    Cartesian    0.02
    101 z          6.642691      6.644616     0.001925    Cartesian    0.03
    102 x          2.214230      2.214230     0.000000    Cartesian    0.00
    102 y          6.642691      6.648090     0.005399    Cartesian    0.08
    102 z         11.071152     11.065197    -0.005955    Cartesian   -0.05
    103 x          4.428461      4.432550     0.004089    Cartesian    0.09
    103 y         13.285383     13.295891     0.010508    Cartesian    0.08
    103 z          4.428461      4.433386     0.004925    Cartesian    0.11
    104 x         11.071152     11.070727    -0.000425    Cartesian   -0.00
    104 y         11.071152     11.070727    -0.000425    Cartesian   -0.00
    104 z         -2.214230     -2.215461    -0.001230    Cartesian    0.06
    105 x          6.642691      6.642447    -0.000245    Cartesian   -0.00
    105 y          6.642691      6.642447    -0.000245    Cartesian   -0.00
    105 z         11.071152     11.070405    -0.000747    Cartesian   -0.01
    106 x          8.856922      8.868209     0.011287    Cartesian    0.13
    106 y          8.856922      8.868209     0.011287    Cartesian    0.13
    106 z          8.856922      8.869559     0.012637    Cartesian    0.14
    107 x          8.856922      8.863236     0.006315    Cartesian    0.07
    107 y         13.285383     13.298001     0.012618    Cartesian    0.09
    107 z          0.000000      0.000000     0.000000    Cartesian    0.00
    108 x          2.214230      2.214230     0.000000    Cartesian    0.00
    108 y         15.499613     15.492994    -0.006619    Cartesian   -0.04
    108 z         -2.214230     -2.206641     0.007589    Cartesian   -0.34
    109 x          4.428461      4.433304     0.004843    Cartesian    0.11
    109 y          4.428461      4.433304     0.004843    Cartesian    0.11
    109 z         13.285383     13.304381     0.018998    Cartesian    0.14
    110 x          8.856922      8.864782     0.007861    Cartesian    0.09
    110 y         13.285383     13.297935     0.012553    Cartesian    0.09
    110 z          4.428461      4.432957     0.004496    Cartesian    0.10
    111 x          6.642691      6.643087     0.000395    Cartesian    0.01
    111 y         15.499613     15.500830     0.001217    Cartesian    0.01
    111 z         -2.214230     -2.214837    -0.000606    Cartesian    0.03
    112 x         11.071152     11.074404     0.003251    Cartesian    0.03
    112 y         11.071152     11.074404     0.003251    Cartesian    0.03
    112 z          6.642691      6.643768     0.001076    Cartesian    0.02
    113 x          2.214230      2.214230     0.000000    Cartesian    0.00
    113 y         11.071152     11.068674    -0.002478    Cartesian   -0.02
    113 z         11.071152     11.071391     0.000239    Cartesian    0.00
    114 x          4.428461      4.431130     0.002669    Cartesian    0.06
    114 y         13.285383     13.302684     0.017302    Cartesian    0.13
    114 z          8.856922      8.863595     0.006673    Cartesian    0.08
    115 x          2.214230      2.214230     0.000000    Cartesian    0.00
    115 y         15.499613     15.496228    -0.003385    Cartesian   -0.02
    115 z          6.642691      6.647732     0.005040    Cartesian    0.08
    116 x          6.642691      6.644181     0.001490    Cartesian    0.02
    116 y         11.071152     11.073969     0.002817    Cartesian    0.03
    116 z         11.071152     11.073649     0.002497    Cartesian    0.02
--------------------------------------------------------------------------------


  Time to end of optimisation  =       36.0768 seconds


  Peak dynamic memory used =     216.97 MB 


  Timing analysis for GULP :

--------------------------------------------------------------------------------
  Task / Subroutine                                          Time (Seconds)
--------------------------------------------------------------------------------
  Calculation of reciprocal space energy and derivatives          0.0003
  Calculation of reciprocal space energy using symmetry           0.0006
  Calculation of real space energy and derivatives                0.0019
  Calculation of real space energy using symmetry                 0.0062
  Calculation for region 1 energy and derivatives (2-b)          16.1992
  Calculation for region 2a energy                               18.2699
  Calculation for region 2b energy                                0.0002
  Calculation and manipulation of Hessian matrix                  1.3944
  Calculation of matrix inversion                                 0.0286
  Symmetry generation of equivalent positions                     0.0026
--------------------------------------------------------------------------------
  Total CPU time                                                 36.0769
--------------------------------------------------------------------------------


  Dump file written as Na3OCl.grs


  Job Finished at 16:23.06  5th July       2021                               

