********************************************************************************
*                       GENERAL UTILITY LATTICE PROGRAM                        *
*                                 Julian Gale                                  *
*                       Curtin Institute for Computation                       *
*                    School of Molecular and Life Sciences                     *
*                    Curtin University, Western Australia                      *
********************************************************************************
* Version = 5.2.0 * Last modified =  10th September 2020                       *
********************************************************************************
*  optimise     - perform optimisation run                                     *
*  conp         - constant pressure calculation                                *
*  property     - calculate properties for final geometry                      *
*  defect       - perform defect calculation after bulk run                    *
*  compare      - compare initial and final structures                         *
********************************************************************************

  Job Started  at 16:12.32 26th November   2020                               

  Number of CPUs =     1


  Total number of configurations input =      1

********************************************************************************
*  Input for Configuration =   1                                               *
********************************************************************************

  Formula = ClONa3                                                      

  Number of irreducible atoms/shells =       5


  Total number atoms/shells =       7

  Dimensionality = 3               :  Bulk   


  Symmetry :

  Crystal family                   :  Cubic       
  Crystal class  (Groth - 1921)    :  Cubic Hexakisoctahedral              

  Space group (centrosymmetric)    :  P M 3 M         

  Patterson group                  :  P m -3 m 

  Cartesian lattice vectors (Angstroms) :

        4.504000    0.000000    0.000000
        0.000000    4.504000    0.000000
        0.000000    0.000000    4.504000

  Cell parameters (Angstroms/Degrees):

  a =       4.5040    alpha =  90.0000
  b =       4.5040    beta  =  90.0000
  c =       4.5040    gamma =  90.0000

  Initial cell volume =          91.368216 Angs**3

  Temperature of configuration =   0.00     K 

  Pressure of configuration =         0.000 GPa 

  Fractional coordinates of asymmetric unit :

--------------------------------------------------------------------------------
   No.  Atomic       x           y          z         Charge      Occupancy
        Label      (Frac)      (Frac)     (Frac)        (e)         (Frac)  
--------------------------------------------------------------------------------
      1 Cl    c    0.000000    0.000000    0.000000     1.48500    1.000000    
      2 O     c    0.500000    0.500000    0.500000     0.18300    1.000000    
      3 Na    c    0.500000    0.500000    0.000000     1.00000    1.000000    
      4 Cl    s    0.000000    0.000000    0.000000    -2.48500    1.000000    
      5 O     s    0.500000    0.500000    0.500000    -2.18300    1.000000    
--------------------------------------------------------------------------------


  Constraints : 

--------------------------------------------------------------------------------
  Constraint no.      Unconstrained     Constrained    Coefficient    Offset
                         Variable         Variable
--------------------------------------------------------------------------------
           1              Strain 1        Strain 2       1.00000      0.0000
           2              Strain 1        Strain 3       1.00000      0.0000
--------------------------------------------------------------------------------


********************************************************************************
*  General input information                                                   *
********************************************************************************

  Species output for all configurations : 

--------------------------------------------------------------------------------
  Species    Type    Atomic    Atomic    Charge       Radii (Angs)     Library
                     Number     Mass       (e)     Cova   Ionic  VDW   Symbol
--------------------------------------------------------------------------------
    Na       Core       11      22.99   1.000000   0.970  0.000  2.300          
    O        Core        8      16.00   0.183000   0.730  0.000  1.360          
    O        Shell       8       0.00  -2.183000   0.730  0.000  1.360          
    Cl       Core       17      35.45   1.485000   0.990  0.000  1.650          
    Cl       Shell      17       0.00  -2.485000   0.990  0.000  1.650          
--------------------------------------------------------------------------------


  Lattice summation method               =    Ewald          (3-D)
                                         =    Parry          (2-D)
                                         =    Saunders et al (1-D)
  Accuracy factor for lattice sums       =   12.000


  Analytic derivatives to be used

  Time limit = Infinity

  Maximum range for interatomic potentials =    100000.000000 Angstroms

  General interatomic potentials :

--------------------------------------------------------------------------------
Atom  Types   Potential      Parameter       Value         Units   Cutoffs(Ang)
  1     2                                                            Min /  Max 
--------------------------------------------------------------------------------
O    c O    s Spring (c-s)  Spring k 2       593.72000    eV*Ang^-2 0.000  0.800
                            Spring k 4       0.0000000    eV*Ang^-4 
--------------------------------------------------------------------------------
Cl   c Cl   s Spring (c-s)  Spring k 2       29.380000    eV*Ang^-2 0.000  0.800
                            Spring k 4       0.0000000    eV*Ang^-4 
--------------------------------------------------------------------------------
Na   c Na   c Buckingham    Buckingham A     1788.1900    eV        0.000 12.000
                            Buckingham rho  0.15900000    Ang       
                            Buckingham C     0.0000000    eV*Ang^6  
--------------------------------------------------------------------------------
Na   c O    s Buckingham    Buckingham A     1226.8400    eV        0.000 12.000
                            Buckingham rho  0.30700000    Ang       
                            Buckingham C     0.0000000    eV*Ang^6  
--------------------------------------------------------------------------------
Na   c Cl   s Buckingham    Buckingham A     2314.7000    eV        0.000 12.000
                            Buckingham rho  0.29000000    Ang       
                            Buckingham C     0.0000000    eV*Ang^6  
--------------------------------------------------------------------------------
O    s O    s Buckingham    Buckingham A     22764.300    eV        0.000 12.000
                            Buckingham rho  0.14900000    Ang       
                            Buckingham C     13.190000    eV*Ang^6  
--------------------------------------------------------------------------------
O    s Cl   s Buckingham    Buckingham A     8286.9100    eV        0.000 12.000
                            Buckingham rho  0.25900000    Ang       
                            Buckingham C     62.200000    eV*Ang^6  
--------------------------------------------------------------------------------
Cl   s Cl   s Buckingham    Buckingham A     1227.2000    eV        0.000 12.000
                            Buckingham rho  0.32100000    Ang       
                            Buckingham C     14.530000    eV*Ang^6  
--------------------------------------------------------------------------------

********************************************************************************
*  Output for configuration   1                                                *
********************************************************************************


  Components of energy : 

--------------------------------------------------------------------------------
  Interatomic potentials     =           5.13022605 eV    
  Monopole - monopole (real) =         -10.03624526 eV    
  Monopole - monopole (recip)=         -29.53581274 eV    
  Monopole - monopole (total)=         -39.57205800 eV    
--------------------------------------------------------------------------------
  Total lattice energy       =         -34.44183194 eV    
--------------------------------------------------------------------------------
  Total lattice energy       =           -3323.1103 kJ/(mole unit cells)
--------------------------------------------------------------------------------


  Number of variables =        1

  Maximum number of calculations  =          1000
  Maximum Hessian update interval =            10
  Maximum step size               =   1.000000000
  Maximum parameter tolerance     =   0.000010000
  Maximum function  tolerance     =   0.000010000
  Maximum gradient  tolerance     =   0.001000000
  Maximum gradient  component     =   0.010000000

  Symmetry constrained optimisation

  Symmetry used for second derivatives

  Cell parameters to be optimised using strains

  Newton-Raphson optimiser to be used

  BFGS hessian update to be used

  Lower half triangular hessian to be used

  Start of bulk optimisation :

  Cycle:      0 Energy:       -34.441832  Gnorm:      0.196570  CPU:    0.017
  ** Hessian calculated **
  Cycle:      1 Energy:       -34.441914  Gnorm:      0.000103  CPU:    0.021


  **** Optimisation achieved ****


  Final energy =     -34.44191447 eV
  Final Gnorm  =       0.00000000

  Components of energy : 

--------------------------------------------------------------------------------
  Interatomic potentials     =           5.09689708 eV    
  Monopole - monopole (real) =         -10.02781331 eV    
  Monopole - monopole (recip)=         -29.51099824 eV    
  Monopole - monopole (total)=         -39.53881155 eV    
--------------------------------------------------------------------------------
  Total lattice energy       =         -34.44191447 eV    
--------------------------------------------------------------------------------
  Total lattice energy       =           -3323.1183 kJ/(mole unit cells)
--------------------------------------------------------------------------------

  Final asymmetric unit coordinates :

--------------------------------------------------------------------------------
   No.  Atomic        x           y           z         Radius
        Label       (Frac)      (Frac)      (Frac)       (Angs) 
--------------------------------------------------------------------------------
     1  Cl    c     0.000000    0.000000    0.000000    0.000000
     2  O     c     0.500000    0.500000    0.500000    0.000000
     3  Na    c     0.500000    0.500000    0.000000    0.000000
     4  Cl    s     0.000000    0.000000    0.000000    0.000000
     5  O     s     0.500000    0.500000    0.500000    0.000000
--------------------------------------------------------------------------------

  Final Cartesian lattice vectors (Angstroms) :

        4.507787    0.000000    0.000000
        0.000000    4.507787    0.000000
        0.000000    0.000000    4.507787


  Final cell parameters and derivatives :

--------------------------------------------------------------------------------
       a            4.507787 Angstrom     dE/de1(xx)     0.000000 eV/strain
       b            4.507787 Angstrom     dE/de2(yy)     0.000000 eV/strain
       c            4.507787 Angstrom     dE/de3(zz)     0.000000 eV/strain
       alpha       90.000000 Degrees      dE/de4(yz)     0.000000 eV/strain
       beta        90.000000 Degrees      dE/de5(xz)     0.000000 eV/strain
       gamma       90.000000 Degrees      dE/de6(xy)     0.000000 eV/strain
--------------------------------------------------------------------------------

  Primitive cell volume =            91.598892 Angs**3

  Density of cell =      2.183054 g/cm**3

  Non-primitive cell volume =            91.598892 Angs**3


  Final internal derivatives :

--------------------------------------------------------------------------------
   No.  Atomic          a             b             c           Radius
        Label          (eV)          (eV)          (eV)        (eV/Angs)
--------------------------------------------------------------------------------
      1 Cl    c       0.000000      0.000000      0.000000      0.000000
      2 O     c       0.000000      0.000000      0.000000      0.000000
      3 Na    c       0.000000      0.000000      0.000000      0.000000
      4 Cl    s       0.000000      0.000000      0.000000      0.000000
      5 O     s       0.000000      0.000000      0.000000      0.000000
--------------------------------------------------------------------------------
  Maximum abs         0.000000      0.000000      0.000000      0.000000
--------------------------------------------------------------------------------

  Comparison of initial and final structures : 

--------------------------------------------------------------------------------
  Parameter   Initial value   Final value   Difference    Units      Percent
--------------------------------------------------------------------------------
    Volume        91.368216     91.598892     0.230676    Angs**3      0.25
    a              4.504000      4.507787     0.003787    Angstroms    0.08
    b              4.504000      4.507787     0.003787    Angstroms    0.08
    c              4.504000      4.507787     0.003787    Angstroms    0.08
    alpha         90.000000     90.000000     0.000000    Degrees      0.00
    beta          90.000000     90.000000     0.000000    Degrees      0.00
    gamma         90.000000     90.000000     0.000000    Degrees      0.00
      1 x          0.000000      0.000000     0.000000    Fractional   0.00
      1 y          0.000000      0.000000     0.000000    Fractional   0.00
      1 z          0.000000      0.000000     0.000000    Fractional   0.00
      2 x          0.500000      0.500000     0.000000    Fractional   0.00
      2 y          0.500000      0.500000     0.000000    Fractional   0.00
      2 z          0.500000      0.500000     0.000000    Fractional   0.00
      3 x          0.500000      0.500000     0.000000    Fractional   0.00
      3 y          0.500000      0.500000     0.000000    Fractional   0.00
      3 z          0.000000      0.000000     0.000000    Fractional   0.00
      4 x          0.000000      0.000000     0.000000    Fractional   0.00
      4 y          0.000000      0.000000     0.000000    Fractional   0.00
      4 z          0.000000      0.000000     0.000000    Fractional   0.00
      5 x          0.500000      0.500000     0.000000    Fractional   0.00
      5 y          0.500000      0.500000     0.000000    Fractional   0.00
      5 z          0.500000      0.500000     0.000000    Fractional   0.00
--------------------------------------------------------------------------------


  Born effective charge tensors : 

-------------------------------------------------------------------------------
  Atom             x           y             z
-------------------------------------------------------------------------------
    1 Cl    x      -1.0181     -0.0000      0.0000
            y      -0.0000     -1.0181      0.0000
            z       0.0000      0.0000     -1.0181
-------------------------------------------------------------------------------
    2 O     x      -2.2647      0.0000     -0.0000
            y       0.0000     -2.2647     -0.0000
            z      -0.0000     -0.0000     -2.2647
-------------------------------------------------------------------------------
    3 Na    x       1.2258     -0.0000      0.0000
            y      -0.0000      1.2258     -0.0000
            z       0.0000     -0.0000      0.8313
-------------------------------------------------------------------------------




  Elastic Constant Matrix: (Units=GPa)

-------------------------------------------------------------------------------
  Indices      1         2         3         4         5         6    
-------------------------------------------------------------------------------
       1     95.8177   20.0737   20.0737   -0.0000   -0.0000    0.0000
       2     20.0737   95.8177   20.0737   -0.0000   -0.0000    0.0000
       3     20.0737   20.0737   95.8177   -0.0000   -0.0000    0.0000
       4     -0.0000   -0.0000   -0.0000   20.0737   -0.0000    0.0000
       5     -0.0000   -0.0000   -0.0000   -0.0000   20.0737    0.0000
       6      0.0000    0.0000    0.0000    0.0000    0.0000   20.0737
-------------------------------------------------------------------------------


  Elastic Compliance Matrix: (Units=1/GPa)

-------------------------------------------------------------------------------
  Indices      1         2         3         4         5         6    
-------------------------------------------------------------------------------
       1    0.011253 -0.001949 -0.001949  0.000000  0.000000 -0.000000
       2   -0.001949  0.011253 -0.001949  0.000000  0.000000  0.000000
       3   -0.001949 -0.001949  0.011253  0.000000  0.000000 -0.000000
       4    0.000000  0.000000  0.000000  0.049816  0.000000 -0.000000
       5    0.000000  0.000000  0.000000  0.000000  0.049816 -0.000000
       6   -0.000000  0.000000 -0.000000 -0.000000 -0.000000  0.049816
-------------------------------------------------------------------------------

  Mechanical properties :

-------------------------------------------------------------------------------
  Convention :                    Reuss         Voigt         Hill
-------------------------------------------------------------------------------
  Bulk  Modulus (GPa)     =      45.32174      45.32174      45.32174
  Shear Modulus (GPa)     =      24.72085      27.19304      25.95695
-------------------------------------------------------------------------------
  Velocity S-wave (km/s)  =       3.36511       3.52937       3.44822
  Velocity P-wave (km/s)  =       5.98827       6.11304       6.05098
-------------------------------------------------------------------------------
  Compressibility (1/GPa) =    0.02206447
-------------------------------------------------------------------------------
  Stress axis :                     x             y             z
-------------------------------------------------------------------------------
  Youngs Moduli (GPa)     =      88.86373      88.86373      88.86373
-------------------------------------------------------------------------------
  Poissons Ratio (x)      =                     0.17321       0.17321
  Poissons Ratio (y)      =       0.17321                     0.17321
  Poissons Ratio (z)      =       0.17321       0.17321
-------------------------------------------------------------------------------


  Piezoelectric Strain Matrix: (Units=C/m**2)

-------------------------------------------------------------------------------
  Indices      1         2         3         4         5         6    
-------------------------------------------------------------------------------
       x    -0.00000  -0.00000  -0.00000   0.00000  -0.00000  -0.00000
       y    -0.00000  -0.00000   0.00000  -0.00000   0.00000   0.00000
       z    -0.00000  -0.00000  -0.00000  -0.00000   0.00000   0.00000
-------------------------------------------------------------------------------


  Piezoelectric Stress Matrix: (Units=10**-11 C/N)

-------------------------------------------------------------------------------
  Indices      1         2         3         4         5         6    
-------------------------------------------------------------------------------
       x    -0.00000   0.00000   0.00000   0.00000  -0.00000  -0.00000
       y    -0.00000  -0.00000   0.00000  -0.00000   0.00000   0.00000
       z     0.00000   0.00000  -0.00000  -0.00000   0.00000   0.00000
-------------------------------------------------------------------------------


  Static dielectric constant tensor : 

-------------------------------------------------------------------------------
              x         y         z
-------------------------------------------------------------------------------
       x    22.84729   0.00000   0.00000
       y     0.00000  22.84729  -0.00000
       z     0.00000  -0.00000  22.84729
--------------------------------------------------------------------------------

  High frequency dielectric constant tensor : 

-------------------------------------------------------------------------------
              x         y         z
-------------------------------------------------------------------------------
       x     1.47557   0.00000  -0.00000
       y     0.00000   1.47557  -0.00000
       z    -0.00000  -0.00000   1.47557
-------------------------------------------------------------------------------

  Static refractive indices : 

-------------------------------------------------------------------------------
    1 =    4.77988      2 =    4.77988      3 =    4.77988
-------------------------------------------------------------------------------

  High frequency refractive indices : 

-------------------------------------------------------------------------------
    1 =    1.21473      2 =    1.21473      3 =    1.21473
-------------------------------------------------------------------------------


  Time to end of optimisation =       0.0317 seconds

********************************************************************************
*  Defect calculation for configuration   1 :                                  *
********************************************************************************

  Total number of defects =      3

  Total charge on defect  =  -1.00

  Defect centre is at   0.5000   0.1700   0.3300  Frac

  Region 1 radius =  12.0000      Number of ions =    553

  Number of symmetry inequivalent region 1 ions  =    319

  Region 2 radius =  16.0000      Number of ions =    768

  Number of symmetry inequivalent region 2a ions =    420

  Region 2a mode = 4 : screened electrostatics due to region 1 
                       neglect correction to region 1 forces from 2a
                       region 2a displacements based on defects only

  Region 2a ions will only interact with defects in region 1

  Vacancies:

--------------------------------------------------------------------------------
    Specification type     Symbol/Number         x          y          z
--------------------------------------------------------------------------------
    Fractional                               0.500000   0.500000   0.000000
    Fractional                               0.500000   0.000000   0.500000
--------------------------------------------------------------------------------

  Interstitials:

--------------------------------------------------------------------------------
    Specification type     Symbol/Number         x          y          z
--------------------------------------------------------------------------------
    Atom/Fractional         Na               0.500000   0.170000   0.330000
--------------------------------------------------------------------------------


  Symmetry reduced region 1 (Relative to defect centre) :

--------------------------------------------------------------------------------
   No.   Atomic       x            y             z       Radius  Multiplicity   
         Label      (Angs)       (Angs)        (Angs)    (Angs)     
--------------------------------------------------------------------------------
     1  Na    c      0.0000       0.0000       0.0000 *  0.0000     1    Defect
     2  O     c      0.0000       1.4876 *     0.7663 *  0.0000     1          
     3  Na    c      2.2539 *     1.4876 *     0.7663 *  0.0000     2          
     4  Cl    c      2.2539 *    -0.7663 *    -1.4876 *  0.0000     2          
     5  O     c      0.0000      -3.0202 *     0.7663 *  0.0000     1          
     6  Na    c      0.0000       1.4876 *     3.0202 *  0.0000     1          
     7  Na    c      0.0000      -3.0202 *    -1.4876 *  0.0000     1          
     8  Na    c      0.0000      -0.7663 *    -3.7415 *  0.0000     1          
     9  Na    c      0.0000       3.7415 *     0.7663 *  0.0000     1          
    10  Cl    c      2.2539 *    -0.7663 *     3.0202 *  0.0000     2          
    11  Na    c      2.2539 *    -3.0202 *     0.7663 *  0.0000     2          
    12  O     c      0.0000       1.4876 *    -3.7415 *  0.0000     1          
    13  Na    c      0.0000      -3.0202 *     3.0202 *  0.0000     1          
    14  Na    c      2.2539 *     1.4876 *    -3.7415 *  0.0000     2          
    15  Cl    c      2.2539 *     3.7415 *    -1.4876 *  0.0000     2          
    16  Na    c     -4.5078 *    -0.7663 *     0.7663 *  0.0000     2          
    17  O     c     -4.5078 *     1.4876 *     0.7663 *  0.0000     2          
    18  O     c      0.0000      -3.0202 *    -3.7415 *  0.0000     1          
    19  Na    c     -4.5078 *     1.4876 *    -1.4876 *  0.0000     2          
    20  Na    c      0.0000       3.7415 *    -3.7415 *  0.0000     1          
    21  Cl    c      2.2539 *     3.7415 *     3.0202 *  0.0000     2          
    22  Na    c      2.2539 *    -3.0202 *    -3.7415 *  0.0000     2          
    23  Na    c      0.0000      -0.7663 *     5.2741 *  0.0000     1          
    24  Na    c      0.0000      -5.2741 *     0.7663 *  0.0000     1          
    25  O     c      0.0000       1.4876 *     5.2741 *  0.0000     1          
    26  O     c     -4.5078 *    -3.0202 *     0.7663 *  0.0000     2          
    27  Na    c     -4.5078 *     1.4876 *     3.0202 *  0.0000     2          
    28  Na    c     -4.5078 *    -3.0202 *    -1.4876 *  0.0000     2          
    29  Na    c     -4.5078 *     3.7415 *     0.7663 *  0.0000     2          
    30  Na    c     -4.5078 *    -0.7663 *    -3.7415 *  0.0000     2          
    31  Na    c      2.2539 *     1.4876 *     5.2741 *  0.0000     2          
    32  Cl    c      2.2539 *    -5.2741 *    -1.4876 *  0.0000     2          
    33  O     c      0.0000       5.9954 *     0.7663 *  0.0000     1          
    34  O     c     -4.5078 *     1.4876 *    -3.7415 *  0.0000     2          
    35  O     c      0.0000      -3.0202 *     5.2741 *  0.0000     1          
    36  Na    c      0.0000       5.9954 *    -1.4876 *  0.0000     1          
    37  Na    c      0.0000       1.4876 *    -5.9954 *  0.0000     1          
    38  Na    c     -4.5078 *    -3.0202 *     3.0202 *  0.0000     2          
    39  Na    c      2.2539 *     5.9954 *     0.7663 *  0.0000     2          
    40  Cl    c      2.2539 *    -0.7663 *    -5.9954 *  0.0000     2          
    41  Na    c      0.0000       3.7415 *     5.2741 *  0.0000     1          
    42  Na    c      0.0000      -5.2741 *    -3.7415 *  0.0000     1          
    43  Cl    c      2.2539 *    -5.2741 *     3.0202 *  0.0000     2          
    44  Na    c      2.2539 *    -3.0202 *     5.2741 *  0.0000     2          
    45  O     c     -4.5078 *    -3.0202 *    -3.7415 *  0.0000     2          
    46  Na    c      0.0000       5.9954 *     3.0202 *  0.0000     1          
    47  Na    c      0.0000      -3.0202 *    -5.9954 *  0.0000     1          
    48  Na    c     -4.5078 *     3.7415 *    -3.7415 *  0.0000     2          
    49  Cl    c      6.7617 *    -0.7663 *    -1.4876 *  0.0000     2          
    50  Na    c      6.7617 *     1.4876 *     0.7663 *  0.0000     2          
    51  Na    c     -4.5078 *    -0.7663 *     5.2741 *  0.0000     2          
    52  Na    c     -4.5078 *    -5.2741 *     0.7663 *  0.0000     2          
    53  O     c      0.0000       5.9954 *    -3.7415 *  0.0000     1          
    54  O     c      4.5078 *     1.4876 *     5.2741 *  0.0000     2          
    55  Na    c      2.2539 *     5.9954 *    -3.7415 *  0.0000     2          
    56  Cl    c      2.2539 *     3.7415 *    -5.9954 *  0.0000     2          
    57  Cl    c      6.7617 *    -0.7663 *     3.0202 *  0.0000     2          
    58  Na    c      6.7617 *    -3.0202 *     0.7663 *  0.0000     2          
    59  Na    c      0.0000      -5.2741 *     5.2741 *  0.0000     1          
    60  O     c     -4.5078 *     5.9954 *     0.7663 *  0.0000     2          
    61  O     c      0.0000      -7.5280 *     0.7663 *  0.0000     1          
    62  O     c      4.5078 *    -3.0202 *     5.2741 *  0.0000     2          
    63  Na    c     -4.5078 *     5.9954 *    -1.4876 *  0.0000     2          
    64  Na    c      4.5078 *     1.4876 *    -5.9954 *  0.0000     2          
    65  Na    c      0.0000       1.4876 *     7.5280 *  0.0000     1          
    66  Na    c      0.0000      -7.5280 *    -1.4876 *  0.0000     1          
    67  Cl    c      6.7617 *     3.7415 *    -1.4876 *  0.0000     2          
    68  Na    c      6.7617 *     1.4876 *    -3.7415 *  0.0000     2          
    69  Na    c      4.5078 *     3.7415 *     5.2741 *  0.0000     2          
    70  Na    c     -4.5078 *    -5.2741 *    -3.7415 *  0.0000     2          
    71  Cl    c      2.2539 *    -0.7663 *     7.5280 *  0.0000     2          
    72  Na    c      2.2539 *    -7.5280 *     0.7663 *  0.0000     2          
    73  O     c      0.0000       5.9954 *     5.2741 *  0.0000     1          
    74  Na    c     -4.5078 *     5.9954 *     3.0202 *  0.0000     2          
    75  Na    c     -4.5078 *    -3.0202 *    -5.9954 *  0.0000     2          
    76  Na    c      0.0000      -3.0202 *     7.5280 *  0.0000     1          
    77  Na    c      0.0000      -7.5280 *     3.0202 *  0.0000     1          
    78  Na    c      0.0000      -0.7663 *    -8.2493 *  0.0000     1          
    79  Na    c      0.0000       8.2493 *     0.7663 *  0.0000     1          
    80  Na    c      2.2539 *     5.9954 *     5.2741 *  0.0000     2          
    81  Cl    c      2.2539 *    -5.2741 *    -5.9954 *  0.0000     2          
    82  Cl    c      6.7617 *     3.7415 *     3.0202 *  0.0000     2          
    83  Na    c      6.7617 *    -3.0202 *    -3.7415 *  0.0000     2          
    84  O     c     -4.5078 *     5.9954 *    -3.7415 *  0.0000     2          
    85  O     c      0.0000       1.4876 *    -8.2493 *  0.0000     1          
    86  O     c      0.0000      -7.5280 *    -3.7415 *  0.0000     1          
    87  Na    c      0.0000       5.9954 *    -5.9954 *  0.0000     1          
    88  Na    c      2.2539 *     1.4876 *    -8.2493 *  0.0000     2          
    89  Cl    c      2.2539 *     8.2493 *    -1.4876 *  0.0000     2          
    90  Cl    c      2.2539 *     3.7415 *     7.5280 *  0.0000     2          
    91  Cl    c      6.7617 *    -5.2741 *    -1.4876 *  0.0000     2          
    92  Na    c      2.2539 *    -7.5280 *    -3.7415 *  0.0000     2          
    93  Na    c      6.7617 *     1.4876 *     5.2741 *  0.0000     2          
    94  Na    c      4.5078 *    -5.2741 *     5.2741 *  0.0000     2          
    95  O     c      0.0000      -3.0202 *    -8.2493 *  0.0000     1          
    96  O     c      4.5078 *    -7.5280 *     0.7663 *  0.0000     2          
    97  Na    c     -4.5078 *     1.4876 *     7.5280 *  0.0000     2          
    98  Na    c      4.5078 *    -7.5280 *    -1.4876 *  0.0000     2          
    99  Na    c      0.0000       3.7415 *    -8.2493 *  0.0000     1          
   100  Na    c      0.0000       8.2493 *    -3.7415 *  0.0000     1          
   101  Cl    c      2.2539 *     8.2493 *     3.0202 *  0.0000     2          
   102  Cl    c      6.7617 *    -0.7663 *    -5.9954 *  0.0000     2          
   103  Na    c      2.2539 *    -3.0202 *    -8.2493 *  0.0000     2          
   104  Na    c      6.7617 *     5.9954 *     0.7663 *  0.0000     2          
   105  Na    c      9.0156 *    -0.7663 *     0.7663 *  0.0000     2          
   106  Cl    c      6.7617 *    -5.2741 *     3.0202 *  0.0000     2          
   107  Na    c      6.7617 *    -3.0202 *     5.2741 *  0.0000     2          
   108  O     c     -4.5078 *     5.9954 *     5.2741 *  0.0000     2          
   109  O     c      9.0156 *     1.4876 *     0.7663 *  0.0000     2          
   110  O     c      0.0000      -7.5280 *     5.2741 *  0.0000     1          
   111  Na    c      9.0156 *     1.4876 *    -1.4876 *  0.0000     2          
   112  Na    c     -4.5078 *    -3.0202 *     7.5280 *  0.0000     2          
   113  Na    c      4.5078 *    -7.5280 *     3.0202 *  0.0000     2          
   114  Na    c      4.5078 *    -0.7663 *    -8.2493 *  0.0000     2          
   115  Na    c     -4.5078 *     8.2493 *     0.7663 *  0.0000     2          
   116  Cl    c      2.2539 *    -5.2741 *     7.5280 *  0.0000     2          
   117  Na    c      2.2539 *    -7.5280 *     5.2741 *  0.0000     2          
   118  O     c      4.5078 *     1.4876 *    -8.2493 *  0.0000     2          
   119  O     c      4.5078 *    -7.5280 *    -3.7415 *  0.0000     2          
   120  O     c      9.0156 *    -3.0202 *     0.7663 *  0.0000     2          
   121  Na    c     -4.5078 *     5.9954 *    -5.9954 *  0.0000     2          
   122  Na    c      0.0000       5.9954 *     7.5280 *  0.0000     1          
   123  Na    c      9.0156 *     1.4876 *     3.0202 *  0.0000     2          
   124  Na    c      9.0156 *    -3.0202 *    -1.4876 *  0.0000     2          
   125  Na    c      0.0000      -7.5280 *    -5.9954 *  0.0000     1          
   126  Na    c      6.7617 *     5.9954 *    -3.7415 *  0.0000     2          
   127  Cl    c      6.7617 *     3.7415 *    -5.9954 *  0.0000     2          
   128  Na    c      0.0000       8.2493 *     5.2741 *  0.0000     1          
   129  Na    c      0.0000      -5.2741 *    -8.2493 *  0.0000     1          
   130  Na    c      9.0156 *    -0.7663 *    -3.7415 *  0.0000     2          
   131  Na    c      9.0156 *     3.7415 *     0.7663 *  0.0000     2          
   132  Na    c      0.0000      -0.7663 *     9.7819 *  0.0000     1          
   133  Na    c      0.0000      -9.7819 *     0.7663 *  0.0000     1          
   134  O     c      9.0156 *     1.4876 *    -3.7415 *  0.0000     2          
   135  O     c     -4.5078 *    -3.0202 *    -8.2493 *  0.0000     2          
   136  O     c      0.0000       1.4876 *     9.7819 *  0.0000     1          
   137  Na    c      9.0156 *    -3.0202 *     3.0202 *  0.0000     2          
   138  Na    c     -4.5078 *     8.2493 *    -3.7415 *  0.0000     2          
   139  Na    c      4.5078 *     3.7415 *    -8.2493 *  0.0000     2          
   140  Na    c      2.2539 *     1.4876 *     9.7819 *  0.0000     2          
   141  Cl    c      2.2539 *    -9.7819 *    -1.4876 *  0.0000     2          
   142  Cl    c      6.7617 *    -0.7663 *     7.5280 *  0.0000     2          
   143  Na    c      6.7617 *    -7.5280 *     0.7663 *  0.0000     2          
   144  O     c      0.0000       5.9954 *    -8.2493 *  0.0000     1          
   145  O     c      9.0156 *    -3.0202 *    -3.7415 *  0.0000     2          
   146  O     c      0.0000      -3.0202 *     9.7819 *  0.0000     1          
   147  O     c      4.5078 *    -7.5280 *     5.2741 *  0.0000     2          
   148  Na    c      2.2539 *     5.9954 *    -8.2493 *  0.0000     2          
   149  Cl    c      2.2539 *     8.2493 *    -5.9954 *  0.0000     2          
   150  Na    c      9.0156 *     3.7415 *    -3.7415 *  0.0000     2          
   151  Na    c      6.7617 *     5.9954 *     5.2741 *  0.0000     2          
   152  Cl    c      6.7617 *    -5.2741 *    -5.9954 *  0.0000     2          
   153  Na    c      0.0000       3.7415 *     9.7819 *  0.0000     1          
   154  Na    c      0.0000      -9.7819 *    -3.7415 *  0.0000     1          
   155  Na    c      9.0156 *    -0.7663 *     5.2741 *  0.0000     2          
   156  Na    c      9.0156 *    -5.2741 *     0.7663 *  0.0000     2          
   157  Cl    c      2.2539 *    -9.7819 *     3.0202 *  0.0000     2          
   158  Na    c      2.2539 *    -3.0202 *     9.7819 *  0.0000     2          
   159  O     c      0.0000      10.5031 *     0.7663 *  0.0000     1          
   160  O     c      9.0156 *     1.4876 *     5.2741 *  0.0000     2          
   161  Na    c      0.0000      10.5031 *    -1.4876 *  0.0000     1          
   162  Na    c      0.0000       1.4876 *   -10.5031 *  0.0000     1          
   163  Na    c      4.5078 *     5.9954 *     7.5280 *  0.0000     2          
   164  Na    c      4.5078 *    -7.5280 *    -5.9954 *  0.0000     2          
   165  Na    c      0.0000      -7.5280 *     7.5280 *  0.0000     1          
   166  Na    c      2.2539 *    10.5031 *     0.7663 *  0.0000     2          
   167  Na    c      6.7617 *     1.4876 *    -8.2493 *  0.0000     2          
   168  Cl    c      6.7617 *     8.2493 *    -1.4876 *  0.0000     2          
   169  Cl    c      2.2539 *    -0.7663 *   -10.5031 *  0.0000     2          
   170  Na    c     -4.5078 *     8.2493 *     5.2741 *  0.0000     2          
   171  Na    c     -4.5078 *    -5.2741 *    -8.2493 *  0.0000     2          
   172  Cl    c      6.7617 *     3.7415 *     7.5280 *  0.0000     2          
   173  Na    c      6.7617 *    -7.5280 *    -3.7415 *  0.0000     2          
   174  Na    c     -4.5078 *    -0.7663 *     9.7819 *  0.0000     2          
   175  Na    c     -4.5078 *    -9.7819 *     0.7663 *  0.0000     2          
   176  O     c      9.0156 *     5.9954 *     0.7663 *  0.0000     2          
   177  O     c     -4.5078 *     1.4876 *     9.7819 *  0.0000     2          
   178  O     c      9.0156 *    -3.0202 *     5.2741 *  0.0000     2          
   179  Na    c      0.0000      10.5031 *     3.0202 *  0.0000     1          
   180  Na    c      9.0156 *     1.4876 *    -5.9954 *  0.0000     2          
   181  Na    c      9.0156 *     5.9954 *    -1.4876 *  0.0000     2          
   182  Na    c      0.0000      -3.0202 *   -10.5031 *  0.0000     1          
   183  Cl    c      6.7617 *     8.2493 *     3.0202 *  0.0000     2          
   184  Na    c      6.7617 *    -3.0202 *    -8.2493 *  0.0000     2          
   185  Na    c      9.0156 *     3.7415 *     5.2741 *  0.0000     2          
   186  Na    c      9.0156 *    -5.2741 *    -3.7415 *  0.0000     2          
   187  Na    c      0.0000      -5.2741 *     9.7819 *  0.0000     1          
   188  Na    c      0.0000      -9.7819 *     5.2741 *  0.0000     1          
   189  O     c      0.0000      10.5031 *    -3.7415 *  0.0000     1          
   190  O     c     -4.5078 *     5.9954 *    -8.2493 *  0.0000     2          
   191  O     c      0.0000      -7.5280 *    -8.2493 *  0.0000     1          
   192  O     c      4.5078 *    -3.0202 *     9.7819 *  0.0000     2          
   193  Na    c      9.0156 *     5.9954 *     3.0202 *  0.0000     2          
   194  Na    c      9.0156 *    -3.0202 *    -5.9954 *  0.0000     2          
   195  Na    c      2.2539 *    10.5031 *    -3.7415 *  0.0000     2          
   196  Cl    c      2.2539 *     3.7415 *   -10.5031 *  0.0000     2          
   197  Na    c     11.2695 *     1.4876 *     0.7663 *  0.0000     2          
   198  Cl    c      2.2539 *     8.2493 *     7.5280 *  0.0000     2          
   199  Cl    c     11.2695 *    -0.7663 *    -1.4876 *  0.0000     2          
   200  Na    c      2.2539 *    -7.5280 *    -8.2493 *  0.0000     2          
   201  Na    c     -4.5078 *     3.7415 *     9.7819 *  0.0000     2          
   202  Na    c     -4.5078 *    -9.7819 *    -3.7415 *  0.0000     2          
   203  Cl    c      6.7617 *    -5.2741 *     7.5280 *  0.0000     2          
   204  Na    c      6.7617 *    -7.5280 *     5.2741 *  0.0000     2          
   205  O     c      4.5078 *    10.5031 *     0.7663 *  0.0000     2          
   206  O     c      9.0156 *     5.9954 *    -3.7415 *  0.0000     2          
   207  O     c      0.0000       5.9954 *     9.7819 *  0.0000     1          
   208  Na    c      4.5078 *    10.5031 *    -1.4876 *  0.0000     2          
   209  Na    c      4.5078 *     1.4876 *   -10.5031 *  0.0000     2          
   210  Na    c      4.5078 *    -7.5280 *     7.5280 *  0.0000     2          
   211  Na    c      0.0000       8.2493 *    -8.2493 *  0.0000     1          
   212  Cl    c     11.2695 *    -0.7663 *     3.0202 *  0.0000     2          
   213  Na    c      2.2539 *     5.9954 *     9.7819 *  0.0000     2          
   214  Na    c     11.2695 *    -3.0202 *     0.7663 *  0.0000     2          
   215  Cl    c      2.2539 *    -9.7819 *    -5.9954 *  0.0000     2          
   216  Na    c      9.0156 *    -5.2741 *     5.2741 *  0.0000     2          
   217  O     c      0.0000      10.5031 *     5.2741 *  0.0000     1          
   218  O     c      9.0156 *    -7.5280 *     0.7663 *  0.0000     2          
   219  Na    c      4.5078 *    10.5031 *     3.0202 *  0.0000     2          
   220  Na    c      4.5078 *    -3.0202 *   -10.5031 *  0.0000     2          
   221  Na    c      9.0156 *     1.4876 *     7.5280 *  0.0000     2          
   222  Na    c      9.0156 *    -7.5280 *    -1.4876 *  0.0000     2          
   223  Cl    c     11.2695 *     3.7415 *    -1.4876 *  0.0000     2          
   224  Na    c     11.2695 *     1.4876 *    -3.7415 *  0.0000     2          
   225  Na    c      2.2539 *    10.5031 *     5.2741 *  0.0000     2          
   226  Cl    c      2.2539 *    -5.2741 *   -10.5031 *  0.0000     2          
   227  Cl    c      6.7617 *    -9.7819 *    -1.4876 *  0.0000     2          
   228  Na    c      6.7617 *     1.4876 *     9.7819 *  0.0000     2          
   229  Na    c      4.5078 *    -5.2741 *     9.7819 *  0.0000     2          
   230  Na    c      4.5078 *    -9.7819 *     5.2741 *  0.0000     2          
   231  O     s      0.0000       1.4876 *     0.7663 *  0.0000     1          
   232  Cl    s      2.2539 *    -0.7663 *    -1.4876 *  0.0000     2          
   233  O     s      0.0000      -3.0202 *     0.7663 *  0.0000     1          
   234  Cl    s      2.2539 *    -0.7663 *     3.0202 *  0.0000     2          
   235  O     s      0.0000       1.4876 *    -3.7415 *  0.0000     1          
   236  Cl    s      2.2539 *     3.7415 *    -1.4876 *  0.0000     2          
   237  O     s     -4.5078 *     1.4876 *     0.7663 *  0.0000     2          
   238  O     s      0.0000      -3.0202 *    -3.7415 *  0.0000     1          
   239  Cl    s      2.2539 *     3.7415 *     3.0202 *  0.0000     2          
   240  O     s      0.0000       1.4876 *     5.2741 *  0.0000     1          
   241  O     s     -4.5078 *    -3.0202 *     0.7663 *  0.0000     2          
   242  Cl    s      2.2539 *    -5.2741 *    -1.4876 *  0.0000     2          
   243  O     s      0.0000       5.9954 *     0.7663 *  0.0000     1          
   244  O     s     -4.5078 *     1.4876 *    -3.7415 *  0.0000     2          
   245  O     s      0.0000      -3.0202 *     5.2741 *  0.0000     1          
   246  Cl    s      2.2539 *    -0.7663 *    -5.9954 *  0.0000     2          
   247  Cl    s      2.2539 *    -5.2741 *     3.0202 *  0.0000     2          
   248  O     s     -4.5078 *    -3.0202 *    -3.7415 *  0.0000     2          
   249  Cl    s      6.7617 *    -0.7663 *    -1.4876 *  0.0000     2          
   250  O     s      0.0000       5.9954 *    -3.7415 *  0.0000     1          
   251  O     s      4.5078 *     1.4876 *     5.2741 *  0.0000     2          
   252  Cl    s      2.2539 *     3.7415 *    -5.9954 *  0.0000     2          
   253  Cl    s      6.7617 *    -0.7663 *     3.0202 *  0.0000     2          
   254  O     s     -4.5078 *     5.9954 *     0.7663 *  0.0000     2          
   255  O     s      0.0000      -7.5280 *     0.7663 *  0.0000     1          
   256  O     s      4.5078 *    -3.0202 *     5.2741 *  0.0000     2          
   257  Cl    s      6.7617 *     3.7415 *    -1.4876 *  0.0000     2          
   258  Cl    s      2.2539 *    -0.7663 *     7.5280 *  0.0000     2          
   259  O     s      0.0000       5.9954 *     5.2741 *  0.0000     1          
   260  Cl    s      2.2539 *    -5.2741 *    -5.9954 *  0.0000     2          
   261  Cl    s      6.7617 *     3.7415 *     3.0202 *  0.0000     2          
   262  O     s     -4.5078 *     5.9954 *    -3.7415 *  0.0000     2          
   263  O     s      0.0000       1.4876 *    -8.2493 *  0.0000     1          
   264  O     s      0.0000      -7.5280 *    -3.7415 *  0.0000     1          
   265  Cl    s      2.2539 *     8.2493 *    -1.4876 *  0.0000     2          
   266  Cl    s      2.2539 *     3.7415 *     7.5280 *  0.0000     2          
   267  Cl    s      6.7617 *    -5.2741 *    -1.4876 *  0.0000     2          
   268  O     s      0.0000      -3.0202 *    -8.2493 *  0.0000     1          
   269  O     s      4.5078 *    -7.5280 *     0.7663 *  0.0000     2          
   270  Cl    s      2.2539 *     8.2493 *     3.0202 *  0.0000     2          
   271  Cl    s      6.7617 *    -0.7663 *    -5.9954 *  0.0000     2          
   272  Cl    s      6.7617 *    -5.2741 *     3.0202 *  0.0000     2          
   273  O     s     -4.5078 *     5.9954 *     5.2741 *  0.0000     2          
   274  O     s      9.0156 *     1.4876 *     0.7663 *  0.0000     2          
   275  O     s      0.0000      -7.5280 *     5.2741 *  0.0000     1          
   276  Cl    s      2.2539 *    -5.2741 *     7.5280 *  0.0000     2          
   277  O     s      4.5078 *     1.4876 *    -8.2493 *  0.0000     2          
   278  O     s      4.5078 *    -7.5280 *    -3.7415 *  0.0000     2          
   279  O     s      9.0156 *    -3.0202 *     0.7663 *  0.0000     2          
   280  Cl    s      6.7617 *     3.7415 *    -5.9954 *  0.0000     2          
   281  O     s      9.0156 *     1.4876 *    -3.7415 *  0.0000     2          
   282  O     s     -4.5078 *    -3.0202 *    -8.2493 *  0.0000     2          
   283  O     s      0.0000       1.4876 *     9.7819 *  0.0000     1          
   284  Cl    s      2.2539 *    -9.7819 *    -1.4876 *  0.0000     2          
   285  Cl    s      6.7617 *    -0.7663 *     7.5280 *  0.0000     2          
   286  O     s      0.0000       5.9954 *    -8.2493 *  0.0000     1          
   287  O     s      9.0156 *    -3.0202 *    -3.7415 *  0.0000     2          
   288  O     s      0.0000      -3.0202 *     9.7819 *  0.0000     1          
   289  O     s      4.5078 *    -7.5280 *     5.2741 *  0.0000     2          
   290  Cl    s      2.2539 *     8.2493 *    -5.9954 *  0.0000     2          
   291  Cl    s      6.7617 *    -5.2741 *    -5.9954 *  0.0000     2          
   292  Cl    s      2.2539 *    -9.7819 *     3.0202 *  0.0000     2          
   293  O     s      0.0000      10.5031 *     0.7663 *  0.0000     1          
   294  O     s      9.0156 *     1.4876 *     5.2741 *  0.0000     2          
   295  Cl    s      6.7617 *     8.2493 *    -1.4876 *  0.0000     2          
   296  Cl    s      2.2539 *    -0.7663 *   -10.5031 *  0.0000     2          
   297  Cl    s      6.7617 *     3.7415 *     7.5280 *  0.0000     2          
   298  O     s      9.0156 *     5.9954 *     0.7663 *  0.0000     2          
   299  O     s     -4.5078 *     1.4876 *     9.7819 *  0.0000     2          
   300  O     s      9.0156 *    -3.0202 *     5.2741 *  0.0000     2          
   301  Cl    s      6.7617 *     8.2493 *     3.0202 *  0.0000     2          
   302  O     s      0.0000      10.5031 *    -3.7415 *  0.0000     1          
   303  O     s     -4.5078 *     5.9954 *    -8.2493 *  0.0000     2          
   304  O     s      0.0000      -7.5280 *    -8.2493 *  0.0000     1          
   305  O     s      4.5078 *    -3.0202 *     9.7819 *  0.0000     2          
   306  Cl    s      2.2539 *     3.7415 *   -10.5031 *  0.0000     2          
   307  Cl    s      2.2539 *     8.2493 *     7.5280 *  0.0000     2          
   308  Cl    s     11.2695 *    -0.7663 *    -1.4876 *  0.0000     2          
   309  Cl    s      6.7617 *    -5.2741 *     7.5280 *  0.0000     2          
   310  O     s      4.5078 *    10.5031 *     0.7663 *  0.0000     2          
   311  O     s      9.0156 *     5.9954 *    -3.7415 *  0.0000     2          
   312  O     s      0.0000       5.9954 *     9.7819 *  0.0000     1          
   313  Cl    s     11.2695 *    -0.7663 *     3.0202 *  0.0000     2          
   314  Cl    s      2.2539 *    -9.7819 *    -5.9954 *  0.0000     2          
   315  O     s      0.0000      10.5031 *     5.2741 *  0.0000     1          
   316  O     s      9.0156 *    -7.5280 *     0.7663 *  0.0000     2          
   317  Cl    s     11.2695 *     3.7415 *    -1.4876 *  0.0000     2          
   318  Cl    s      2.2539 *    -5.2741 *   -10.5031 *  0.0000     2          
   319  Cl    s      6.7617 *    -9.7819 *    -1.4876 *  0.0000     2          
--------------------------------------------------------------------------------

  Components of defect energy : 

--------------------------------------------------------------------------------
  Region 1 - region 1                   =     -1.70025863 eV
  Region 1 - region 2a (unrelaxed)      =     11.55317118 eV
  Region 1 - 2a (relaxed - correction)  =     -0.28766587 eV
  Region 1 (Total)                      =      9.56524668 eV
  Region 2a                             =      0.14375643 eV
  Region 2b                             =     -0.43107652 eV
--------------------------------------------------------------------------------
  Total defect energy                   =      9.27792659 eV
--------------------------------------------------------------------------------

  Largest displacement in region 2 =   0.0244 Angstroms


  Number of variables =      871

  Maximum number of calculations  =        1000
  Maximum Hessian update interval =          10
  Maximum step size               =   1.0000000
  Maximum parameter tolerance     =   0.0000100
  Maximum function  tolerance     =   0.0000100
  Maximum gradient  tolerance     =   0.0010000

  Symmetry adapted optimisation

  Symmetry to be used for second derivatives

  Newton-Raphson optimiser to be used

  BFGS hessian update to be used

  Lower half triangular hessian to be used

  Start of defect optimisation :

  Cycle:      0 Defect Energy:   9.277927  Gnorm:     0.021881  CPU:    2.781
  ** Hessian calculated **
  Cycle:      1 Defect Energy:   8.588978  Gnorm:     0.019437  CPU:    8.887
  ** Hessian calculated **
  Cycle:      2 Defect Energy:   7.492093  Gnorm:     0.014982  CPU:   14.766
  ** Hessian calculated **
  Cycle:      3 Defect Energy:   6.122454  Gnorm:     0.006957  CPU:   18.959
  Cycle:      4 Defect Energy:   5.668663  Gnorm:     0.004037  CPU:   25.359
  Cycle:      5 Defect Energy:   5.616736  Gnorm:     0.002320  CPU:   26.363
  Cycle:      6 Defect Energy:   5.557644  Gnorm:     0.001680  CPU:   27.491
  Cycle:      7 Defect Energy:   5.484025  Gnorm:     0.001558  CPU:   28.475
  Cycle:      8 Defect Energy:   5.393779  Gnorm:     0.001816  CPU:   29.490
  Cycle:      9 Defect Energy:   5.304968  Gnorm:     0.001991  CPU:   30.477
  Cycle:     10 Defect Energy:   5.247662  Gnorm:     0.002130  CPU:   31.462
  Cycle:     11 Defect Energy:   5.198601  Gnorm:     0.002376  CPU:   32.528
  Cycle:     12 Defect Energy:   5.145068  Gnorm:     0.002346  CPU:   33.485
  ** Hessian calculated **
  Cycle:     13 Defect Energy:   5.082516  Gnorm:     0.002103  CPU:   35.956
  Cycle:     14 Defect Energy:   5.082253  Gnorm:     0.002057  CPU:   37.003
  ** Hessian calculated **
  Cycle:     15 Defect Energy:   4.994796  Gnorm:     0.001736  CPU:   39.447
  Cycle:     16 Defect Energy:   4.912798  Gnorm:     0.000809  CPU:   40.362
  Cycle:     17 Defect Energy:   4.910342  Gnorm:     0.000706  CPU:   41.244
  ** Hessian calculated **
  Cycle:     18 Defect Energy:   4.894558  Gnorm:     0.000514  CPU:   43.651
  Cycle:     19 Defect Energy:   4.891559  Gnorm:     0.000477  CPU:   44.511
  ** Hessian calculated **
  Cycle:     20 Defect Energy:   4.877316  Gnorm:     0.000366  CPU:   46.861
  Cycle:     21 Defect Energy:   4.866441  Gnorm:     0.000283  CPU:   47.686
  Cycle:     22 Defect Energy:   4.856693  Gnorm:     0.000238  CPU:   48.511
  Cycle:     23 Defect Energy:   4.850512  Gnorm:     0.000377  CPU:   49.365
  Cycle:     24 Defect Energy:   4.843289  Gnorm:     0.000475  CPU:   50.200
  Cycle:     25 Defect Energy:   4.838124  Gnorm:     0.000316  CPU:   51.004
  Cycle:     26 Defect Energy:   4.833523  Gnorm:     0.000321  CPU:   53.431
  Cycle:     27 Defect Energy:   4.827215  Gnorm:     0.000451  CPU:   55.895
  Cycle:     28 Defect Energy:   4.822221  Gnorm:     0.000742  CPU:   56.945
  Cycle:     29 Defect Energy:   4.820583  Gnorm:     0.000680  CPU:   57.969
  ** Hessian calculated **
  Cycle:     30 Defect Energy:   4.809862  Gnorm:     0.000609  CPU:   60.729
  Cycle:     31 Defect Energy:   4.797456  Gnorm:     0.000488  CPU:   61.670
  Cycle:     32 Defect Energy:   4.793355  Gnorm:     0.000302  CPU:   62.657
  Cycle:     33 Defect Energy:   4.791995  Gnorm:     0.000213  CPU:   63.639
  Cycle:     34 Defect Energy:   4.791019  Gnorm:     0.000130  CPU:   64.608
  Cycle:     35 Defect Energy:   4.790629  Gnorm:     0.000129  CPU:   65.637
  ** Hessian calculated **
  Cycle:     36 Defect Energy:   4.789568  Gnorm:     0.000093  CPU:   68.107
  Cycle:     37 Defect Energy:   4.788886  Gnorm:     0.000073  CPU:   69.054
  Cycle:     38 Defect Energy:   4.788380  Gnorm:     0.000070  CPU:   70.067
  ** Hessian calculated **
  Cycle:     39 Defect Energy:   4.787895  Gnorm:     0.000055  CPU:   72.463
  Cycle:     40 Defect Energy:   4.787177  Gnorm:     0.000084  CPU:   73.342
  ** Hessian calculated **
  Cycle:     41 Defect Energy:   4.787138  Gnorm:     0.000051  CPU:   75.765
  Cycle:     42 Defect Energy:   4.787092  Gnorm:     0.000038  CPU:   76.628
  Cycle:     43 Defect Energy:   4.787042  Gnorm:     0.000035  CPU:   77.500
  Cycle:     44 Defect Energy:   4.786976  Gnorm:     0.000041  CPU:   78.379
  Cycle:     45 Defect Energy:   4.786917  Gnorm:     0.000046  CPU:   79.343
  Cycle:     46 Defect Energy:   4.786865  Gnorm:     0.000055  CPU:   80.171
  Cycle:     47 Defect Energy:   4.786809  Gnorm:     0.000061  CPU:   81.007
  Cycle:     48 Defect Energy:   4.786769  Gnorm:     0.000065  CPU:   81.829
  Cycle:     49 Defect Energy:   4.786709  Gnorm:     0.000071  CPU:   82.682
  Cycle:     50 Defect Energy:   4.786674  Gnorm:     0.000075  CPU:   83.508
  ** Hessian calculated **
  Cycle:     51 Defect Energy:   4.786637  Gnorm:     0.000070  CPU:   88.234
  Cycle:     52 Defect Energy:   4.786608  Gnorm:     0.000068  CPU:   89.725
  Cycle:     53 Defect Energy:   4.786562  Gnorm:     0.000067  CPU:   90.756
  Cycle:     54 Defect Energy:   4.786516  Gnorm:     0.000066  CPU:   91.831
  Cycle:     55 Defect Energy:   4.786442  Gnorm:     0.000065  CPU:   92.854
  Cycle:     56 Defect Energy:   4.786368  Gnorm:     0.000068  CPU:   93.878
  Cycle:     57 Defect Energy:   4.786277  Gnorm:     0.000073  CPU:   94.951
  Cycle:     58 Defect Energy:   4.786201  Gnorm:     0.000078  CPU:   95.921
  Cycle:     59 Defect Energy:   4.786091  Gnorm:     0.000088  CPU:   96.871
  Cycle:     60 Defect Energy:   4.785951  Gnorm:     0.000103  CPU:   97.858
  ** Hessian calculated **
  Cycle:     61 Defect Energy:   4.785885  Gnorm:     0.000096  CPU:  100.390
  Cycle:     62 Defect Energy:   4.785790  Gnorm:     0.000093  CPU:  101.323
  Cycle:     63 Defect Energy:   4.785659  Gnorm:     0.000092  CPU:  102.256
  Cycle:     64 Defect Energy:   4.785494  Gnorm:     0.000091  CPU:  103.247
  Cycle:     65 Defect Energy:   4.785271  Gnorm:     0.000094  CPU:  104.125
  Cycle:     66 Defect Energy:   4.785024  Gnorm:     0.000102  CPU:  105.046
  Cycle:     67 Defect Energy:   4.784653  Gnorm:     0.000122  CPU:  105.946
  Cycle:     68 Defect Energy:   4.784279  Gnorm:     0.000146  CPU:  106.832
  Cycle:     69 Defect Energy:   4.783561  Gnorm:     0.000188  CPU:  107.783
  Cycle:     70 Defect Energy:   4.782419  Gnorm:     0.000253  CPU:  108.647
  ** Hessian calculated **
  Cycle:     71 Defect Energy:   4.781757  Gnorm:     0.000235  CPU:  110.959
  Cycle:     72 Defect Energy:   4.780877  Gnorm:     0.000228  CPU:  111.804
  Cycle:     73 Defect Energy:   4.779693  Gnorm:     0.000218  CPU:  112.738
  Cycle:     74 Defect Energy:   4.778073  Gnorm:     0.000213  CPU:  113.590
  Cycle:     75 Defect Energy:   4.775993  Gnorm:     0.000214  CPU:  114.417
  Cycle:     76 Defect Energy:   4.773244  Gnorm:     0.000236  CPU:  115.252
  Cycle:     77 Defect Energy:   4.769996  Gnorm:     0.000300  CPU:  116.084
  Cycle:     78 Defect Energy:   4.766571  Gnorm:     0.000359  CPU:  116.962
  Cycle:     79 Defect Energy:   4.763395  Gnorm:     0.000448  CPU:  117.576
  Cycle:     80 Defect Energy:   4.759557  Gnorm:     0.000519  CPU:  120.285
  ** Hessian calculated **
  Cycle:     81 Defect Energy:   4.756544  Gnorm:     0.000485  CPU:  124.301
  Cycle:     82 Defect Energy:   4.752451  Gnorm:     0.000468  CPU:  125.333
  Cycle:     83 Defect Energy:   4.747029  Gnorm:     0.000447  CPU:  126.361
  Cycle:     84 Defect Energy:   4.739847  Gnorm:     0.000432  CPU:  127.536
  Cycle:     85 Defect Energy:   4.730819  Gnorm:     0.000439  CPU:  128.542
  Cycle:     86 Defect Energy:   4.719430  Gnorm:     0.000487  CPU:  129.499
  Cycle:     87 Defect Energy:   4.706506  Gnorm:     0.000595  CPU:  130.461
  Cycle:     88 Defect Energy:   4.691389  Gnorm:     0.000746  CPU:  131.440
  Cycle:     89 Defect Energy:   4.678955  Gnorm:     0.000857  CPU:  132.563
  Cycle:     90 Defect Energy:   4.670638  Gnorm:     0.000913  CPU:  133.437
  ** Hessian calculated **
  Cycle:     91 Defect Energy:   4.641672  Gnorm:     0.000851  CPU:  135.921
  Cycle:     92 Defect Energy:   4.603809  Gnorm:     0.000721  CPU:  136.916
  Cycle:     93 Defect Energy:   4.583198  Gnorm:     0.000545  CPU:  137.806
  ** Hessian calculated **
  Cycle:     94 Defect Energy:   4.560344  Gnorm:     0.000392  CPU:  140.159
  Cycle:     95 Defect Energy:   4.547732  Gnorm:     0.000301  CPU:  141.059
  Cycle:     96 Defect Energy:   4.539720  Gnorm:     0.000234  CPU:  142.018
  Cycle:     97 Defect Energy:   4.534810  Gnorm:     0.000190  CPU:  142.863
  Cycle:     98 Defect Energy:   4.531758  Gnorm:     0.000146  CPU:  143.706
  Cycle:     99 Defect Energy:   4.529880  Gnorm:     0.000125  CPU:  144.558
  Cycle:    100 Defect Energy:   4.528568  Gnorm:     0.000084  CPU:  145.438
  Cycle:    101 Defect Energy:   4.527762  Gnorm:     0.000089  CPU:  146.375
  Cycle:    102 Defect Energy:   4.527289  Gnorm:     0.000058  CPU:  147.225
  Cycle:    103 Defect Energy:   4.527110  Gnorm:     0.000045  CPU:  148.070
  ** Hessian calculated **
  Cycle:    104 Defect Energy:   4.527003  Gnorm:     0.000031  CPU:  150.272
  Cycle:    105 Defect Energy:   4.526948  Gnorm:     0.000022  CPU:  151.135
  Cycle:    106 Defect Energy:   4.526918  Gnorm:     0.000016  CPU:  152.185
  Cycle:    107 Defect Energy:   4.526903  Gnorm:     0.000011  CPU:  155.894


  **** Optimisation achieved ****


  Final defect energy  =        4.52689468
  Final defect Gnorm   =        0.00000772

  Components of defect energy : 

--------------------------------------------------------------------------------
  Region 1 - region 1                   =     -5.28252286 eV
  Region 1 - region 2a (unrelaxed)      =     10.34715213 eV
  Region 1 - 2a (relaxed - correction)  =     -0.21486365 eV
  Region 1 (Total)                      =      4.84976562 eV
  Region 2a                             =      0.10736085 eV
  Region 2b                             =     -0.43023179 eV
--------------------------------------------------------------------------------
  Total defect energy                   =      4.52689468 eV
--------------------------------------------------------------------------------

  Largest displacement in region 2 =   0.0231 Angstroms

  Final coordinates of region 1 :

--------------------------------------------------------------------------------
   No.  Atomic        x           y           z          Radius      Charge
        Label       (Angs)      (Angs)      (Angs)       (Angs)       (e) 
--------------------------------------------------------------------------------
     1  Na    c     2.253894    0.766324    0.724923    0.000000    1.000000
     2  O     c     2.253894    2.289198    2.300629    0.000000    0.183000
     3  Na    c     4.480088    2.258238    2.201133    0.000000    1.000000
     4  Na    c     0.027699    2.258238    2.201133    0.000000    1.000000
     5  Cl    c     4.701179   -0.103871   -0.048347    0.000000    1.485000
     6  Cl    c    -0.193392   -0.103871   -0.048347    0.000000    1.485000
     7  O     c     2.253894   -2.269619    2.239822    0.000000    0.183000
     8  Na    c     2.253894    1.833242    4.459935    0.000000    1.000000
     9  Na    c     2.253894   -2.499194    0.022796    0.000000    1.000000
    10  Na    c     2.253894    0.009837   -2.541380    0.000000    1.000000
    11  Na    c     2.253894    4.476069    2.001727    0.000000    1.000000
    12  Cl    c     4.596083   -0.013869    4.674339    0.000000    1.485000
    13  Cl    c    -0.088296   -0.013869    4.674339    0.000000    1.485000
    14  Na    c     4.448192   -1.869171    2.265105    0.000000    1.000000
    15  Na    c     0.059596   -1.869171    2.265105    0.000000    1.000000
    16  O     c     2.253894    2.205348   -2.234615    0.000000    0.183000
    17  Na    c     2.253894   -1.729306    4.425360    0.000000    1.000000
    18  Na    c     4.456557    2.195476   -1.863281    0.000000    1.000000
    19  Na    c     0.051230    2.195476   -1.863281    0.000000    1.000000
    20  Cl    c     4.643445    4.587934    0.023483    0.000000    1.485000
    21  Cl    c    -0.135658    4.587934    0.023483    0.000000    1.485000
    22  Na    c    -2.403538    0.027343    1.856271    0.000000    1.000000
    23  Na    c     6.911326    0.027343    1.856271    0.000000    1.000000
    24  O     c    -2.260446    2.268330    2.270031    0.000000    0.183000
    25  O     c     6.768233    2.268330    2.270031    0.000000    0.183000
    26  O     c     2.253894   -2.249096   -2.254484    0.000000    0.183000
    27  Na    c    -2.399225    2.648951    0.021269    0.000000    1.000000
    28  Na    c     6.907012    2.648951    0.021269    0.000000    1.000000
    29  Na    c     2.253894    4.392865   -1.678292    0.000000    1.000000
    30  Cl    c     4.573177    4.617153    4.571713    0.000000    1.485000
    31  Cl    c    -0.065390    4.617153    4.571713    0.000000    1.485000
    32  Na    c     4.511070   -2.148040   -2.244479    0.000000    1.000000
    33  Na    c    -0.003283   -2.148040   -2.244479    0.000000    1.000000
    34  Na    c     2.253894   -0.005958    7.125432    0.000000    1.000000
    35  Na    c     2.253894   -4.471025    2.584719    0.000000    1.000000
    36  O     c     2.253894    2.231095    6.750784    0.000000    0.183000
    37  O     c    -2.227530   -2.218409    2.255848    0.000000    0.183000
    38  O     c     6.735317   -2.218409    2.255848    0.000000    0.183000
    39  Na    c    -2.188426    1.866883    4.508648    0.000000    1.000000
    40  Na    c     6.696213    1.866883    4.508648    0.000000    1.000000
    41  Na    c    -2.129469   -2.590636    0.008270    0.000000    1.000000
    42  Na    c     6.637256   -2.590636    0.008270    0.000000    1.000000
    43  Na    c    -2.173644    4.516905    2.623574    0.000000    1.000000
    44  Na    c     6.681431    4.516905    2.623574    0.000000    1.000000
    45  Na    c    -2.340916    0.001443   -1.903186    0.000000    1.000000
    46  Na    c     6.848703    0.001443   -1.903186    0.000000    1.000000
    47  Na    c     4.508267    2.251121    6.721856    0.000000    1.000000
    48  Na    c    -0.000480    2.251121    6.721856    0.000000    1.000000
    49  Cl    c     4.513346   -4.582963   -0.114500    0.000000    1.485000
    50  Cl    c    -0.005559   -4.582963   -0.114500    0.000000    1.485000
    51  O     c     2.253894    6.774188    2.213961    0.000000    0.183000
    52  O     c    -2.229677    2.251966   -2.225053    0.000000    0.183000
    53  O     c     6.737464    2.251966   -2.225053    0.000000    0.183000
    54  O     c     2.253894   -2.236669    6.707538    0.000000    0.183000
    55  Na    c     2.253894    7.111239   -0.001243    0.000000    1.000000
    56  Na    c     2.253894    2.563141   -4.447212    0.000000    1.000000
    57  Na    c    -2.311185   -1.861694    4.501910    0.000000    1.000000
    58  Na    c     6.818973   -1.861694    4.501910    0.000000    1.000000
    59  Na    c     4.513003    6.724242    2.177592    0.000000    1.000000
    60  Na    c    -0.005216    6.724242    2.177592    0.000000    1.000000
    61  Cl    c     4.487197   -0.112913   -4.563826    0.000000    1.485000
    62  Cl    c     0.020590   -0.112913   -4.563826    0.000000    1.485000
    63  Na    c     2.253894    4.456357    6.413438    0.000000    1.000000
    64  Na    c     2.253894   -4.509055   -2.348848    0.000000    1.000000
    65  Cl    c     4.532698   -4.623335    4.581937    0.000000    1.485000
    66  Cl    c    -0.024911   -4.623335    4.581937    0.000000    1.485000
    67  Na    c     4.509685   -2.258924    6.624482    0.000000    1.000000
    68  Na    c    -0.001898   -2.258924    6.624482    0.000000    1.000000
    69  O     c    -2.261492   -2.255738   -2.250019    0.000000    0.183000
    70  O     c     6.769280   -2.255738   -2.250019    0.000000    0.183000
    71  Na    c     2.253894    6.708020    4.465214    0.000000    1.000000
    72  Na    c     2.253894   -2.385963   -4.510030    0.000000    1.000000
    73  Na    c    -2.174222    4.483836   -2.586210    0.000000    1.000000
    74  Na    c     6.682009    4.483836   -2.586210    0.000000    1.000000
    75  Cl    c     9.088174    0.003286   -0.025818    0.000000    1.485000
    76  Cl    c    -4.580386    0.003286   -0.025818    0.000000    1.485000
    77  Na    c     9.014451    2.385125    2.455328    0.000000    1.000000
    78  Na    c    -4.506664    2.385125    2.455328    0.000000    1.000000
    79  Na    c    -2.191106    0.002066    7.121913    0.000000    1.000000
    80  Na    c     6.698894    0.002066    7.121913    0.000000    1.000000
    81  Na    c    -2.052430   -4.459201    2.601779    0.000000    1.000000
    82  Na    c     6.560217   -4.459201    2.601779    0.000000    1.000000
    83  O     c     2.253894    6.689050   -2.207469    0.000000    0.183000
    84  O     c     6.767816    2.252713    6.752217    0.000000    0.183000
    85  O     c    -2.260029    2.252713    6.752217    0.000000    0.183000
    86  Na    c     4.506649    6.671344   -2.178846    0.000000    1.000000
    87  Na    c     0.001138    6.671344   -2.178846    0.000000    1.000000
    88  Cl    c     4.569668    4.553460   -4.605315    0.000000    1.485000
    89  Cl    c    -0.061881    4.553460   -4.605315    0.000000    1.485000
    90  Cl    c     9.065117    0.044539    4.495460    0.000000    1.485000
    91  Cl    c    -4.557329    0.044539    4.495460    0.000000    1.485000
    92  Na    c     8.990835   -2.419449    2.208152    0.000000    1.000000
    93  Na    c    -4.483048   -2.419449    2.208152    0.000000    1.000000
    94  Na    c     2.253894   -4.484172    6.392862    0.000000    1.000000
    95  O     c    -2.263136    6.762069    2.262252    0.000000    0.183000
    96  O     c     6.770923    6.762069    2.262252    0.000000    0.183000
    97  O     c     2.253894   -6.752543    2.257979    0.000000    0.183000
    98  O     c     6.771427   -2.247046    6.753439    0.000000    0.183000
    99  O     c    -2.263639   -2.247046    6.753439    0.000000    0.183000
   100  Na    c    -2.314529    6.451202    0.001179    0.000000    1.000000
   101  Na    c     6.822316    6.451202    0.001179    0.000000    1.000000
   102  Na    c     6.513582    1.951483   -4.472780    0.000000    1.000000
   103  Na    c    -2.005795    1.951483   -4.472780    0.000000    1.000000
   104  Na    c     2.253894    2.533074    9.000409    0.000000    1.000000
   105  Na    c     2.253894   -6.519673    0.013893    0.000000    1.000000
   106  Cl    c     9.094673    4.546125    0.019384    0.000000    1.485000
   107  Cl    c    -4.586886    4.546125    0.019384    0.000000    1.485000
   108  Na    c     8.990127    2.272310   -2.454913    0.000000    1.000000
   109  Na    c    -4.482340    2.272310   -2.454913    0.000000    1.000000
   110  Na    c     6.793923    4.509881    6.421352    0.000000    1.000000
   111  Na    c    -2.286136    4.509881    6.421352    0.000000    1.000000
   112  Na    c    -2.162622   -4.492535   -2.581680    0.000000    1.000000
   113  Na    c     6.670409   -4.492535   -2.581680    0.000000    1.000000
   114  Cl    c     4.510453    0.004602    9.064734    0.000000    1.485000
   115  Cl    c    -0.002666    0.004602    9.064734    0.000000    1.485000
   116  Na    c     4.499703   -6.774405    2.206772    0.000000    1.000000
   117  Na    c     0.008084   -6.774405    2.206772    0.000000    1.000000
   118  O     c     2.253894    6.709935    6.733882    0.000000    0.183000
   119  Na    c    -2.178626    7.090858    4.501672    0.000000    1.000000
   120  Na    c     6.686414    7.090858    4.501672    0.000000    1.000000
   121  Na    c    -2.284451   -1.923356   -4.498605    0.000000    1.000000
   122  Na    c     6.792239   -1.923356   -4.498605    0.000000    1.000000
   123  Na    c     2.253894   -2.524692    8.972317    0.000000    1.000000
   124  Na    c     2.253894   -7.008888    4.505866    0.000000    1.000000
   125  Na    c     2.253894    0.011373   -6.550682    0.000000    1.000000
   126  Na    c     2.253894    9.023005    2.435266    0.000000    1.000000
   127  Na    c     4.511852    6.664745    6.765604    0.000000    1.000000
   128  Na    c    -0.004064    6.664745    6.765604    0.000000    1.000000
   129  Cl    c     4.462846   -4.541145   -4.541045    0.000000    1.485000
   130  Cl    c     0.044941   -4.541145   -4.541045    0.000000    1.485000
   131  Cl    c     9.065734    4.523769    4.500648    0.000000    1.485000
   132  Cl    c    -4.557946    4.523769    4.500648    0.000000    1.485000
   133  Na    c     9.011377   -2.329439   -2.179044    0.000000    1.000000
   134  Na    c    -4.503589   -2.329439   -2.179044    0.000000    1.000000
   135  O     c    -2.256426    6.733464   -2.259248    0.000000    0.183000
   136  O     c     6.764213    6.733464   -2.259248    0.000000    0.183000
   137  O     c     2.253894    2.268602   -6.740185    0.000000    0.183000
   138  O     c     2.253894   -6.764792   -2.242000    0.000000    0.183000
   139  Na    c     2.253894    6.406617   -4.470304    0.000000    1.000000
   140  Na    c     4.496961    2.273883   -6.791328    0.000000    1.000000
   141  Na    c     0.010826    2.273883   -6.791328    0.000000    1.000000
   142  Cl    c     4.512481    9.046747   -0.008730    0.000000    1.485000
   143  Cl    c    -0.004693    9.046747   -0.008730    0.000000    1.485000
   144  Cl    c     4.519654    4.536270    9.073796    0.000000    1.485000
   145  Cl    c    -0.011867    4.536270    9.073796    0.000000    1.485000
   146  Cl    c     9.071102   -4.497209   -0.000873    0.000000    1.485000
   147  Cl    c    -4.563315   -4.497209   -0.000873    0.000000    1.485000
   148  Na    c     4.508442   -6.759936   -2.181280    0.000000    1.000000
   149  Na    c    -0.000655   -6.759936   -2.181280    0.000000    1.000000
   150  Na    c     9.017393    2.208723    6.668926    0.000000    1.000000
   151  Na    c    -4.509606    2.208723    6.668926    0.000000    1.000000
   152  Na    c     6.801262   -4.500030    6.450671    0.000000    1.000000
   153  Na    c    -2.293475   -4.500030    6.450671    0.000000    1.000000
   154  O     c     2.253894   -2.257530   -6.753155    0.000000    0.183000
   155  O     c     6.750207   -6.718350    2.253688    0.000000    0.183000
   156  O     c    -2.242420   -6.718350    2.253688    0.000000    0.183000
   157  Na    c    -2.279308    2.555067    8.995727    0.000000    1.000000
   158  Na    c     6.787095    2.555067    8.995727    0.000000    1.000000
   159  Na    c     6.804694   -6.450554   -0.003957    0.000000    1.000000
   160  Na    c    -2.296907   -6.450554   -0.003957    0.000000    1.000000
   161  Na    c     2.253894    4.493248   -6.976066    0.000000    1.000000
   162  Na    c     2.253894    8.957132   -2.496525    0.000000    1.000000
   163  Cl    c     4.471833    9.056502    4.510916    0.000000    1.485000
   164  Cl    c     0.035954    9.056502    4.510916    0.000000    1.485000
   165  Cl    c     9.054551    0.016592   -4.511041    0.000000    1.485000
   166  Cl    c    -4.546764    0.016592   -4.511041    0.000000    1.485000
   167  Na    c     4.511066   -2.220474   -6.700939    0.000000    1.000000
   168  Na    c    -0.003279   -2.220474   -6.700939    0.000000    1.000000
   169  Na    c     9.019615    6.690557    2.299939    0.000000    1.000000
   170  Na    c    -4.511828    6.690557    2.299939    0.000000    1.000000
   171  Na    c    11.108221    0.000145    2.098988    0.000000    1.000000
   172  Na    c    -6.600434    0.000145    2.098988    0.000000    1.000000
   173  Cl    c     9.066122   -4.501312    4.490508    0.000000    1.485000
   174  Cl    c    -4.558335   -4.501312    4.490508    0.000000    1.485000
   175  Na    c     9.013549   -2.226741    6.809443    0.000000    1.000000
   176  Na    c    -4.505762   -2.226741    6.809443    0.000000    1.000000
   177  O     c    -2.261769    6.769893    6.748189    0.000000    0.183000
   178  O     c     6.769556    6.769893    6.748189    0.000000    0.183000
   179  O     c    11.260265    2.251155    2.249989    0.000000    0.183000
   180  O     c    -6.752478    2.251155    2.249989    0.000000    0.183000
   181  O     c     2.253894   -6.739760    6.751395    0.000000    0.183000
   182  Na    c    11.068900    2.362869   -0.001837    0.000000    1.000000
   183  Na    c    -6.561112    2.362869   -0.001837    0.000000    1.000000
   184  Na    c    -2.208241   -2.533521    9.000040    0.000000    1.000000
   185  Na    c     6.716029   -2.533521    9.000040    0.000000    1.000000
   186  Na    c     6.693405   -7.017350    4.498458    0.000000    1.000000
   187  Na    c    -2.185618   -7.017350    4.498458    0.000000    1.000000
   188  Na    c     6.777668    0.001039   -7.032027    0.000000    1.000000
   189  Na    c    -2.269881    0.001039   -7.032027    0.000000    1.000000
   190  Na    c    -2.280638    9.002838    1.974149    0.000000    1.000000
   191  Na    c     6.788425    9.002838    1.974149    0.000000    1.000000
   192  Cl    c     4.520832   -4.524926    9.096832    0.000000    1.485000
   193  Cl    c    -0.013045   -4.524926    9.096832    0.000000    1.485000
   194  Na    c     4.507281   -6.671010    6.769056    0.000000    1.000000
   195  Na    c     0.000506   -6.671010    6.769056    0.000000    1.000000
   196  O     c     6.745516    2.235572   -6.733649    0.000000    0.183000
   197  O     c    -2.237729    2.235572   -6.733649    0.000000    0.183000
   198  O     c     6.763982   -6.743387   -2.264856    0.000000    0.183000
   199  O     c    -2.256195   -6.743387   -2.264856    0.000000    0.183000
   200  O     c    11.257957   -2.248632    2.252008    0.000000    0.183000
   201  O     c    -6.750170   -2.248632    2.252008    0.000000    0.183000
   202  Na    c    -2.211926    6.964936   -4.496526    0.000000    1.000000
   203  Na    c     6.719713    6.964936   -4.496526    0.000000    1.000000
   204  Na    c     2.253894    6.593316    8.989395    0.000000    1.000000
   205  Na    c    11.386228    2.109039    4.499227    0.000000    1.000000
   206  Na    c    -6.878441    2.109039    4.499227    0.000000    1.000000
   207  Na    c    11.295344   -2.390294    0.005303    0.000000    1.000000
   208  Na    c    -6.787557   -2.390294    0.005303    0.000000    1.000000
   209  Na    c     2.253894   -6.791476   -4.506978    0.000000    1.000000
   210  Na    c     9.014133    6.720679   -2.281841    0.000000    1.000000
   211  Na    c    -4.506345    6.720679   -2.281841    0.000000    1.000000
   212  Cl    c     9.065321    4.522719   -4.494300    0.000000    1.485000
   213  Cl    c    -4.557533    4.522719   -4.494300    0.000000    1.485000
   214  Na    c     2.253894    8.982711    6.754195    0.000000    1.000000
   215  Na    c     2.253894   -4.507425   -6.812336    0.000000    1.000000
   216  Na    c    11.210299   -0.005153   -2.149090    0.000000    1.000000
   217  Na    c    -6.702511   -0.005153   -2.149090    0.000000    1.000000
   218  Na    c    11.350613    4.503725    2.339020    0.000000    1.000000
   219  Na    c    -6.842826    4.503725    2.339020    0.000000    1.000000
   220  Na    c     2.253894    0.000903   11.123717    0.000000    1.000000
   221  Na    c     2.253894   -9.013709    2.124421    0.000000    1.000000
   222  O     c    11.252955    2.254718   -2.252353    0.000000    0.183000
   223  O     c    -6.745168    2.254718   -2.252353    0.000000    0.183000
   224  O     c    -2.262179   -2.241686   -6.756027    0.000000    0.183000
   225  O     c     6.769966   -2.241686   -6.756027    0.000000    0.183000
   226  O     c     2.253894    2.266097   11.255019    0.000000    0.183000
   227  Na    c    11.224149   -2.117501    4.508255    0.000000    1.000000
   228  Na    c    -6.716361   -2.117501    4.508255    0.000000    1.000000
   229  Na    c    -2.265425    8.996598   -2.083175    0.000000    1.000000
   230  Na    c     6.773212    8.996598   -2.083175    0.000000    1.000000
   231  Na    c     6.770634    4.505795   -6.561219    0.000000    1.000000
   232  Na    c    -2.262847    4.505795   -6.561219    0.000000    1.000000
   233  Na    c     4.508762    2.163582   11.228816    0.000000    1.000000
   234  Na    c    -0.000975    2.163582   11.228816    0.000000    1.000000
   235  Cl    c     4.505945   -9.084477    0.001455    0.000000    1.485000
   236  Cl    c     0.001842   -9.084477    0.001455    0.000000    1.485000
   237  Cl    c     9.073626   -0.007033    9.007517    0.000000    1.485000
   238  Cl    c    -4.565839   -0.007033    9.007517    0.000000    1.485000
   239  Na    c     9.005418   -6.625681    2.303883    0.000000    1.000000
   240  Na    c    -4.497631   -6.625681    2.303883    0.000000    1.000000
   241  O     c     2.253894    6.721467   -6.750501    0.000000    0.183000
   242  O     c    11.272298   -2.265057   -2.243328    0.000000    0.183000
   243  O     c    -6.764511   -2.265057   -2.243328    0.000000    0.183000
   244  O     c     2.253894   -2.261110   11.246619    0.000000    0.183000
   245  O     c     6.767646   -6.755517    6.744731    0.000000    0.183000
[...]
    239 y          4.507787      4.628619     0.120832    Cartesian    2.68
    239 z          4.507787      4.584228     0.076441    Cartesian    1.70
    240 x          2.253894      2.253894     0.000000    Cartesian    0.00
    240 y          2.253894      2.231122    -0.022772    Cartesian   -1.01
    240 z          6.761681      6.750841    -0.010840    Cartesian   -0.16
    241 x         -2.253894     -2.227585     0.026309    Cartesian   -1.17
    241 y         -2.253894     -2.218412     0.035482    Cartesian   -1.57
    241 z          2.253894      2.255841     0.001948    Cartesian    0.09
    242 x          4.507787      4.519114     0.011327    Cartesian    0.25
    242 y         -4.507787     -4.591672    -0.083885    Cartesian    1.86
    242 z         -0.000000     -0.124681    -0.124681    Cartesian *******
    243 x          2.253894      2.253894     0.000000    Cartesian    0.00
    243 y          6.761681      6.774278     0.012597    Cartesian    0.19
    243 z          2.253894      2.213945    -0.039949    Cartesian   -1.77
    244 x         -2.253894     -2.229732     0.024162    Cartesian   -1.07
    244 y          2.253894      2.251992    -0.001901    Cartesian   -0.08
    244 z         -2.253894     -2.225062     0.028832    Cartesian   -1.28
    245 x          2.253894      2.253894     0.000000    Cartesian    0.00
    245 y         -2.253894     -2.236660     0.017233    Cartesian   -0.76
    245 z          6.761681      6.707590    -0.054091    Cartesian   -0.80
    246 x          4.507787      4.492230    -0.015557    Cartesian   -0.35
    246 y          0.000000     -0.123024    -0.123024    Cartesian    0.00
    246 z         -4.507787     -4.569201    -0.061414    Cartesian    1.36
    247 x          4.507787      4.540414     0.032627    Cartesian    0.72
    247 y         -4.507787     -4.632250    -0.124463    Cartesian    2.76
    247 z          4.507787      4.589323     0.081535    Cartesian    1.81
    248 x         -2.253894     -2.261493    -0.007599    Cartesian    0.34
    248 y         -2.253894     -2.255757    -0.001863    Cartesian    0.08
    248 z         -2.253894     -2.250025     0.003869    Cartesian   -0.17
    249 x          9.015574      9.086732     0.071157    Cartesian    0.79
    249 y          0.000000      0.004234     0.004234    Cartesian    0.00
    249 z         -0.000000     -0.023291    -0.023291    Cartesian *******
    250 x          2.253894      2.253894     0.000000    Cartesian    0.00
    250 y          6.761681      6.689152    -0.072528    Cartesian   -1.07
    250 z         -2.253894     -2.207402     0.046491    Cartesian   -2.06
    251 x          6.761681      6.767811     0.006130    Cartesian    0.09
    251 y          2.253894      2.252697    -0.001197    Cartesian   -0.05
    251 z          6.761681      6.752222    -0.009459    Cartesian   -0.14
    252 x          4.507787      4.577985     0.070198    Cartesian    1.56
    252 y          4.507787      4.561212     0.053424    Cartesian    1.19
    252 z         -4.507787     -4.613109    -0.105322    Cartesian    2.34
    253 x          9.015574      9.061279     0.045705    Cartesian    0.51
    253 y          0.000000      0.048498     0.048498    Cartesian    0.00
    253 z          4.507787      4.495650    -0.012137    Cartesian   -0.27
    254 x         -2.253894     -2.263131    -0.009238    Cartesian    0.41
    254 y          6.761681      6.762079     0.000398    Cartesian    0.01
    254 z          2.253894      2.262274     0.008381    Cartesian    0.37
    255 x          2.253894      2.253894     0.000000    Cartesian    0.00
    255 y         -6.761681     -6.752603     0.009078    Cartesian   -0.13
    255 z          2.253894      2.257977     0.004084    Cartesian    0.18
    256 x          6.761681      6.771448     0.009767    Cartesian    0.14
    256 y         -2.253894     -2.247042     0.006852    Cartesian   -0.30
    256 z          6.761681      6.753462    -0.008218    Cartesian   -0.12
    257 x          9.015574      9.092564     0.076990    Cartesian    0.85
    257 y          4.507787      4.543344     0.035557    Cartesian    0.79
    257 z         -0.000000      0.020324     0.020324    Cartesian *******
    258 x          4.507787      4.511620     0.003833    Cartesian    0.09
    258 y          0.000000      0.005644     0.005644    Cartesian    0.00
    258 z          9.015574      9.065393     0.049819    Cartesian    0.55
    259 x          2.253894      2.253894     0.000000    Cartesian    0.00
    259 y          6.761681      6.709907    -0.051774    Cartesian   -0.77
    259 z          6.761681      6.733856    -0.027825    Cartesian   -0.41
    260 x          4.507787      4.463082    -0.044705    Cartesian   -0.99
    260 y         -4.507787     -4.542197    -0.034410    Cartesian    0.76
    260 z         -4.507787     -4.539783    -0.031996    Cartesian    0.71
    261 x          9.015574      9.062253     0.046678    Cartesian    0.52
    261 y          4.507787      4.521797     0.014010    Cartesian    0.31
    261 z          4.507787      4.496461    -0.011326    Cartesian   -0.25
    262 x         -2.253894     -2.256428    -0.002535    Cartesian    0.11
    262 y          6.761681      6.733456    -0.028225    Cartesian   -0.42
    262 z         -2.253894     -2.259299    -0.005406    Cartesian    0.24
    263 x          2.253894      2.253894     0.000000    Cartesian    0.00
    263 y          2.253894      2.268656     0.014762    Cartesian    0.65
    263 z         -6.761681     -6.740260     0.021421    Cartesian   -0.32
    264 x          2.253894      2.253894     0.000000    Cartesian    0.00
    264 y         -6.761681     -6.764771    -0.003090    Cartesian    0.05
    264 z         -2.253894     -2.241990     0.011904    Cartesian   -0.53
    265 x          4.507787      4.512217     0.004430    Cartesian    0.10
    265 y          9.015574      9.047381     0.031807    Cartesian    0.35
    265 z         -0.000000     -0.007476    -0.007476    Cartesian *******
    266 x          4.507787      4.520950     0.013163    Cartesian    0.29
    266 y          4.507787      4.537873     0.030086    Cartesian    0.67
    266 z          9.015574      9.080287     0.064713    Cartesian    0.72
    267 x          9.015574      9.072036     0.056461    Cartesian    0.63
    267 y         -4.507787     -4.494632     0.013155    Cartesian   -0.29
    267 z         -0.000000      0.000046     0.000046    Cartesian *******
    268 x          2.253894      2.253894     0.000000    Cartesian    0.00
    268 y         -2.253894     -2.257560    -0.003667    Cartesian    0.16
    268 z         -6.761681     -6.753112     0.008569    Cartesian   -0.13
    269 x          6.761681      6.750179    -0.011502    Cartesian   -0.17
    269 y         -6.761681     -6.718371     0.043310    Cartesian   -0.64
    269 z          2.253894      2.253725    -0.000168    Cartesian   -0.01
    270 x          4.507787      4.471556    -0.036231    Cartesian   -0.80
    270 y          9.015574      9.058133     0.042559    Cartesian    0.47
    270 z          4.507787      4.509307     0.001520    Cartesian    0.03
    271 x          9.015574      9.055137     0.039563    Cartesian    0.44
    271 y          0.000000      0.017472     0.017472    Cartesian    0.00
    271 z         -4.507787     -4.512313    -0.004525    Cartesian    0.10
    272 x          9.015574      9.067129     0.051555    Cartesian    0.57
    272 y         -4.507787     -4.504125     0.003662    Cartesian   -0.08
    272 z          4.507787      4.488247    -0.019540    Cartesian   -0.43
    273 x         -2.253894     -2.261778    -0.007885    Cartesian    0.35
    273 y          6.761681      6.769938     0.008257    Cartesian    0.12
    273 z          6.761681      6.748187    -0.013494    Cartesian   -0.20
    274 x         11.269468     11.260250    -0.009218    Cartesian   -0.08
    274 y          2.253894      2.251170    -0.002724    Cartesian   -0.12
    274 z          2.253894      2.250005    -0.003889    Cartesian   -0.17
    275 x          2.253894      2.253894     0.000000    Cartesian    0.00
    275 y         -6.761681     -6.739793     0.021887    Cartesian   -0.32
    275 z          6.761681      6.751373    -0.010308    Cartesian   -0.15
    276 x          4.507787      4.524256     0.016469    Cartesian    0.37
    276 y         -4.507787     -4.523788    -0.016000    Cartesian    0.35
    276 z          9.015574      9.105624     0.090050    Cartesian    1.00
    277 x          6.761681      6.745484    -0.016197    Cartesian   -0.24
    277 y          2.253894      2.235538    -0.018356    Cartesian   -0.81
    277 z         -6.761681     -6.733692     0.027989    Cartesian   -0.41
    278 x          6.761681      6.763982     0.002301    Cartesian    0.03
    278 y         -6.761681     -6.743393     0.018288    Cartesian   -0.27
    278 z         -2.253894     -2.264904    -0.011010    Cartesian    0.49
    279 x         11.269468     11.257970    -0.011498    Cartesian   -0.10
    279 y         -2.253894     -2.248659     0.005235    Cartesian   -0.23
    279 z          2.253894      2.251987    -0.001906    Cartesian   -0.08
    280 x          9.015574      9.066222     0.050647    Cartesian    0.56
    280 y          4.507787      4.521798     0.014011    Cartesian    0.31
    280 z         -4.507787     -4.489981     0.017807    Cartesian   -0.40
    281 x         11.269468     11.252957    -0.016511    Cartesian   -0.15
    281 y          2.253894      2.254739     0.000846    Cartesian    0.04
    281 z         -2.253894     -2.252373     0.001521    Cartesian   -0.07
    282 x         -2.253894     -2.262193    -0.008300    Cartesian    0.37
    282 y         -2.253894     -2.241658     0.012236    Cartesian   -0.54
    282 z         -6.761681     -6.756065     0.005616    Cartesian   -0.08
    283 x          2.253894      2.253894     0.000000    Cartesian    0.00
    283 y          2.253894      2.266127     0.012234    Cartesian    0.54
    283 z         11.269468     11.255016    -0.014452    Cartesian   -0.13
    284 x          4.507787      4.505598    -0.002189    Cartesian   -0.05
    284 y         -9.015574     -9.092758    -0.077184    Cartesian    0.86
    284 z         -0.000000      0.001816     0.001816    Cartesian *******
    285 x          9.015574      9.077448     0.061873    Cartesian    0.69
    285 y          0.000000     -0.009346    -0.009346    Cartesian    0.00
    285 z          9.015574      9.003227    -0.012348    Cartesian   -0.14
    286 x          2.253894      2.253894     0.000000    Cartesian    0.00
    286 y          6.761681      6.721400    -0.040281    Cartesian   -0.60
    286 z         -6.761681     -6.750570     0.011111    Cartesian   -0.16
    287 x         11.269468     11.272303     0.002835    Cartesian    0.03
    287 y         -2.253894     -2.265094    -0.011200    Cartesian    0.50
    287 z         -2.253894     -2.243314     0.010579    Cartesian   -0.47
    288 x          2.253894      2.253894     0.000000    Cartesian    0.00
    288 y         -2.253894     -2.261143    -0.007249    Cartesian    0.32
    288 z         11.269468     11.246631    -0.022837    Cartesian   -0.20
    289 x          6.761681      6.767653     0.005972    Cartesian    0.09
    289 y         -6.761681     -6.755554     0.006127    Cartesian   -0.09
    289 z          6.761681      6.744713    -0.016967    Cartesian   -0.25
    290 x          4.507787      4.513242     0.005455    Cartesian    0.12
    290 y          9.015574      9.054519     0.038944    Cartesian    0.43
    290 z         -4.507787     -4.518864    -0.011077    Cartesian    0.25
    291 x          9.015574      9.062932     0.047357    Cartesian    0.53
    291 y         -4.507787     -4.540374    -0.032587    Cartesian    0.72
    291 z         -4.507787     -4.504819     0.002968    Cartesian   -0.07
    292 x          4.507787      4.505784    -0.002003    Cartesian   -0.04
    292 y         -9.015574     -9.015840    -0.000266    Cartesian    0.00
    292 z          4.507787      4.514473     0.006686    Cartesian    0.15
    293 x          2.253894      2.253894     0.000000    Cartesian    0.00
    293 y         11.269468     11.266472    -0.002996    Cartesian   -0.03
    293 z          2.253894      2.265854     0.011961    Cartesian    0.53
    294 x         11.269468     11.276721     0.007253    Cartesian    0.06
    294 y          2.253894      2.248358    -0.005535    Cartesian   -0.25
    294 z          6.761681      6.752304    -0.009377    Cartesian   -0.14
    295 x          9.015574      9.015633     0.000059    Cartesian    0.00
    295 y          9.015574      9.070513     0.054938    Cartesian    0.61
    295 z         -0.000000     -0.013554    -0.013554    Cartesian *******
    296 x          4.507787      4.492509    -0.015278    Cartesian   -0.34
    296 y          0.000000      0.016143     0.016143    Cartesian    0.00
    296 z         -9.015574     -9.043290    -0.027715    Cartesian    0.31
    297 x          9.015574      9.037077     0.021503    Cartesian    0.24
    297 y          4.507787      4.513416     0.005629    Cartesian    0.12
    297 z          9.015574      9.068640     0.053066    Cartesian    0.59
    298 x         11.269468     11.279736     0.010268    Cartesian    0.09
    298 y          6.761681      6.760357    -0.001324    Cartesian   -0.02
    298 z          2.253894      2.263507     0.009613    Cartesian    0.43
    299 x         -2.253894     -2.256951    -0.003058    Cartesian    0.14
    299 y          2.253894      2.271744     0.017850    Cartesian    0.79
    299 z         11.269468     11.255173    -0.014295    Cartesian   -0.13
    300 x         11.269468     11.269150    -0.000318    Cartesian   -0.00
    300 y         -2.253894     -2.238272     0.015622    Cartesian   -0.69
    300 z          6.761681      6.766254     0.004573    Cartesian    0.07
    301 x          9.015574      9.076418     0.060844    Cartesian    0.67
    301 y          9.015574      9.017494     0.001920    Cartesian    0.02
    301 z          4.507787      4.531259     0.023471    Cartesian    0.52
    302 x          2.253894      2.253894     0.000000    Cartesian    0.00
    302 y         11.269468     11.233595    -0.035873    Cartesian   -0.32
    302 z         -2.253894     -2.273375    -0.019481    Cartesian    0.86
    303 x         -2.253894     -2.261523    -0.007630    Cartesian    0.34
    303 y          6.761681      6.775147     0.013466    Cartesian    0.20
    303 z         -6.761681     -6.747689     0.013992    Cartesian   -0.21
    304 x          2.253894      2.253894     0.000000    Cartesian    0.00
    304 y         -6.761681     -6.761780    -0.000099    Cartesian    0.00
    304 z         -6.761681     -6.773346    -0.011665    Cartesian    0.17
    305 x          6.761681      6.764360     0.002679    Cartesian    0.04
    305 y         -2.253894     -2.265779    -0.011885    Cartesian    0.53
    305 z         11.269468     11.257869    -0.011599    Cartesian   -0.10
    306 x          4.507787      4.490983    -0.016804    Cartesian   -0.37
    306 y          4.507787      4.506504    -0.001283    Cartesian   -0.03
    306 z         -9.015574     -9.049989    -0.034415    Cartesian    0.38
    307 x          4.507787      4.548367     0.040580    Cartesian    0.90
    307 y          9.015574      9.058705     0.043130    Cartesian    0.48
    307 z          9.015574      9.031786     0.016211    Cartesian    0.18
    308 x         13.523362     13.602893     0.079532    Cartesian    0.59
    308 y          0.000000     -0.002122    -0.002122    Cartesian    0.00
    308 z         -0.000000      0.010430     0.010430    Cartesian *******
    309 x          9.015574      9.030991     0.015416    Cartesian    0.17
    309 y         -4.507787     -4.507155     0.000633    Cartesian   -0.01
    309 z          9.015574      9.039149     0.023574    Cartesian    0.26
    310 x          6.761681      6.765897     0.004216    Cartesian    0.06
    310 y         11.269468     11.262130    -0.007338    Cartesian   -0.07
    310 z          2.253894      2.229548    -0.024346    Cartesian   -1.08
    311 x         11.269468     11.274539     0.005071    Cartesian    0.04
    311 y          6.761681      6.761336    -0.000345    Cartesian   -0.01
    311 z         -2.253894     -2.257328    -0.003434    Cartesian    0.15
    312 x          2.253894      2.253894     0.000000    Cartesian    0.00
    312 y          6.761681      6.764398     0.002717    Cartesian    0.04
    312 z         11.269468     11.261039    -0.008429    Cartesian   -0.07
    313 x         13.523362     13.570487     0.047125    Cartesian    0.35
    313 y          0.000000     -0.003055    -0.003055    Cartesian    0.00
    313 z          4.507787      4.527591     0.019804    Cartesian    0.44
    314 x          4.507787      4.538891     0.031104    Cartesian    0.69
    314 y         -9.015574     -9.022414    -0.006839    Cartesian    0.08
    314 z         -4.507787     -4.561866    -0.054078    Cartesian    1.20
    315 x          2.253894      2.253894     0.000000    Cartesian    0.00
    315 y         11.269468     11.266466    -0.003002    Cartesian   -0.03
    315 z          6.761681      6.764809     0.003128    Cartesian    0.05
    316 x         11.269468     11.273800     0.004332    Cartesian    0.04
    316 y         -6.761681     -6.749878     0.011803    Cartesian   -0.17
    316 z          2.253894      2.263537     0.009643    Cartesian    0.43
    317 x         13.523362     13.570384     0.047022    Cartesian    0.35
    317 y          4.507787      4.502976    -0.004811    Cartesian   -0.11
    317 z         -0.000000     -0.001017    -0.001017    Cartesian *******
    318 x          4.507787      4.525337     0.017549    Cartesian    0.39
    318 y         -4.507787     -4.519955    -0.012168    Cartesian    0.27
    318 z         -9.015574     -9.065030    -0.049456    Cartesian    0.55
    319 x          9.015574      8.989717    -0.025857    Cartesian   -0.29
    319 y         -9.015574     -9.099206    -0.083632    Cartesian    0.93
    319 z         -0.000000     -0.012309    -0.012309    Cartesian *******
--------------------------------------------------------------------------------


  Time to end of optimisation  =      156.9361 seconds


  Peak dynamic memory used =      94.24 MB 


  Timing analysis for GULP :

--------------------------------------------------------------------------------
  Task / Subroutine                                          Time (Seconds)
--------------------------------------------------------------------------------
  Calculation of reciprocal space energy and derivatives          0.0008
  Calculation of reciprocal space energy using symmetry           0.0011
  Calculation of real space energy and derivatives                0.0041
  Calculation of real space energy using symmetry                 0.0102
  Calculation for region 1 energy and derivatives (2-b)          92.4207
  Calculation for region 2a energy                               56.2461
  Calculation for region 2b energy                                0.0278
  Calculation and manipulation of Hessian matrix                  0.2657
  Calculation of matrix inversion                                 7.3326
  Symmetry generation of equivalent positions                     0.0053
--------------------------------------------------------------------------------
  Total CPU time                                                156.9362
--------------------------------------------------------------------------------


  Dump file written as Na3OCl.grs


  Job Finished at 16:15.25 26th November   2020                               

