********************************************************************************
*                       GENERAL UTILITY LATTICE PROGRAM                        *
*                                 Julian Gale                                  *
*                       Curtin Institute for Computation                       *
*                    School of Molecular and Life Sciences                     *
*                    Curtin University, Western Australia                      *
********************************************************************************
* Version = 5.2.0 * Last modified =  10th September 2020                       *
********************************************************************************
*  optimise     - perform optimisation run                                     *
*  conp         - constant pressure calculation                                *
*  property     - calculate properties for final geometry                      *
*  defect       - perform defect calculation after bulk run                    *
*  compare      - compare initial and final structures                         *
********************************************************************************

  Job Started  at 16:17.20 26th November   2020                               

  Number of CPUs =     1


  Total number of configurations input =      1

********************************************************************************
*  Input for Configuration =   1                                               *
********************************************************************************

  Formula = ClONa3                                                      

  Number of irreducible atoms/shells =       5


  Total number atoms/shells =       7

  Dimensionality = 3               :  Bulk   


  Symmetry :

  Crystal family                   :  Cubic       
  Crystal class  (Groth - 1921)    :  Cubic Hexakisoctahedral              

  Space group (centrosymmetric)    :  P M 3 M         

  Patterson group                  :  P m -3 m 

  Cartesian lattice vectors (Angstroms) :

        4.504000    0.000000    0.000000
        0.000000    4.504000    0.000000
        0.000000    0.000000    4.504000

  Cell parameters (Angstroms/Degrees):

  a =       4.5040    alpha =  90.0000
  b =       4.5040    beta  =  90.0000
  c =       4.5040    gamma =  90.0000

  Initial cell volume =          91.368216 Angs**3

  Temperature of configuration =   0.00     K 

  Pressure of configuration =         0.000 GPa 

  Fractional coordinates of asymmetric unit :

--------------------------------------------------------------------------------
   No.  Atomic       x           y          z         Charge      Occupancy
        Label      (Frac)      (Frac)     (Frac)        (e)         (Frac)  
--------------------------------------------------------------------------------
      1 Cl    c    0.000000    0.000000    0.000000     1.48500    1.000000    
      2 O     c    0.500000    0.500000    0.500000     0.18300    1.000000    
      3 Na    c    0.500000    0.500000    0.000000     1.00000    1.000000    
      4 Cl    s    0.000000    0.000000    0.000000    -2.48500    1.000000    
      5 O     s    0.500000    0.500000    0.500000    -2.18300    1.000000    
--------------------------------------------------------------------------------


  Constraints : 

--------------------------------------------------------------------------------
  Constraint no.      Unconstrained     Constrained    Coefficient    Offset
                         Variable         Variable
--------------------------------------------------------------------------------
           1              Strain 1        Strain 2       1.00000      0.0000
           2              Strain 1        Strain 3       1.00000      0.0000
--------------------------------------------------------------------------------


********************************************************************************
*  General input information                                                   *
********************************************************************************

  Species output for all configurations : 

--------------------------------------------------------------------------------
  Species    Type    Atomic    Atomic    Charge       Radii (Angs)     Library
                     Number     Mass       (e)     Cova   Ionic  VDW   Symbol
--------------------------------------------------------------------------------
    Na       Core       11      22.99   1.000000   0.970  0.000  2.300          
    O        Core        8      16.00   0.183000   0.730  0.000  1.360          
    O        Shell       8       0.00  -2.183000   0.730  0.000  1.360          
    Cl       Core       17      35.45   1.485000   0.990  0.000  1.650          
    Cl       Shell      17       0.00  -2.485000   0.990  0.000  1.650          
--------------------------------------------------------------------------------


  Lattice summation method               =    Ewald          (3-D)
                                         =    Parry          (2-D)
                                         =    Saunders et al (1-D)
  Accuracy factor for lattice sums       =   12.000


  Analytic derivatives to be used

  Time limit = Infinity

  Maximum range for interatomic potentials =    100000.000000 Angstroms

  General interatomic potentials :

--------------------------------------------------------------------------------
Atom  Types   Potential      Parameter       Value         Units   Cutoffs(Ang)
  1     2                                                            Min /  Max 
--------------------------------------------------------------------------------
O    c O    s Spring (c-s)  Spring k 2       593.72000    eV*Ang^-2 0.000  0.800
                            Spring k 4       0.0000000    eV*Ang^-4 
--------------------------------------------------------------------------------
Cl   c Cl   s Spring (c-s)  Spring k 2       29.380000    eV*Ang^-2 0.000  0.800
                            Spring k 4       0.0000000    eV*Ang^-4 
--------------------------------------------------------------------------------
Na   c Na   c Buckingham    Buckingham A     1788.1900    eV        0.000 12.000
                            Buckingham rho  0.15900000    Ang       
                            Buckingham C     0.0000000    eV*Ang^6  
--------------------------------------------------------------------------------
Na   c O    s Buckingham    Buckingham A     1226.8400    eV        0.000 12.000
                            Buckingham rho  0.30700000    Ang       
                            Buckingham C     0.0000000    eV*Ang^6  
--------------------------------------------------------------------------------
Na   c Cl   s Buckingham    Buckingham A     2314.7000    eV        0.000 12.000
                            Buckingham rho  0.29000000    Ang       
                            Buckingham C     0.0000000    eV*Ang^6  
--------------------------------------------------------------------------------
O    s O    s Buckingham    Buckingham A     22764.300    eV        0.000 12.000
                            Buckingham rho  0.14900000    Ang       
                            Buckingham C     13.190000    eV*Ang^6  
--------------------------------------------------------------------------------
O    s Cl   s Buckingham    Buckingham A     8286.9100    eV        0.000 12.000
                            Buckingham rho  0.25900000    Ang       
                            Buckingham C     62.200000    eV*Ang^6  
--------------------------------------------------------------------------------
Cl   s Cl   s Buckingham    Buckingham A     1227.2000    eV        0.000 12.000
                            Buckingham rho  0.32100000    Ang       
                            Buckingham C     14.530000    eV*Ang^6  
--------------------------------------------------------------------------------

********************************************************************************
*  Output for configuration   1                                                *
********************************************************************************


  Components of energy : 

--------------------------------------------------------------------------------
  Interatomic potentials     =           5.13022605 eV    
  Monopole - monopole (real) =         -10.03624526 eV    
  Monopole - monopole (recip)=         -29.53581274 eV    
  Monopole - monopole (total)=         -39.57205800 eV    
--------------------------------------------------------------------------------
  Total lattice energy       =         -34.44183194 eV    
--------------------------------------------------------------------------------
  Total lattice energy       =           -3323.1103 kJ/(mole unit cells)
--------------------------------------------------------------------------------


  Number of variables =        1

  Maximum number of calculations  =          1000
  Maximum Hessian update interval =            10
  Maximum step size               =   1.000000000
  Maximum parameter tolerance     =   0.000010000
  Maximum function  tolerance     =   0.000010000
  Maximum gradient  tolerance     =   0.001000000
  Maximum gradient  component     =   0.010000000

  Symmetry constrained optimisation

  Symmetry used for second derivatives

  Cell parameters to be optimised using strains

  Newton-Raphson optimiser to be used

  BFGS hessian update to be used

  Lower half triangular hessian to be used

  Start of bulk optimisation :

  Cycle:      0 Energy:       -34.441832  Gnorm:      0.196570  CPU:    0.018
  ** Hessian calculated **
  Cycle:      1 Energy:       -34.441914  Gnorm:      0.000103  CPU:    0.023


  **** Optimisation achieved ****


  Final energy =     -34.44191447 eV
  Final Gnorm  =       0.00000000

  Components of energy : 

--------------------------------------------------------------------------------
  Interatomic potentials     =           5.09689708 eV    
  Monopole - monopole (real) =         -10.02781331 eV    
  Monopole - monopole (recip)=         -29.51099824 eV    
  Monopole - monopole (total)=         -39.53881155 eV    
--------------------------------------------------------------------------------
  Total lattice energy       =         -34.44191447 eV    
--------------------------------------------------------------------------------
  Total lattice energy       =           -3323.1183 kJ/(mole unit cells)
--------------------------------------------------------------------------------

  Final asymmetric unit coordinates :

--------------------------------------------------------------------------------
   No.  Atomic        x           y           z         Radius
        Label       (Frac)      (Frac)      (Frac)       (Angs) 
--------------------------------------------------------------------------------
     1  Cl    c     0.000000    0.000000    0.000000    0.000000
     2  O     c     0.500000    0.500000    0.500000    0.000000
     3  Na    c     0.500000    0.500000    0.000000    0.000000
     4  Cl    s     0.000000    0.000000    0.000000    0.000000
     5  O     s     0.500000    0.500000    0.500000    0.000000
--------------------------------------------------------------------------------

  Final Cartesian lattice vectors (Angstroms) :

        4.507787    0.000000    0.000000
        0.000000    4.507787    0.000000
        0.000000    0.000000    4.507787


  Final cell parameters and derivatives :

--------------------------------------------------------------------------------
       a            4.507787 Angstrom     dE/de1(xx)     0.000000 eV/strain
       b            4.507787 Angstrom     dE/de2(yy)     0.000000 eV/strain
       c            4.507787 Angstrom     dE/de3(zz)     0.000000 eV/strain
       alpha       90.000000 Degrees      dE/de4(yz)     0.000000 eV/strain
       beta        90.000000 Degrees      dE/de5(xz)     0.000000 eV/strain
       gamma       90.000000 Degrees      dE/de6(xy)     0.000000 eV/strain
--------------------------------------------------------------------------------

  Primitive cell volume =            91.598892 Angs**3

  Density of cell =      2.183054 g/cm**3

  Non-primitive cell volume =            91.598892 Angs**3


  Final internal derivatives :

--------------------------------------------------------------------------------
   No.  Atomic          a             b             c           Radius
        Label          (eV)          (eV)          (eV)        (eV/Angs)
--------------------------------------------------------------------------------
      1 Cl    c       0.000000      0.000000      0.000000      0.000000
      2 O     c       0.000000      0.000000      0.000000      0.000000
      3 Na    c       0.000000      0.000000      0.000000      0.000000
      4 Cl    s       0.000000      0.000000      0.000000      0.000000
      5 O     s       0.000000      0.000000      0.000000      0.000000
--------------------------------------------------------------------------------
  Maximum abs         0.000000      0.000000      0.000000      0.000000
--------------------------------------------------------------------------------

  Comparison of initial and final structures : 

--------------------------------------------------------------------------------
  Parameter   Initial value   Final value   Difference    Units      Percent
--------------------------------------------------------------------------------
    Volume        91.368216     91.598892     0.230676    Angs**3      0.25
    a              4.504000      4.507787     0.003787    Angstroms    0.08
    b              4.504000      4.507787     0.003787    Angstroms    0.08
    c              4.504000      4.507787     0.003787    Angstroms    0.08
    alpha         90.000000     90.000000     0.000000    Degrees      0.00
    beta          90.000000     90.000000     0.000000    Degrees      0.00
    gamma         90.000000     90.000000     0.000000    Degrees      0.00
      1 x          0.000000      0.000000     0.000000    Fractional   0.00
      1 y          0.000000      0.000000     0.000000    Fractional   0.00
      1 z          0.000000      0.000000     0.000000    Fractional   0.00
      2 x          0.500000      0.500000     0.000000    Fractional   0.00
      2 y          0.500000      0.500000     0.000000    Fractional   0.00
      2 z          0.500000      0.500000     0.000000    Fractional   0.00
      3 x          0.500000      0.500000     0.000000    Fractional   0.00
      3 y          0.500000      0.500000     0.000000    Fractional   0.00
      3 z          0.000000      0.000000     0.000000    Fractional   0.00
      4 x          0.000000      0.000000     0.000000    Fractional   0.00
      4 y          0.000000      0.000000     0.000000    Fractional   0.00
      4 z          0.000000      0.000000     0.000000    Fractional   0.00
      5 x          0.500000      0.500000     0.000000    Fractional   0.00
      5 y          0.500000      0.500000     0.000000    Fractional   0.00
      5 z          0.500000      0.500000     0.000000    Fractional   0.00
--------------------------------------------------------------------------------


  Born effective charge tensors : 

-------------------------------------------------------------------------------
  Atom             x           y             z
-------------------------------------------------------------------------------
    1 Cl    x      -1.0181     -0.0000      0.0000
            y      -0.0000     -1.0181      0.0000
            z       0.0000      0.0000     -1.0181
-------------------------------------------------------------------------------
    2 O     x      -2.2647      0.0000     -0.0000
            y       0.0000     -2.2647     -0.0000
            z      -0.0000     -0.0000     -2.2647
-------------------------------------------------------------------------------
    3 Na    x       1.2258     -0.0000      0.0000
            y      -0.0000      1.2258     -0.0000
            z       0.0000     -0.0000      0.8313
-------------------------------------------------------------------------------




  Elastic Constant Matrix: (Units=GPa)

-------------------------------------------------------------------------------
  Indices      1         2         3         4         5         6    
-------------------------------------------------------------------------------
       1     95.8177   20.0737   20.0737   -0.0000   -0.0000    0.0000
       2     20.0737   95.8177   20.0737   -0.0000   -0.0000    0.0000
       3     20.0737   20.0737   95.8177   -0.0000   -0.0000    0.0000
       4     -0.0000   -0.0000   -0.0000   20.0737   -0.0000    0.0000
       5     -0.0000   -0.0000   -0.0000   -0.0000   20.0737    0.0000
       6      0.0000    0.0000    0.0000    0.0000    0.0000   20.0737
-------------------------------------------------------------------------------


  Elastic Compliance Matrix: (Units=1/GPa)

-------------------------------------------------------------------------------
  Indices      1         2         3         4         5         6    
-------------------------------------------------------------------------------
       1    0.011253 -0.001949 -0.001949  0.000000  0.000000 -0.000000
       2   -0.001949  0.011253 -0.001949  0.000000  0.000000  0.000000
       3   -0.001949 -0.001949  0.011253  0.000000  0.000000 -0.000000
       4    0.000000  0.000000  0.000000  0.049816  0.000000 -0.000000
       5    0.000000  0.000000  0.000000  0.000000  0.049816 -0.000000
       6   -0.000000  0.000000 -0.000000 -0.000000 -0.000000  0.049816
-------------------------------------------------------------------------------

  Mechanical properties :

-------------------------------------------------------------------------------
  Convention :                    Reuss         Voigt         Hill
-------------------------------------------------------------------------------
  Bulk  Modulus (GPa)     =      45.32174      45.32174      45.32174
  Shear Modulus (GPa)     =      24.72085      27.19304      25.95695
-------------------------------------------------------------------------------
  Velocity S-wave (km/s)  =       3.36511       3.52937       3.44822
  Velocity P-wave (km/s)  =       5.98827       6.11304       6.05098
-------------------------------------------------------------------------------
  Compressibility (1/GPa) =    0.02206447
-------------------------------------------------------------------------------
  Stress axis :                     x             y             z
-------------------------------------------------------------------------------
  Youngs Moduli (GPa)     =      88.86373      88.86373      88.86373
-------------------------------------------------------------------------------
  Poissons Ratio (x)      =                     0.17321       0.17321
  Poissons Ratio (y)      =       0.17321                     0.17321
  Poissons Ratio (z)      =       0.17321       0.17321
-------------------------------------------------------------------------------


  Piezoelectric Strain Matrix: (Units=C/m**2)

-------------------------------------------------------------------------------
  Indices      1         2         3         4         5         6    
-------------------------------------------------------------------------------
       x    -0.00000  -0.00000  -0.00000   0.00000  -0.00000  -0.00000
       y    -0.00000  -0.00000   0.00000  -0.00000   0.00000   0.00000
       z    -0.00000  -0.00000  -0.00000  -0.00000   0.00000   0.00000
-------------------------------------------------------------------------------


  Piezoelectric Stress Matrix: (Units=10**-11 C/N)

-------------------------------------------------------------------------------
  Indices      1         2         3         4         5         6    
-------------------------------------------------------------------------------
       x    -0.00000   0.00000   0.00000   0.00000  -0.00000  -0.00000
       y    -0.00000  -0.00000   0.00000  -0.00000   0.00000   0.00000
       z     0.00000   0.00000  -0.00000  -0.00000   0.00000   0.00000
-------------------------------------------------------------------------------


  Static dielectric constant tensor : 

-------------------------------------------------------------------------------
              x         y         z
-------------------------------------------------------------------------------
       x    22.84729   0.00000   0.00000
       y     0.00000  22.84729  -0.00000
       z     0.00000  -0.00000  22.84729
--------------------------------------------------------------------------------

  High frequency dielectric constant tensor : 

-------------------------------------------------------------------------------
              x         y         z
-------------------------------------------------------------------------------
       x     1.47557   0.00000  -0.00000
       y     0.00000   1.47557  -0.00000
       z    -0.00000  -0.00000   1.47557
-------------------------------------------------------------------------------

  Static refractive indices : 

-------------------------------------------------------------------------------
    1 =    4.77988      2 =    4.77988      3 =    4.77988
-------------------------------------------------------------------------------

  High frequency refractive indices : 

-------------------------------------------------------------------------------
    1 =    1.21473      2 =    1.21473      3 =    1.21473
-------------------------------------------------------------------------------


  Time to end of optimisation =       0.0338 seconds

********************************************************************************
*  Defect calculation for configuration   1 :                                  *
********************************************************************************

  Total number of defects =      3

  Total charge on defect  =  -1.00

  Defect centre is at   0.5000   0.3600   0.1400  Frac

  Region 1 radius =  12.0000      Number of ions =    543

  Number of symmetry inequivalent region 1 ions  =    315

  Region 2 radius =  16.0000      Number of ions =    780

  Number of symmetry inequivalent region 2a ions =    426

  Region 2a mode = 4 : screened electrostatics due to region 1 
                       neglect correction to region 1 forces from 2a
                       region 2a displacements based on defects only

  Region 2a ions will only interact with defects in region 1

  Vacancies:

--------------------------------------------------------------------------------
    Specification type     Symbol/Number         x          y          z
--------------------------------------------------------------------------------
    Fractional                               0.500000   0.500000   0.000000
    Fractional                               0.500000   0.000000   0.500000
--------------------------------------------------------------------------------

  Interstitials:

--------------------------------------------------------------------------------
    Specification type     Symbol/Number         x          y          z
--------------------------------------------------------------------------------
    Atom/Fractional         Na               0.500000   0.360000   0.140000
--------------------------------------------------------------------------------


  Symmetry reduced region 1 (Relative to defect centre) :

--------------------------------------------------------------------------------
   No.   Atomic       x            y             z       Radius  Multiplicity   
         Label      (Angs)       (Angs)        (Angs)    (Angs)     
--------------------------------------------------------------------------------
     1  Na    c      0.0000       0.0000       0.0000 *  0.0000     1    Defect
     2  O     c      0.0000       0.6311 *     1.6228 *  0.0000     1          
     3  Cl    c      2.2539 *    -1.6228 *    -0.6311 *  0.0000     2          
     4  Na    c      2.2539 *     0.6311 *     1.6228 *  0.0000     2          
     5  O     c      0.0000       0.6311 *    -2.8850 *  0.0000     1          
     6  Na    c      0.0000       2.8850 *     1.6228 *  0.0000     1          
     7  Na    c      0.0000      -1.6228 *    -2.8850 *  0.0000     1          
     8  Cl    c      2.2539 *     2.8850 *    -0.6311 *  0.0000     2          
     9  Na    c      2.2539 *     0.6311 *    -2.8850 *  0.0000     2          
    10  Na    c      0.0000       0.6311 *     3.8767 *  0.0000     1          
    11  Na    c      0.0000      -3.8767 *    -0.6311 *  0.0000     1          
    12  Na    c      0.0000       2.8850 *    -2.8850 *  0.0000     1          
    13  O     c      0.0000      -3.8767 *     1.6228 *  0.0000     1          
    14  Na    c     -4.5078 *     0.6311 *    -0.6311 *  0.0000     2          
    15  Cl    c      2.2539 *    -1.6228 *     3.8767 *  0.0000     2          
    16  Na    c      2.2539 *    -3.8767 *     1.6228 *  0.0000     2          
    17  O     c     -4.5078 *     0.6311 *     1.6228 *  0.0000     2          
    18  O     c      0.0000      -3.8767 *    -2.8850 *  0.0000     1          
    19  Na    c     -4.5078 *    -1.6228 *     1.6228 *  0.0000     2          
    20  Na    c      0.0000       5.1389 *    -0.6311 *  0.0000     1          
    21  Na    c      0.0000       0.6311 *    -5.1389 *  0.0000     1          
    22  Cl    c      2.2539 *     2.8850 *     3.8767 *  0.0000     2          
    23  Na    c      2.2539 *    -3.8767 *    -2.8850 *  0.0000     2          
    24  O     c      0.0000       5.1389 *     1.6228 *  0.0000     1          
    25  O     c     -4.5078 *     0.6311 *    -2.8850 *  0.0000     2          
    26  Na    c      0.0000      -3.8767 *     3.8767 *  0.0000     1          
    27  Na    c     -4.5078 *    -1.6228 *    -2.8850 *  0.0000     2          
    28  Na    c     -4.5078 *     2.8850 *     1.6228 *  0.0000     2          
    29  Na    c      2.2539 *     5.1389 *     1.6228 *  0.0000     2          
    30  Cl    c      2.2539 *    -1.6228 *    -5.1389 *  0.0000     2          
    31  O     c      0.0000       5.1389 *    -2.8850 *  0.0000     1          
    32  Na    c     -4.5078 *     0.6311 *     3.8767 *  0.0000     2          
    33  Na    c     -4.5078 *    -3.8767 *    -0.6311 *  0.0000     2          
    34  Na    c     -4.5078 *     2.8850 *    -2.8850 *  0.0000     2          
    35  O     c      0.0000       0.6311 *     6.1306 *  0.0000     1          
    36  O     c     -4.5078 *    -3.8767 *     1.6228 *  0.0000     2          
    37  Na    c      2.2539 *     5.1389 *    -2.8850 *  0.0000     2          
    38  Cl    c      2.2539 *     2.8850 *    -5.1389 *  0.0000     2          
    39  Na    c      0.0000      -6.1306 *     1.6228 *  0.0000     1          
    40  Na    c      0.0000      -1.6228 *     6.1306 *  0.0000     1          
    41  Na    c      0.0000       5.1389 *     3.8767 *  0.0000     1          
    42  Na    c      0.0000      -3.8767 *    -5.1389 *  0.0000     1          
    43  Cl    c      2.2539 *    -6.1306 *    -0.6311 *  0.0000     2          
    44  Na    c      2.2539 *     0.6311 *     6.1306 *  0.0000     2          
    45  O     c     -4.5078 *    -3.8767 *    -2.8850 *  0.0000     2          
    46  Na    c      0.0000      -6.1306 *    -2.8850 *  0.0000     1          
    47  Na    c      0.0000       2.8850 *     6.1306 *  0.0000     1          
    48  Na    c      4.5078 *     5.1389 *    -0.6311 *  0.0000     2          
    49  Na    c     -4.5078 *     0.6311 *    -5.1389 *  0.0000     2          
    50  Cl    c      6.7617 *    -1.6228 *    -0.6311 *  0.0000     2          
    51  Na    c      6.7617 *     0.6311 *     1.6228 *  0.0000     2          
    52  O     c      4.5078 *     5.1389 *     1.6228 *  0.0000     2          
    53  Na    c     -4.5078 *    -3.8767 *     3.8767 *  0.0000     2          
    54  O     c      0.0000      -3.8767 *     6.1306 *  0.0000     1          
    55  Na    c      0.0000       5.1389 *    -5.1389 *  0.0000     1          
    56  Cl    c      6.7617 *     2.8850 *    -0.6311 *  0.0000     2          
    57  Na    c      6.7617 *     0.6311 *    -2.8850 *  0.0000     2          
    58  O     c      0.0000       0.6311 *    -7.3928 *  0.0000     1          
    59  O     c      4.5078 *     5.1389 *    -2.8850 *  0.0000     2          
    60  Na    c      0.0000      -1.6228 *    -7.3928 *  0.0000     1          
    61  Na    c      0.0000       7.3928 *     1.6228 *  0.0000     1          
    62  Cl    c      2.2539 *    -6.1306 *     3.8767 *  0.0000     2          
    63  Na    c      2.2539 *    -3.8767 *     6.1306 *  0.0000     2          
    64  O     c     -4.5078 *     0.6311 *     6.1306 *  0.0000     2          
    65  Cl    c      2.2539 *     7.3928 *    -0.6311 *  0.0000     2          
    66  Na    c      2.2539 *     0.6311 *    -7.3928 *  0.0000     2          
    67  Na    c      4.5078 *    -6.1306 *     1.6228 *  0.0000     2          
    68  Na    c     -4.5078 *    -1.6228 *     6.1306 *  0.0000     2          
    69  Na    c      4.5078 *     5.1389 *     3.8767 *  0.0000     2          
    70  Na    c     -4.5078 *    -3.8767 *    -5.1389 *  0.0000     2          
    71  Na    c      0.0000       2.8850 *    -7.3928 *  0.0000     1          
    72  Na    c      0.0000       7.3928 *    -2.8850 *  0.0000     1          
    73  Cl    c      6.7617 *    -1.6228 *     3.8767 *  0.0000     2          
    74  Na    c      6.7617 *    -3.8767 *     1.6228 *  0.0000     2          
    75  O     c      0.0000       5.1389 *     6.1306 *  0.0000     1          
    76  Na    c      4.5078 *     2.8850 *     6.1306 *  0.0000     2          
    77  Na    c      4.5078 *    -6.1306 *    -2.8850 *  0.0000     2          
    78  Cl    c      2.2539 *    -6.1306 *    -5.1389 *  0.0000     2          
    79  Cl    c      6.7617 *     2.8850 *     3.8767 *  0.0000     2          
    80  Na    c      2.2539 *     5.1389 *     6.1306 *  0.0000     2          
    81  Na    c      6.7617 *    -3.8767 *    -2.8850 *  0.0000     2          
    82  O     c      0.0000      -3.8767 *    -7.3928 *  0.0000     1          
    83  Na    c      0.0000       0.6311 *     8.3845 *  0.0000     1          
    84  Na    c      0.0000      -8.3845 *    -0.6311 *  0.0000     1          
    85  O     c      0.0000      -8.3845 *     1.6228 *  0.0000     1          
    86  O     c      4.5078 *    -3.8767 *     6.1306 *  0.0000     2          
    87  Na    c      4.5078 *     5.1389 *    -5.1389 *  0.0000     2          
    88  Cl    c      2.2539 *     7.3928 *     3.8767 *  0.0000     2          
    89  Cl    c      6.7617 *    -1.6228 *    -5.1389 *  0.0000     2          
    90  Na    c      2.2539 *    -3.8767 *    -7.3928 *  0.0000     2          
    91  Na    c      6.7617 *     5.1389 *     1.6228 *  0.0000     2          
    92  Na    c      0.0000      -6.1306 *     6.1306 *  0.0000     1          
    93  O     c      4.5078 *     0.6311 *    -7.3928 *  0.0000     2          
    94  Na    c     -4.5078 *     7.3928 *     1.6228 *  0.0000     2          
    95  Na    c      4.5078 *    -1.6228 *    -7.3928 *  0.0000     2          
    96  Cl    c      2.2539 *    -1.6228 *     8.3845 *  0.0000     2          
    97  Na    c      2.2539 *    -8.3845 *     1.6228 *  0.0000     2          
    98  O     c      0.0000      -8.3845 *    -2.8850 *  0.0000     1          
    99  Cl    c      6.7617 *     2.8850 *    -5.1389 *  0.0000     2          
   100  Na    c      6.7617 *     5.1389 *    -2.8850 *  0.0000     2          
   101  O     c      0.0000       5.1389 *    -7.3928 *  0.0000     1          
   102  Na    c      9.0156 *     0.6311 *    -0.6311 *  0.0000     2          
   103  Na    c      4.5078 *     2.8850 *    -7.3928 *  0.0000     2          
   104  Na    c      4.5078 *     7.3928 *    -2.8850 *  0.0000     2          
   105  Cl    c      2.2539 *     2.8850 *     8.3845 *  0.0000     2          
   106  Cl    c      6.7617 *    -6.1306 *    -0.6311 *  0.0000     2          
   107  Na    c      2.2539 *    -8.3845 *    -2.8850 *  0.0000     2          
   108  Na    c      6.7617 *     0.6311 *     6.1306 *  0.0000     2          
   109  O     c      9.0156 *     0.6311 *     1.6228 *  0.0000     2          
   110  O     c      4.5078 *     5.1389 *     6.1306 *  0.0000     2          
   111  Na    c      0.0000      -8.3845 *     3.8767 *  0.0000     1          
   112  Na    c      0.0000      -3.8767 *     8.3845 *  0.0000     1          
   113  Cl    c      2.2539 *     7.3928 *    -5.1389 *  0.0000     2          
   114  Na    c      2.2539 *     5.1389 *    -7.3928 *  0.0000     2          
   115  Na    c      9.0156 *    -1.6228 *     1.6228 *  0.0000     2          
   116  O     c      4.5078 *    -3.8767 *    -7.3928 *  0.0000     2          
   117  O     c      9.0156 *     0.6311 *    -2.8850 *  0.0000     2          
   118  Na    c     -4.5078 *    -8.3845 *    -0.6311 *  0.0000     2          
   119  Na    c      4.5078 *     0.6311 *     8.3845 *  0.0000     2          
   120  Na    c      0.0000       7.3928 *     6.1306 *  0.0000     1          
   121  Na    c      0.0000      -6.1306 *    -7.3928 *  0.0000     1          
   122  Na    c      9.0156 *    -1.6228 *    -2.8850 *  0.0000     2          
   123  Na    c      9.0156 *     2.8850 *     1.6228 *  0.0000     2          
   124  O     c     -4.5078 *    -8.3845 *     1.6228 *  0.0000     2          
   125  Na    c      0.0000       0.6311 *    -9.6467 *  0.0000     1          
   126  Na    c      0.0000       9.6467 *    -0.6311 *  0.0000     1          
   127  Na    c      4.5078 *    -6.1306 *     6.1306 *  0.0000     2          
   128  O     c      0.0000       9.6467 *     1.6228 *  0.0000     1          
   129  Na    c      9.0156 *     0.6311 *     3.8767 *  0.0000     2          
   130  Na    c      0.0000       5.1389 *     8.3845 *  0.0000     1          
   131  Na    c      0.0000      -8.3845 *    -5.1389 *  0.0000     1          
   132  Na    c      9.0156 *    -3.8767 *    -0.6311 *  0.0000     2          
   133  Na    c      9.0156 *     2.8850 *    -2.8850 *  0.0000     2          
   134  Cl    c      6.7617 *    -6.1306 *     3.8767 *  0.0000     2          
   135  Na    c      6.7617 *    -3.8767 *     6.1306 *  0.0000     2          
   136  O     c      4.5078 *    -8.3845 *    -2.8850 *  0.0000     2          
   137  O     c      9.0156 *    -3.8767 *     1.6228 *  0.0000     2          
   138  Cl    c      2.2539 *    -1.6228 *    -9.6467 *  0.0000     2          
   139  Na    c      2.2539 *     9.6467 *     1.6228 *  0.0000     2          
   140  Cl    c      6.7617 *     7.3928 *    -0.6311 *  0.0000     2          
   141  Na    c      6.7617 *     0.6311 *    -7.3928 *  0.0000     2          
   142  O     c      0.0000       9.6467 *    -2.8850 *  0.0000     1          
   143  O     c      4.5078 *     5.1389 *    -7.3928 *  0.0000     2          
   144  O     c      9.0156 *    -3.8767 *    -2.8850 *  0.0000     2          
   145  Na    c     -4.5078 *    -8.3845 *     3.8767 *  0.0000     2          
   146  Na    c      4.5078 *    -3.8767 *     8.3845 *  0.0000     2          
   147  Cl    c      2.2539 *     2.8850 *    -9.6467 *  0.0000     2          
   148  Na    c      2.2539 *     9.6467 *    -2.8850 *  0.0000     2          
   149  O     c      0.0000      -8.3845 *     6.1306 *  0.0000     1          
   150  Na    c      0.0000       9.6467 *     3.8767 *  0.0000     1          
   151  Na    c      0.0000      -3.8767 *    -9.6467 *  0.0000     1          
   152  Na    c      9.0156 *     0.6311 *    -5.1389 *  0.0000     2          
   153  Na    c      9.0156 *     5.1389 *    -0.6311 *  0.0000     2          
   154  Na    c      0.0000       7.3928 *    -7.3928 *  0.0000     1          
   155  Cl    c      6.7617 *    -6.1306 *    -5.1389 *  0.0000     2          
   156  Na    c      6.7617 *     5.1389 *     6.1306 *  0.0000     2          
   157  O     c      9.0156 *     5.1389 *     1.6228 *  0.0000     2          
   158  Na    c      9.0156 *    -3.8767 *     3.8767 *  0.0000     2          
   159  Na    c      4.5078 *    -6.1306 *    -7.3928 *  0.0000     2          
   160  Na    c     -4.5078 *     7.3928 *     6.1306 *  0.0000     2          
   161  Cl    c      2.2539 *    -6.1306 *     8.3845 *  0.0000     2          
   162  Na    c      2.2539 *    -8.3845 *     6.1306 *  0.0000     2          
   163  O     c      0.0000       0.6311 *    10.6384 *  0.0000     1          
   164  Na    c     -4.5078 *     9.6467 *    -0.6311 *  0.0000     2          
   165  Na    c      4.5078 *     0.6311 *    -9.6467 *  0.0000     2          
   166  Cl    c      6.7617 *     7.3928 *     3.8767 *  0.0000     2          
   167  Na    c      6.7617 *    -3.8767 *    -7.3928 *  0.0000     2          
   168  Na    c      0.0000      -1.6228 *    10.6384 *  0.0000     1          
   169  Na    c      0.0000     -10.6384 *     1.6228 *  0.0000     1          
   170  O     c     -4.5078 *     9.6467 *     1.6228 *  0.0000     2          
   171  O     c      9.0156 *     5.1389 *    -2.8850 *  0.0000     2          
   172  Na    c      4.5078 *     5.1389 *     8.3845 *  0.0000     2          
   173  Na    c     -4.5078 *    -8.3845 *    -5.1389 *  0.0000     2          
   174  Cl    c      2.2539 *   -10.6384 *    -0.6311 *  0.0000     2          
   175  Na    c      2.2539 *     0.6311 *    10.6384 *  0.0000     2          
   176  Cl    c      6.7617 *    -1.6228 *     8.3845 *  0.0000     2          
   177  Na    c      6.7617 *    -8.3845 *     1.6228 *  0.0000     2          
   178  O     c      9.0156 *     0.6311 *     6.1306 *  0.0000     2          
   179  Na    c      0.0000       5.1389 *    -9.6467 *  0.0000     1          
   180  Na    c      0.0000       9.6467 *    -5.1389 *  0.0000     1          
   181  Na    c      0.0000       2.8850 *    10.6384 *  0.0000     1          
   182  Na    c      0.0000     -10.6384 *    -2.8850 *  0.0000     1          
   183  Na    c      9.0156 *    -1.6228 *     6.1306 *  0.0000     2          
   184  Na    c      9.0156 *    -6.1306 *     1.6228 *  0.0000     2          
   185  O     c      4.5078 *     9.6467 *    -2.8850 *  0.0000     2          
   186  Na    c      9.0156 *     5.1389 *     3.8767 *  0.0000     2          
   187  Na    c      9.0156 *    -3.8767 *    -5.1389 *  0.0000     2          
   188  Cl    c      6.7617 *     2.8850 *     8.3845 *  0.0000     2          
   189  Na    c      6.7617 *    -8.3845 *    -2.8850 *  0.0000     2          
   190  O     c      0.0000      -8.3845 *    -7.3928 *  0.0000     1          
   191  Cl    c      6.7617 *     7.3928 *    -5.1389 *  0.0000     2          
   192  Na    c      6.7617 *     5.1389 *    -7.3928 *  0.0000     2          
   193  Na    c      9.0156 *    -6.1306 *    -2.8850 *  0.0000     2          
   194  Na    c      9.0156 *     2.8850 *     6.1306 *  0.0000     2          
   195  O     c      0.0000      -3.8767 *    10.6384 *  0.0000     1          
   196  O     c     -4.5078 *    -8.3845 *     6.1306 *  0.0000     2          
   197  Na    c      4.5078 *     9.6467 *     3.8767 *  0.0000     2          
   198  Na    c      4.5078 *    -3.8767 *    -9.6467 *  0.0000     2          
   199  Na    c     -4.5078 *     7.3928 *    -7.3928 *  0.0000     2          
   200  Cl    c     11.2695 *    -1.6228 *    -0.6311 *  0.0000     2          
   201  Na    c     11.2695 *     0.6311 *     1.6228 *  0.0000     2          
   202  Cl    c      2.2539 *     7.3928 *     8.3845 *  0.0000     2          
   203  Na    c      2.2539 *    -8.3845 *    -7.3928 *  0.0000     2          
   204  O     c      0.0000       9.6467 *     6.1306 *  0.0000     1          
   205  Cl    c      2.2539 *   -10.6384 *     3.8767 *  0.0000     2          
   206  Na    c      2.2539 *    -3.8767 *    10.6384 *  0.0000     2          
   207  O     c      4.5078 *     0.6311 *    10.6384 *  0.0000     2          
   208  O     c      9.0156 *    -3.8767 *     6.1306 *  0.0000     2          
   209  Na    c      9.0156 *     5.1389 *    -5.1389 *  0.0000     2          
   210  Cl    c     11.2695 *     2.8850 *    -0.6311 *  0.0000     2          
   211  Na    c     11.2695 *     0.6311 *    -2.8850 *  0.0000     2          
   212  Cl    c      2.2539 *    -6.1306 *    -9.6467 *  0.0000     2          
   213  Na    c      2.2539 *     9.6467 *     6.1306 *  0.0000     2          
   214  Na    c      4.5078 *    -1.6228 *    10.6384 *  0.0000     2          
   215  Na    c      4.5078 *   -10.6384 *     1.6228 *  0.0000     2          
   216  O     c      9.0156 *     0.6311 *    -7.3928 *  0.0000     2          
   217  Na    c      9.0156 *    -1.6228 *    -7.3928 *  0.0000     2          
   218  Na    c      9.0156 *     7.3928 *     1.6228 *  0.0000     2          
   219  O     c      0.0000       5.1389 *    10.6384 *  0.0000     1          
   220  Na    c      4.5078 *     5.1389 *    -9.6467 *  0.0000     2          
   221  Na    c     -4.5078 *     9.6467 *    -5.1389 *  0.0000     2          
   222  Na    c      0.0000      -8.3845 *     8.3845 *  0.0000     1          
   223  Cl    c      6.7617 *    -1.6228 *    -9.6467 *  0.0000     2          
   224  Na    c      6.7617 *     9.6467 *     1.6228 *  0.0000     2          
   225  Na    c      4.5078 *     2.8850 *    10.6384 *  0.0000     2          
   226  Na    c      4.5078 *   -10.6384 *    -2.8850 *  0.0000     2          
   227  O     c      0.0000       0.6311 *   -11.9006 *  0.0000     1          
   228  O     s      0.0000       0.6311 *     1.6228 *  0.0000     1          
   229  Cl    s      2.2539 *    -1.6228 *    -0.6311 *  0.0000     2          
   230  O     s      0.0000       0.6311 *    -2.8850 *  0.0000     1          
   231  Cl    s      2.2539 *     2.8850 *    -0.6311 *  0.0000     2          
   232  O     s      0.0000      -3.8767 *     1.6228 *  0.0000     1          
   233  Cl    s      2.2539 *    -1.6228 *     3.8767 *  0.0000     2          
   234  O     s     -4.5078 *     0.6311 *     1.6228 *  0.0000     2          
   235  O     s      0.0000      -3.8767 *    -2.8850 *  0.0000     1          
   236  Cl    s      2.2539 *     2.8850 *     3.8767 *  0.0000     2          
   237  O     s      0.0000       5.1389 *     1.6228 *  0.0000     1          
   238  O     s     -4.5078 *     0.6311 *    -2.8850 *  0.0000     2          
   239  Cl    s      2.2539 *    -1.6228 *    -5.1389 *  0.0000     2          
   240  O     s      0.0000       5.1389 *    -2.8850 *  0.0000     1          
   241  O     s      0.0000       0.6311 *     6.1306 *  0.0000     1          
   242  O     s     -4.5078 *    -3.8767 *     1.6228 *  0.0000     2          
   243  Cl    s      2.2539 *     2.8850 *    -5.1389 *  0.0000     2          
   244  Cl    s      2.2539 *    -6.1306 *    -0.6311 *  0.0000     2          
   245  O     s     -4.5078 *    -3.8767 *    -2.8850 *  0.0000     2          
   246  Cl    s      6.7617 *    -1.6228 *    -0.6311 *  0.0000     2          
   247  O     s      4.5078 *     5.1389 *     1.6228 *  0.0000     2          
   248  O     s      0.0000      -3.8767 *     6.1306 *  0.0000     1          
   249  Cl    s      6.7617 *     2.8850 *    -0.6311 *  0.0000     2          
   250  O     s      0.0000       0.6311 *    -7.3928 *  0.0000     1          
   251  O     s      4.5078 *     5.1389 *    -2.8850 *  0.0000     2          
   252  Cl    s      2.2539 *    -6.1306 *     3.8767 *  0.0000     2          
   253  O     s     -4.5078 *     0.6311 *     6.1306 *  0.0000     2          
   254  Cl    s      2.2539 *     7.3928 *    -0.6311 *  0.0000     2          
   255  Cl    s      6.7617 *    -1.6228 *     3.8767 *  0.0000     2          
   256  O     s      0.0000       5.1389 *     6.1306 *  0.0000     1          
   257  Cl    s      2.2539 *    -6.1306 *    -5.1389 *  0.0000     2          
   258  Cl    s      6.7617 *     2.8850 *     3.8767 *  0.0000     2          
   259  O     s      0.0000      -3.8767 *    -7.3928 *  0.0000     1          
   260  O     s      0.0000      -8.3845 *     1.6228 *  0.0000     1          
   261  O     s      4.5078 *    -3.8767 *     6.1306 *  0.0000     2          
   262  Cl    s      2.2539 *     7.3928 *     3.8767 *  0.0000     2          
   263  Cl    s      6.7617 *    -1.6228 *    -5.1389 *  0.0000     2          
   264  O     s      4.5078 *     0.6311 *    -7.3928 *  0.0000     2          
   265  Cl    s      2.2539 *    -1.6228 *     8.3845 *  0.0000     2          
   266  O     s      0.0000      -8.3845 *    -2.8850 *  0.0000     1          
   267  Cl    s      6.7617 *     2.8850 *    -5.1389 *  0.0000     2          
   268  O     s      0.0000       5.1389 *    -7.3928 *  0.0000     1          
   269  Cl    s      2.2539 *     2.8850 *     8.3845 *  0.0000     2          
   270  Cl    s      6.7617 *    -6.1306 *    -0.6311 *  0.0000     2          
   271  O     s      9.0156 *     0.6311 *     1.6228 *  0.0000     2          
   272  O     s      4.5078 *     5.1389 *     6.1306 *  0.0000     2          
   273  Cl    s      2.2539 *     7.3928 *    -5.1389 *  0.0000     2          
   274  O     s      4.5078 *    -3.8767 *    -7.3928 *  0.0000     2          
   275  O     s      9.0156 *     0.6311 *    -2.8850 *  0.0000     2          
   276  O     s     -4.5078 *    -8.3845 *     1.6228 *  0.0000     2          
   277  O     s      0.0000       9.6467 *     1.6228 *  0.0000     1          
   278  Cl    s      6.7617 *    -6.1306 *     3.8767 *  0.0000     2          
   279  O     s      4.5078 *    -8.3845 *    -2.8850 *  0.0000     2          
   280  O     s      9.0156 *    -3.8767 *     1.6228 *  0.0000     2          
   281  Cl    s      2.2539 *    -1.6228 *    -9.6467 *  0.0000     2          
   282  Cl    s      6.7617 *     7.3928 *    -0.6311 *  0.0000     2          
   283  O     s      0.0000       9.6467 *    -2.8850 *  0.0000     1          
   284  O     s      4.5078 *     5.1389 *    -7.3928 *  0.0000     2          
   285  O     s      9.0156 *    -3.8767 *    -2.8850 *  0.0000     2          
   286  Cl    s      2.2539 *     2.8850 *    -9.6467 *  0.0000     2          
   287  O     s      0.0000      -8.3845 *     6.1306 *  0.0000     1          
   288  Cl    s      6.7617 *    -6.1306 *    -5.1389 *  0.0000     2          
   289  O     s      9.0156 *     5.1389 *     1.6228 *  0.0000     2          
   290  Cl    s      2.2539 *    -6.1306 *     8.3845 *  0.0000     2          
   291  O     s      0.0000       0.6311 *    10.6384 *  0.0000     1          
   292  Cl    s      6.7617 *     7.3928 *     3.8767 *  0.0000     2          
   293  O     s     -4.5078 *     9.6467 *     1.6228 *  0.0000     2          
   294  O     s      9.0156 *     5.1389 *    -2.8850 *  0.0000     2          
   295  Cl    s      2.2539 *   -10.6384 *    -0.6311 *  0.0000     2          
   296  Cl    s      6.7617 *    -1.6228 *     8.3845 *  0.0000     2          
   297  O     s      9.0156 *     0.6311 *     6.1306 *  0.0000     2          
   298  O     s      4.5078 *     9.6467 *    -2.8850 *  0.0000     2          
   299  Cl    s      6.7617 *     2.8850 *     8.3845 *  0.0000     2          
   300  O     s      0.0000      -8.3845 *    -7.3928 *  0.0000     1          
   301  Cl    s      6.7617 *     7.3928 *    -5.1389 *  0.0000     2          
   302  O     s      0.0000      -3.8767 *    10.6384 *  0.0000     1          
   303  O     s     -4.5078 *    -8.3845 *     6.1306 *  0.0000     2          
   304  Cl    s     11.2695 *    -1.6228 *    -0.6311 *  0.0000     2          
   305  Cl    s      2.2539 *     7.3928 *     8.3845 *  0.0000     2          
   306  O     s      0.0000       9.6467 *     6.1306 *  0.0000     1          
   307  Cl    s      2.2539 *   -10.6384 *     3.8767 *  0.0000     2          
   308  O     s      4.5078 *     0.6311 *    10.6384 *  0.0000     2          
   309  O     s      9.0156 *    -3.8767 *     6.1306 *  0.0000     2          
   310  Cl    s     11.2695 *     2.8850 *    -0.6311 *  0.0000     2          
   311  Cl    s      2.2539 *    -6.1306 *    -9.6467 *  0.0000     2          
   312  O     s      9.0156 *     0.6311 *    -7.3928 *  0.0000     2          
   313  O     s      0.0000       5.1389 *    10.6384 *  0.0000     1          
   314  Cl    s      6.7617 *    -1.6228 *    -9.6467 *  0.0000     2          
   315  O     s      0.0000       0.6311 *   -11.9006 *  0.0000     1          
--------------------------------------------------------------------------------

  Components of defect energy : 

--------------------------------------------------------------------------------
  Region 1 - region 1                   =      0.06352060 eV
  Region 1 - region 2a (unrelaxed)      =      9.23267399 eV
  Region 1 - 2a (relaxed - correction)  =     -0.30077055 eV
  Region 1 (Total)                      =      8.99542404 eV
  Region 2a                             =      0.15029711 eV
  Region 2b                             =     -0.43190224 eV
--------------------------------------------------------------------------------
  Total defect energy                   =      8.71381891 eV
--------------------------------------------------------------------------------

  Largest displacement in region 2 =   0.0249 Angstroms


  Number of variables =      857

  Maximum number of calculations  =        1000
  Maximum Hessian update interval =          10
  Maximum step size               =   1.0000000
  Maximum parameter tolerance     =   0.0000100
  Maximum function  tolerance     =   0.0000100
  Maximum gradient  tolerance     =   0.0010000

  Symmetry adapted optimisation

  Symmetry to be used for second derivatives

  Newton-Raphson optimiser to be used

  BFGS hessian update to be used

  Lower half triangular hessian to be used

  Start of defect optimisation :

  Cycle:      0 Defect Energy:   8.713819  Gnorm:     0.021672  CPU:    2.928
  ** Hessian calculated **
  Cycle:      1 Defect Energy:   8.028215  Gnorm:     0.019160  CPU:    9.070
  ** Hessian calculated **
  Cycle:      2 Defect Energy:   6.262832  Gnorm:     0.008715  CPU:   14.494
  Cycle:      3 Defect Energy:   5.553654  Gnorm:     0.005903  CPU:   17.462
  Cycle:      4 Defect Energy:   5.296916  Gnorm:     0.005555  CPU:   21.246
  Cycle:      5 Defect Energy:   5.147268  Gnorm:     0.003556  CPU:   26.137
  Cycle:      6 Defect Energy:   5.110020  Gnorm:     0.002119  CPU:   28.392
  Cycle:      7 Defect Energy:   5.062601  Gnorm:     0.001825  CPU:   29.409
  Cycle:      8 Defect Energy:   4.998105  Gnorm:     0.001783  CPU:   30.403
  Cycle:      9 Defect Energy:   4.913907  Gnorm:     0.002250  CPU:   31.426
  Cycle:     10 Defect Energy:   4.830064  Gnorm:     0.002496  CPU:   32.429
  Cycle:     11 Defect Energy:   4.778815  Gnorm:     0.002549  CPU:   33.483
  ** Hessian calculated **
  Cycle:     12 Defect Energy:   4.760974  Gnorm:     0.001682  CPU:   36.021
  Cycle:     13 Defect Energy:   4.741094  Gnorm:     0.001466  CPU:   36.996
  Cycle:     14 Defect Energy:   4.718008  Gnorm:     0.001397  CPU:   38.029
  Cycle:     15 Defect Energy:   4.693004  Gnorm:     0.001441  CPU:   38.947
  Cycle:     16 Defect Energy:   4.671379  Gnorm:     0.001385  CPU:   39.827
  Cycle:     17 Defect Energy:   4.651755  Gnorm:     0.001424  CPU:   40.739
  Cycle:     18 Defect Energy:   4.632350  Gnorm:     0.001516  CPU:   41.640
  Cycle:     19 Defect Energy:   4.614683  Gnorm:     0.001462  CPU:   42.636
  Cycle:     20 Defect Energy:   4.596029  Gnorm:     0.001349  CPU:   43.521
  Cycle:     21 Defect Energy:   4.577120  Gnorm:     0.001420  CPU:   44.410
  ** Hessian calculated **
  Cycle:     22 Defect Energy:   4.559093  Gnorm:     0.001333  CPU:   46.744
  Cycle:     23 Defect Energy:   4.527976  Gnorm:     0.001151  CPU:   47.689
  Cycle:     24 Defect Energy:   4.527129  Gnorm:     0.001126  CPU:   48.524
  ** Hessian calculated **
  Cycle:     25 Defect Energy:   4.484616  Gnorm:     0.000806  CPU:   50.746
  ** Hessian calculated **
  Cycle:     26 Defect Energy:   4.460135  Gnorm:     0.000565  CPU:   52.990
  Cycle:     27 Defect Energy:   4.448035  Gnorm:     0.000391  CPU:   53.810
  Cycle:     28 Defect Energy:   4.441864  Gnorm:     0.000288  CPU:   54.628
  Cycle:     29 Defect Energy:   4.439906  Gnorm:     0.000249  CPU:   55.426
  ** Hessian calculated **
  Cycle:     30 Defect Energy:   4.439598  Gnorm:     0.000193  CPU:   57.395
  Cycle:     31 Defect Energy:   4.439313  Gnorm:     0.000179  CPU:   59.528
  Cycle:     32 Defect Energy:   4.438879  Gnorm:     0.000169  CPU:   62.059
  Cycle:     33 Defect Energy:   4.438534  Gnorm:     0.000169  CPU:   63.067
  Cycle:     34 Defect Energy:   4.438167  Gnorm:     0.000166  CPU:   64.084
  Cycle:     35 Defect Energy:   4.437936  Gnorm:     0.000169  CPU:   65.091
  Cycle:     36 Defect Energy:   4.437677  Gnorm:     0.000175  CPU:   66.109
  Cycle:     37 Defect Energy:   4.437415  Gnorm:     0.000173  CPU:   67.167
  Cycle:     38 Defect Energy:   4.437135  Gnorm:     0.000176  CPU:   68.101
  Cycle:     39 Defect Energy:   4.436816  Gnorm:     0.000179  CPU:   69.037
  ** Hessian calculated **
  Cycle:     40 Defect Energy:   4.436697  Gnorm:     0.000169  CPU:   71.638
  Cycle:     41 Defect Energy:   4.436539  Gnorm:     0.000166  CPU:   72.585
  Cycle:     42 Defect Energy:   4.436360  Gnorm:     0.000162  CPU:   73.495
  Cycle:     43 Defect Energy:   4.436100  Gnorm:     0.000160  CPU:   74.415
  Cycle:     44 Defect Energy:   4.435869  Gnorm:     0.000159  CPU:   75.314
  Cycle:     45 Defect Energy:   4.435684  Gnorm:     0.000162  CPU:   76.309
  Cycle:     46 Defect Energy:   4.435494  Gnorm:     0.000166  CPU:   77.173
  Cycle:     47 Defect Energy:   4.435318  Gnorm:     0.000173  CPU:   78.036
  Cycle:     48 Defect Energy:   4.435045  Gnorm:     0.000182  CPU:   78.920
  Cycle:     49 Defect Energy:   4.434723  Gnorm:     0.000195  CPU:   79.787
  ** Hessian calculated **
  Cycle:     50 Defect Energy:   4.434562  Gnorm:     0.000188  CPU:   82.093
  Cycle:     51 Defect Energy:   4.434368  Gnorm:     0.000185  CPU:   82.898
  Cycle:     52 Defect Energy:   4.434069  Gnorm:     0.000181  CPU:   83.732
  Cycle:     53 Defect Energy:   4.433737  Gnorm:     0.000177  CPU:   84.573
  Cycle:     54 Defect Energy:   4.433333  Gnorm:     0.000176  CPU:   85.472
  Cycle:     55 Defect Energy:   4.433030  Gnorm:     0.000177  CPU:   86.294
  Cycle:     56 Defect Energy:   4.432748  Gnorm:     0.000182  CPU:   87.116
  Cycle:     57 Defect Energy:   4.432338  Gnorm:     0.000191  CPU:   87.912
  Cycle:     58 Defect Energy:   4.431869  Gnorm:     0.000206  CPU:   88.724
  Cycle:     59 Defect Energy:   4.431048  Gnorm:     0.000230  CPU:   89.610
  ** Hessian calculated **
  Cycle:     60 Defect Energy:   4.430721  Gnorm:     0.000217  CPU:   94.769
  Cycle:     61 Defect Energy:   4.430216  Gnorm:     0.000215  CPU:   95.751
  Cycle:     62 Defect Energy:   4.429627  Gnorm:     0.000209  CPU:   96.756
  Cycle:     63 Defect Energy:   4.428749  Gnorm:     0.000205  CPU:   97.772
  Cycle:     64 Defect Energy:   4.427796  Gnorm:     0.000212  CPU:   98.774
  Cycle:     65 Defect Energy:   4.426864  Gnorm:     0.000221  CPU:   99.869
  Cycle:     66 Defect Energy:   4.426021  Gnorm:     0.000246  CPU:  100.828
  Cycle:     67 Defect Energy:   4.425068  Gnorm:     0.000257  CPU:  101.804
  Cycle:     68 Defect Energy:   4.423688  Gnorm:     0.000301  CPU:  102.762
  Cycle:     69 Defect Energy:   4.421541  Gnorm:     0.000354  CPU:  103.778
  ** Hessian calculated **
  Cycle:     70 Defect Energy:   4.418092  Gnorm:     0.000349  CPU:  106.207
  Cycle:     71 Defect Energy:   4.413179  Gnorm:     0.000316  CPU:  107.130
  Cycle:     72 Defect Energy:   4.412585  Gnorm:     0.000241  CPU:  108.077
  ** Hessian calculated **
  Cycle:     73 Defect Energy:   4.412099  Gnorm:     0.000216  CPU:  110.410
  Cycle:     74 Defect Energy:   4.411484  Gnorm:     0.000202  CPU:  111.279
  Cycle:     75 Defect Energy:   4.410655  Gnorm:     0.000195  CPU:  112.225
  Cycle:     76 Defect Energy:   4.409648  Gnorm:     0.000184  CPU:  113.091
  Cycle:     77 Defect Energy:   4.408544  Gnorm:     0.000180  CPU:  113.937
  Cycle:     78 Defect Energy:   4.407660  Gnorm:     0.000183  CPU:  114.777
  Cycle:     79 Defect Energy:   4.406666  Gnorm:     0.000192  CPU:  115.641
  Cycle:     80 Defect Energy:   4.405293  Gnorm:     0.000219  CPU:  116.490
  Cycle:     81 Defect Energy:   4.403166  Gnorm:     0.000261  CPU:  117.373
  Cycle:     82 Defect Energy:   4.399764  Gnorm:     0.000333  CPU:  118.224
  ** Hessian calculated **
  Cycle:     83 Defect Energy:   4.398261  Gnorm:     0.000308  CPU:  120.398
  Cycle:     84 Defect Energy:   4.396265  Gnorm:     0.000296  CPU:  121.260
  Cycle:     85 Defect Energy:   4.393530  Gnorm:     0.000286  CPU:  122.485
  Cycle:     86 Defect Energy:   4.389873  Gnorm:     0.000279  CPU:  125.838
  Cycle:     87 Defect Energy:   4.385232  Gnorm:     0.000286  CPU:  126.814
  Cycle:     88 Defect Energy:   4.379903  Gnorm:     0.000328  CPU:  127.796
  Cycle:     89 Defect Energy:   4.375121  Gnorm:     0.000376  CPU:  128.774
  Cycle:     90 Defect Energy:   4.369960  Gnorm:     0.000453  CPU:  129.764
  Cycle:     91 Defect Energy:   4.363133  Gnorm:     0.000556  CPU:  130.830
  Cycle:     92 Defect Energy:   4.355691  Gnorm:     0.000663  CPU:  131.791
  ** Hessian calculated **
  Cycle:     93 Defect Energy:   4.350818  Gnorm:     0.000617  CPU:  134.295
  Cycle:     94 Defect Energy:   4.344418  Gnorm:     0.000595  CPU:  135.300
  Cycle:     95 Defect Energy:   4.335459  Gnorm:     0.000561  CPU:  136.216
  Cycle:     96 Defect Energy:   4.324234  Gnorm:     0.000533  CPU:  137.153
  Cycle:     97 Defect Energy:   4.310282  Gnorm:     0.000529  CPU:  138.083
  Cycle:     98 Defect Energy:   4.299532  Gnorm:     0.000559  CPU:  138.938
  Cycle:     99 Defect Energy:   4.290146  Gnorm:     0.000599  CPU:  139.916
  Cycle:    100 Defect Energy:   4.282733  Gnorm:     0.000615  CPU:  140.788
  Cycle:    101 Defect Energy:   4.276044  Gnorm:     0.000652  CPU:  141.683
  Cycle:    102 Defect Energy:   4.269104  Gnorm:     0.000692  CPU:  142.564
  ** Hessian calculated **
  Cycle:    103 Defect Energy:   4.243493  Gnorm:     0.000597  CPU:  144.964
  Cycle:    104 Defect Energy:   4.211895  Gnorm:     0.000425  CPU:  145.823
  Cycle:    105 Defect Energy:   4.199461  Gnorm:     0.000285  CPU:  146.679
  Cycle:    106 Defect Energy:   4.194435  Gnorm:     0.000200  CPU:  147.527
  Cycle:    107 Defect Energy:   4.192094  Gnorm:     0.000136  CPU:  148.378
  Cycle:    108 Defect Energy:   4.190978  Gnorm:     0.000096  CPU:  149.314
  Cycle:    109 Defect Energy:   4.190456  Gnorm:     0.000063  CPU:  150.132
  Cycle:    110 Defect Energy:   4.190222  Gnorm:     0.000043  CPU:  150.922
  Cycle:    111 Defect Energy:   4.190131  Gnorm:     0.000029  CPU:  151.743
  Cycle:    112 Defect Energy:   4.190095  Gnorm:     0.000020  CPU:  152.589
  ** Hessian calculated **
  Cycle:    113 Defect Energy:   4.190081  Gnorm:     0.000014  CPU:  155.356


  **** Optimisation achieved ****


  Final defect energy  =        4.19007620
  Final defect Gnorm   =        0.00000988

  Components of defect energy : 

--------------------------------------------------------------------------------
  Region 1 - region 1                   =     -3.18875901 eV
  Region 1 - region 2a (unrelaxed)      =      7.92623639 eV
  Region 1 - 2a (relaxed - correction)  =     -0.23378424 eV
  Region 1 (Total)                      =      4.50369314 eV
  Region 2a                             =      0.11674267 eV
  Region 2b                             =     -0.43035961 eV
--------------------------------------------------------------------------------
  Total defect energy                   =      4.19007620 eV
--------------------------------------------------------------------------------

  Largest displacement in region 2 =   0.0261 Angstroms

  Final coordinates of region 1 :

--------------------------------------------------------------------------------
   No.  Atomic        x           y           z          Radius      Charge
        Label       (Angs)      (Angs)      (Angs)       (Angs)       (e) 
--------------------------------------------------------------------------------
     1  Na    c     2.253894    1.622803    0.087840    0.000000    1.000000
     2  O     c     2.253894    2.326174    2.210356    0.000000    0.183000
     3  Cl    c     4.622076   -0.024367   -0.070781    0.000000    1.485000
     4  Cl    c    -0.114289   -0.024367   -0.070781    0.000000    1.485000
     5  Na    c     4.438198    1.926231    2.241062    0.000000    1.000000
     6  Na    c     0.069589    1.926231    2.241062    0.000000    1.000000
     7  O     c     2.253894    2.215125   -2.199000    0.000000    0.183000
     8  Na    c     2.253894    4.508216    2.027229    0.000000    1.000000
     9  Na    c     2.253894   -0.005832   -2.662907    0.000000    1.000000
    10  Cl    c     4.584181    4.596108   -0.058189    0.000000    1.485000
    11  Cl    c    -0.076394    4.596108   -0.058189    0.000000    1.485000
    12  Na    c     4.505820    2.250352   -2.179986    0.000000    1.000000
    13  Na    c     0.001967    2.250352   -2.179986    0.000000    1.000000
    14  Na    c     2.253894    1.940840    4.404211    0.000000    1.000000
    15  Na    c     2.253894   -1.861885    0.072566    0.000000    1.000000
    16  Na    c     2.253894    4.455564   -1.726780    0.000000    1.000000
    17  O     c     2.253894   -2.329851    2.244479    0.000000    0.183000
    18  Na    c    -2.194041    2.654783    0.006896    0.000000    1.000000
    19  Na    c     6.701828    2.654783    0.006896    0.000000    1.000000
    20  Cl    c     4.601956    0.007336    4.641029    0.000000    1.485000
    21  Cl    c    -0.094169    0.007336    4.641029    0.000000    1.485000
    22  Na    c     4.436617   -1.898378    2.243698    0.000000    1.000000
    23  Na    c     0.071170   -1.898378    2.243698    0.000000    1.000000
    24  O     c    -2.227710    2.235779    2.247555    0.000000    0.183000
    25  O     c     6.735497    2.235779    2.247555    0.000000    0.183000
    26  O     c     2.253894   -2.234861   -2.222172    0.000000    0.183000
    27  Na    c    -2.431049    0.007477    1.841757    0.000000    1.000000
    28  Na    c     6.938836    0.007477    1.841757    0.000000    1.000000
    29  Na    c     2.253894    7.115021   -0.012629    0.000000    1.000000
    30  Na    c     2.253894    2.638407   -4.453095    0.000000    1.000000
    31  Cl    c     4.522780    4.641298    4.608740    0.000000    1.485000
    32  Cl    c    -0.014993    4.641298    4.608740    0.000000    1.485000
    33  Na    c     4.508995   -2.221608   -2.193547    0.000000    1.000000
    34  Na    c    -0.001208   -2.221608   -2.193547    0.000000    1.000000
    35  O     c     2.253894    6.800999    2.221191    0.000000    0.183000
    36  O     c    -2.262013    2.257465   -2.245394    0.000000    0.183000
    37  O     c     6.769800    2.257465   -2.245394    0.000000    0.183000
    38  Na    c     2.253894   -1.816347    4.408399    0.000000    1.000000
    39  Na    c    -2.258038    0.006561   -1.881888    0.000000    1.000000
    40  Na    c     6.765825    0.006561   -1.881888    0.000000    1.000000
    41  Na    c    -2.013859    4.473276    2.615631    0.000000    1.000000
    42  Na    c     6.521646    4.473276    2.615631    0.000000    1.000000
    43  Na    c     4.503869    6.806142    2.218499    0.000000    1.000000
    44  Na    c     0.003918    6.806142    2.218499    0.000000    1.000000
    45  Cl    c     4.512815   -0.002748   -4.531630    0.000000    1.485000
    46  Cl    c    -0.005028   -0.002748   -4.531630    0.000000    1.485000
    47  O     c     2.253894    6.718297   -2.238929    0.000000    0.183000
    48  Na    c    -2.294798    1.867187    4.494468    0.000000    1.000000
    49  Na    c     6.802585    1.867187    4.494468    0.000000    1.000000
    50  Na    c    -2.201237   -2.625234    0.005467    0.000000    1.000000
    51  Na    c     6.709024   -2.625234    0.005467    0.000000    1.000000
    52  Na    c    -2.287604    4.500507   -2.618191    0.000000    1.000000
    53  Na    c     6.795391    4.500507   -2.618191    0.000000    1.000000
    54  O     c     2.253894    2.232612    6.720386    0.000000    0.183000
    55  O     c    -2.225252   -2.218785    2.246837    0.000000    0.183000
    56  O     c     6.733039   -2.218785    2.246837    0.000000    0.183000
    57  Na    c     4.515069    6.643501   -2.245254    0.000000    1.000000
    58  Na    c    -0.007281    6.643501   -2.245254    0.000000    1.000000
    59  Cl    c     4.518304    4.504790   -4.526057    0.000000    1.485000
    60  Cl    c    -0.010517    4.504790   -4.526057    0.000000    1.485000
    61  Na    c     2.253894   -4.509681    2.220588    0.000000    1.000000
    62  Na    c     2.253894   -0.000272    7.035791    0.000000    1.000000
    63  Na    c     2.253894    6.628280    4.474857    0.000000    1.000000
    64  Na    c     2.253894   -2.639453   -4.465155    0.000000    1.000000
    65  Cl    c     4.574798   -4.594751   -0.082929    0.000000    1.485000
    66  Cl    c    -0.067011   -4.594751   -0.082929    0.000000    1.485000
    67  Na    c     4.509720    2.223567    6.650213    0.000000    1.000000
    68  Na    c    -0.001933    2.223567    6.650213    0.000000    1.000000
    69  O     c    -2.260853   -2.241534   -2.250035    0.000000    0.183000
    70  O     c     6.768640   -2.241534   -2.250035    0.000000    0.183000
    71  Na    c     2.253894   -4.477178   -1.836990    0.000000    1.000000
    72  Na    c     2.253894    4.476170    6.541142    0.000000    1.000000
    73  Na    c     6.734803    6.418681   -0.002441    0.000000    1.000000
    74  Na    c    -2.227016    6.418681   -0.002441    0.000000    1.000000
    75  Na    c    -2.249335    1.897752   -4.486769    0.000000    1.000000
    76  Na    c     6.757122    1.897752   -4.486769    0.000000    1.000000
    77  Cl    c     9.067993    0.000427   -0.056536    0.000000    1.485000
    78  Cl    c    -4.560206    0.000427   -0.056536    0.000000    1.485000
    79  Na    c     8.996396    2.431271    2.250509    0.000000    1.000000
    80  Na    c    -4.488609    2.431271    2.250509    0.000000    1.000000
    81  O     c     6.757779    6.727080    2.252746    0.000000    0.183000
    82  O     c    -2.249992    6.727080    2.252746    0.000000    0.183000
    83  Na    c    -2.265659   -1.900414    4.500138    0.000000    1.000000
    84  Na    c     6.773447   -1.900414    4.500138    0.000000    1.000000
    85  O     c     2.253894   -2.233235    6.704745    0.000000    0.183000
    86  Na    c     2.253894    6.385647   -4.481878    0.000000    1.000000
    87  Cl    c     9.040236    4.516438   -0.023395    0.000000    1.485000
    88  Cl    c    -4.532449    4.516438   -0.023395    0.000000    1.485000
    89  Na    c     9.019800    2.212638   -2.196947    0.000000    1.000000
    90  Na    c    -4.512013    2.212638   -2.196947    0.000000    1.000000
    91  O     c     2.253894    2.259441   -6.722956    0.000000    0.183000
    92  O     c     6.778361    6.754360   -2.258417    0.000000    0.183000
    93  O     c    -2.270573    6.754360   -2.258417    0.000000    0.183000
    94  Na    c     2.253894    0.000298   -6.443843    0.000000    1.000000
    95  Na    c     2.253894    9.034255    2.495445    0.000000    1.000000
    96  Cl    c     4.568695   -4.668508    4.604550    0.000000    1.485000
    97  Cl    c    -0.060908   -4.668508    4.604550    0.000000    1.485000
    98  Na    c     4.507416   -2.245423    6.652167    0.000000    1.000000
    99  Na    c     0.000371   -2.245423    6.652167    0.000000    1.000000
   100  O     c    -2.262400    2.259057    6.745399    0.000000    0.183000
   101  O     c     6.770187    2.259057    6.745399    0.000000    0.183000
   102  Cl    c     4.531784    9.058122    0.010376    0.000000    1.485000
   103  Cl    c    -0.023997    9.058122    0.010376    0.000000    1.485000
   104  Na    c     4.508535    2.184036   -6.683365    0.000000    1.000000
   105  Na    c    -0.000748    2.184036   -6.683365    0.000000    1.000000
   106  Na    c     6.556753   -4.462209    2.564501    0.000000    1.000000
   107  Na    c    -2.048965   -4.462209    2.564501    0.000000    1.000000
   108  Na    c    -2.245157    0.008376    7.078795    0.000000    1.000000
   109  Na    c     6.752944    0.008376    7.078795    0.000000    1.000000
   110  Na    c     6.774675    7.048995    4.496021    0.000000    1.000000
   111  Na    c    -2.266888    7.048995    4.496021    0.000000    1.000000
   112  Na    c    -2.239659   -1.931109   -4.498010    0.000000    1.000000
   113  Na    c     6.747446   -1.931109   -4.498010    0.000000    1.000000
   114  Na    c     2.253894    4.487757   -7.062087    0.000000    1.000000
   115  Na    c     2.253894    8.973986   -2.542516    0.000000    1.000000
   116  Cl    c     9.062527   -0.018097    4.507643    0.000000    1.485000
   117  Cl    c    -4.554740   -0.018097    4.507643    0.000000    1.485000
   118  Na    c     8.993528   -2.390686    2.282471    0.000000    1.000000
   119  Na    c    -4.485741   -2.390686    2.282471    0.000000    1.000000
   120  O     c     2.253894    6.741081    6.743707    0.000000    0.183000
   121  Na    c     6.723663    4.512642    6.443909    0.000000    1.000000
   122  Na    c    -2.215876    4.512642    6.443909    0.000000    1.000000
   123  Na    c     6.778176   -4.484538   -2.561533    0.000000    1.000000
   124  Na    c    -2.270389   -4.484538   -2.561533    0.000000    1.000000
   125  Cl    c     4.527222   -4.528014   -4.555002    0.000000    1.485000
   126  Cl    c    -0.019435   -4.528014   -4.555002    0.000000    1.485000
   127  Cl    c     9.049791    4.504565    4.497452    0.000000    1.485000
   128  Cl    c    -4.542004    4.504565    4.497452    0.000000    1.485000
   129  Na    c     4.510612    6.734321    6.712656    0.000000    1.000000
   130  Na    c    -0.002825    6.734321    6.712656    0.000000    1.000000
   131  Na    c     9.017726   -2.191488   -2.225359    0.000000    1.000000
   132  Na    c    -4.509939   -2.191488   -2.225359    0.000000    1.000000
   133  O     c     2.253894   -2.255260   -6.718689    0.000000    0.183000
   134  Na    c     2.253894    2.447644    8.985731    0.000000    1.000000
   135  Na    c     2.253894   -6.964683   -0.003540    0.000000    1.000000
   136  O     c     2.253894   -6.796019    2.233664    0.000000    0.183000
   137  O     c     6.766225   -2.243644    6.755847    0.000000    0.183000
   138  O     c    -2.258438   -2.243644    6.755847    0.000000    0.183000
   139  Na    c     6.835183    7.077271   -4.487978    0.000000    1.000000
   140  Na    c    -2.327396    7.077271   -4.487978    0.000000    1.000000
   141  Cl    c     4.489724    9.043140    4.503393    0.000000    1.485000
   142  Cl    c     0.018063    9.043140    4.503393    0.000000    1.485000
   143  Cl    c     9.032884   -0.003097   -4.565293    0.000000    1.485000
   144  Cl    c    -4.525096   -0.003097   -4.565293    0.000000    1.485000
   145  Na    c     4.510000   -2.178411   -6.703772    0.000000    1.000000
   146  Na    c    -0.002213   -2.178411   -6.703772    0.000000    1.000000
   147  Na    c     9.006026    6.559423    2.214694    0.000000    1.000000
   148  Na    c    -4.498239    6.559423    2.214694    0.000000    1.000000
   149  Na    c     2.253894   -4.481230    6.444546    0.000000    1.000000
   150  O     c     6.763694    2.242299   -6.741865    0.000000    0.183000
   151  O     c    -2.255906    2.242299   -6.741865    0.000000    0.183000
   152  Na    c    -2.322886    8.986587    2.001465    0.000000    1.000000
   153  Na    c     6.830673    8.986587    2.001465    0.000000    1.000000
   154  Na    c     6.890459    0.005022   -7.045980    0.000000    1.000000
   155  Na    c    -2.382671    0.005022   -7.045980    0.000000    1.000000
   156  Cl    c     4.517676    0.009199    9.039570    0.000000    1.485000
   157  Cl    c    -0.009889    0.009199    9.039570    0.000000    1.485000
   158  Na    c     4.500074   -6.772160    2.201098    0.000000    1.000000
   159  Na    c     0.007713   -6.772160    2.201098    0.000000    1.000000
   160  O     c     2.253894   -6.732089   -2.236407    0.000000    0.183000
   161  Cl    c     9.044955    4.534395   -4.552370    0.000000    1.485000
   162  Cl    c    -4.537168    4.534395   -4.552370    0.000000    1.485000
   163  Na    c     9.022408    6.774378   -2.145806    0.000000    1.000000
   164  Na    c    -4.514621    6.774378   -2.145806    0.000000    1.000000
   165  O     c     2.253894    6.725240   -6.745951    0.000000    0.183000
   166  Na    c    11.268225    2.582881    0.004220    0.000000    1.000000
   167  Na    c    -6.760438    2.582881    0.004220    0.000000    1.000000
   168  Na    c     6.696271    4.505998   -6.489103    0.000000    1.000000
   169  Na    c    -2.188483    4.505998   -6.489103    0.000000    1.000000
   170  Na    c     6.727852    9.002084   -1.979044    0.000000    1.000000
   171  Na    c    -2.220065    9.002084   -1.979044    0.000000    1.000000
   172  Cl    c     4.507187    4.526282    9.090739    0.000000    1.485000
   173  Cl    c     0.000600    4.526282    9.090739    0.000000    1.485000
   174  Cl    c     9.058336   -4.498159   -0.012742    0.000000    1.485000
   175  Cl    c    -4.550548   -4.498159   -0.012742    0.000000    1.485000
   176  Na    c     4.512274   -6.662085   -2.246702    0.000000    1.000000
   177  Na    c    -0.004486   -6.662085   -2.246702    0.000000    1.000000
   178  Na    c     9.015752    2.326639    6.764127    0.000000    1.000000
   179  Na    c    -4.507965    2.326639    6.764127    0.000000    1.000000
   180  O     c    11.258560    2.260320    2.245997    0.000000    0.183000
   181  O     c    -6.750773    2.260320    2.245997    0.000000    0.183000
   182  O     c     6.772244    6.768967    6.748125    0.000000    0.183000
   183  O     c    -2.264457    6.768967    6.748125    0.000000    0.183000
   184  Na    c     2.253894   -6.808162    4.490556    0.000000    1.000000
   185  Na    c     2.253894   -2.469276    8.973167    0.000000    1.000000
   186  Cl    c     4.511525    9.048033   -4.542622    0.000000    1.485000
   187  Cl    c    -0.003738    9.048033   -4.542622    0.000000    1.485000
   188  Na    c     4.503336    6.770144   -6.663122    0.000000    1.000000
   189  Na    c     0.004452    6.770144   -6.663122    0.000000    1.000000
   190  Na    c    11.155476   -0.002751    1.993336    0.000000    1.000000
   191  Na    c    -6.647689   -0.002751    1.993336    0.000000    1.000000
   192  O     c     6.766649   -2.233207   -6.756992    0.000000    0.183000
   193  O     c    -2.258862   -2.233207   -6.756992    0.000000    0.183000
   194  O     c    11.275954    2.262215   -2.244758    0.000000    0.183000
   195  O     c    -6.768167    2.262215   -2.244758    0.000000    0.183000
   196  Na    c    -2.254041   -6.488416   -0.006954    0.000000    1.000000
   197  Na    c     6.761829   -6.488416   -0.006954    0.000000    1.000000
   198  Na    c     6.724037    2.521312    8.996886    0.000000    1.000000
   199  Na    c    -2.216250    2.521312    8.996886    0.000000    1.000000
   200  Na    c     2.253894    9.000216    6.714540    0.000000    1.000000
   201  Na    c     2.253894   -4.491358   -6.963735    0.000000    1.000000
   202  Na    c    11.313510    0.009424   -1.971627    0.000000    1.000000
   203  Na    c    -6.805723    0.009424   -1.971627    0.000000    1.000000
   204  Na    c    11.372709    4.492797    2.578124    0.000000    1.000000
   205  Na    c    -6.864922    4.492797    2.578124    0.000000    1.000000
   206  O     c    -2.237768   -6.722897    2.253681    0.000000    0.183000
   207  O     c     6.745555   -6.722897    2.253681    0.000000    0.183000
   208  Na    c     2.253894    2.045962   -8.990890    0.000000    1.000000
   209  Na    c     2.253894   11.151159   -0.005104    0.000000    1.000000
   210  Na    c     6.759063   -4.509062    6.552776    0.000000    1.000000
   211  Na    c    -2.251276   -4.509062    6.552776    0.000000    1.000000
   212  O     c     2.253894   11.268421    2.264216    0.000000    0.183000
   213  Na    c    11.250572    1.978277    4.497904    0.000000    1.000000
   214  Na    c    -6.742785    1.978277    4.497904    0.000000    1.000000
   215  Na    c     2.253894    6.672741    8.998814    0.000000    1.000000
   216  Na    c     2.253894   -6.571447   -4.496856    0.000000    1.000000
   217  Na    c    11.250378   -2.508282    0.000455    0.000000    1.000000
   218  Na    c    -6.742591   -2.508282    0.000455    0.000000    1.000000
   219  Na    c    11.247004    4.501991   -2.539455    0.000000    1.000000
   220  Na    c    -6.739217    4.501991   -2.539455    0.000000    1.000000
   221  Cl    c     9.057647   -4.509871    4.489824    0.000000    1.485000
   222  Cl    c    -4.549860   -4.509871    4.489824    0.000000    1.485000
   223  Na    c     9.012802   -2.289274    6.741853    0.000000    1.000000
   224  Na    c    -4.505015   -2.289274    6.741853    0.000000    1.000000
   225  O     c     6.772019   -6.739264   -2.271204    0.000000    0.183000
   226  O     c    -2.264232   -6.739264   -2.271204    0.000000    0.183000
   227  O     c    11.260505   -2.262880    2.239327    0.000000    0.183000
   228  O     c    -6.752718   -2.262880    2.239327    0.000000    0.183000
   229  Cl    c     4.485286    0.000309   -9.041778    0.000000    1.485000
   230  Cl    c     0.022501    0.000309   -9.041778    0.000000    1.485000
   231  Na    c     4.513430   11.226324    2.226694    0.000000    1.000000
   232  Na    c    -0.005643   11.226324    2.226694    0.000000    1.000000
   233  Cl    c     9.014434    9.067718   -0.020087    0.000000    1.485000
   234  Cl    c    -4.506647    9.067718   -0.020087    0.000000    1.485000
   235  Na    c     9.012765    2.368189   -6.697451    0.000000    1.000000
   236  Na    c    -4.504978    2.368189   -6.697451    0.000000    1.000000
   237  O     c     2.253894   11.246041   -2.277306    0.000000    0.183000
   238  O     c     6.756193    6.770636   -6.732398    0.000000    0.183000
   239  O     c    -2.248406    6.770636   -6.732398    0.000000    0.183000
   240  O     c    11.275626   -2.244758   -2.241528    0.000000    0.183000
   241  O     c    -6.767839   -2.244758   -2.241528    0.000000    0.183000
   242  Na    c    -2.194884   -6.906784    4.501697    0.000000    1.000000
   243  Na    c     6.702671   -6.906784    4.501697    0.000000    1.000000
   244  Na    c     6.706411   -2.460825    9.004787    0.000000    1.000000
[...]
    235 y         -2.253894     -2.234868     0.019026    Cartesian   -0.84
    235 z         -2.253894     -2.222220     0.031673    Cartesian   -1.41
    236 x          4.507787      4.538298     0.030511    Cartesian    0.68
    236 y          4.507787      4.656060     0.148273    Cartesian    3.29
    236 z          4.507787      4.622484     0.114697    Cartesian    2.54
    237 x          2.253894      2.253894     0.000000    Cartesian    0.00
    237 y          6.761681      6.801085     0.039404    Cartesian    0.58
    237 z          2.253894      2.221208    -0.032686    Cartesian   -1.45
    238 x         -2.253894     -2.262022    -0.008128    Cartesian    0.36
    238 y          2.253894      2.257464     0.003570    Cartesian    0.16
    238 z         -2.253894     -2.245399     0.008495    Cartesian   -0.38
    239 x          4.507787      4.512557     0.004769    Cartesian    0.11
    239 y          0.000000     -0.002707    -0.002707    Cartesian *******
    239 z         -4.507787     -4.536891    -0.029104    Cartesian    0.65
    240 x          2.253894      2.253894     0.000000    Cartesian    0.00
    240 y          6.761681      6.718338    -0.043342    Cartesian   -0.64
    240 z         -2.253894     -2.238903     0.014990    Cartesian   -0.67
    241 x          2.253894      2.253894     0.000000    Cartesian    0.00
    241 y          2.253894      2.232614    -0.021279    Cartesian   -0.94
    241 z          6.761681      6.720451    -0.041230    Cartesian   -0.61
    242 x         -2.253894     -2.225320     0.028573    Cartesian   -1.27
    242 y         -2.253894     -2.218786     0.035107    Cartesian   -1.56
    242 z          2.253894      2.246832    -0.007061    Cartesian   -0.31
    243 x          4.507787      4.517068     0.009281    Cartesian    0.21
    243 y          4.507787      4.507541    -0.000246    Cartesian   -0.01
    243 z         -4.507787     -4.529490    -0.021703    Cartesian    0.48
    244 x          4.507787      4.586664     0.078877    Cartesian    1.75
    244 y         -4.507787     -4.604549    -0.096762    Cartesian    2.15
    244 z          0.000000     -0.097789    -0.097789    Cartesian    0.00
    245 x         -2.253894     -2.260855    -0.006962    Cartesian    0.31
    245 y         -2.253894     -2.241546     0.012348    Cartesian   -0.55
    245 z         -2.253894     -2.250038     0.003855    Cartesian   -0.17
    246 x          9.015574      9.064325     0.048751    Cartesian    0.54
    246 y          0.000000     -0.000117    -0.000117    Cartesian *******
    246 z          0.000000     -0.058670    -0.058670    Cartesian    0.00
    247 x          6.761681      6.757755    -0.003926    Cartesian   -0.06
    247 y          6.761681      6.727096    -0.034585    Cartesian   -0.51
    247 z          2.253894      2.252759    -0.001135    Cartesian   -0.05
    248 x          2.253894      2.253894     0.000000    Cartesian    0.00
    248 y         -2.253894     -2.233216     0.020677    Cartesian   -0.92
    248 z          6.761681      6.704801    -0.056880    Cartesian   -0.84
    249 x          9.015574      9.039713     0.024139    Cartesian    0.27
    249 y          4.507787      4.516299     0.008512    Cartesian    0.19
    249 z          0.000000     -0.020595    -0.020595    Cartesian    0.00
    250 x          2.253894      2.253894     0.000000    Cartesian    0.00
    250 y          2.253894      2.259463     0.005569    Cartesian    0.25
    250 z         -6.761681     -6.722987     0.038694    Cartesian   -0.57
    251 x          6.761681      6.778382     0.016701    Cartesian    0.25
    251 y          6.761681      6.754371    -0.007310    Cartesian   -0.11
    251 z         -2.253894     -2.258439    -0.004545    Cartesian    0.20
    252 x          4.507787      4.583636     0.075849    Cartesian    1.68
    252 y         -4.507787     -4.683877    -0.176090    Cartesian    3.91
    252 z          4.507787      4.616044     0.108257    Cartesian    2.40
    253 x         -2.253894     -2.262408    -0.008514    Cartesian    0.38
    253 y          2.253894      2.259047     0.005154    Cartesian    0.23
    253 z          6.761681      6.745414    -0.016267    Cartesian   -0.24
    254 x          4.507787      4.535415     0.027628    Cartesian    0.61
    254 y          9.015574      9.060726     0.045151    Cartesian    0.50
    254 z          0.000000      0.010801     0.010801    Cartesian    0.00
    255 x          9.015574      9.061751     0.046176    Cartesian    0.51
    255 y          0.000000     -0.017011    -0.017011    Cartesian *******
    255 z          4.507787      4.510127     0.002340    Cartesian    0.05
    256 x          2.253894      2.253894     0.000000    Cartesian    0.00
    256 y          6.761681      6.741068    -0.020613    Cartesian   -0.30
    256 z          6.761681      6.743678    -0.018003    Cartesian   -0.27
    257 x          4.507787      4.527981     0.020194    Cartesian    0.45
    257 y         -4.507787     -4.529956    -0.022169    Cartesian    0.49
    257 z         -4.507787     -4.558988    -0.051201    Cartesian    1.14
    258 x          9.015574      9.053051     0.037477    Cartesian    0.42
    258 y          4.507787      4.504780    -0.003008    Cartesian   -0.07
    258 z          4.507787      4.493579    -0.014208    Cartesian   -0.32
    259 x          2.253894      2.253894     0.000000    Cartesian    0.00
    259 y         -2.253894     -2.255299    -0.001405    Cartesian    0.06
    259 z         -6.761681     -6.718697     0.042984    Cartesian   -0.64
    260 x          2.253894      2.253894     0.000000    Cartesian    0.00
    260 y         -6.761681     -6.796096    -0.034416    Cartesian    0.51
    260 z          2.253894      2.233648    -0.020245    Cartesian   -0.90
    261 x          6.761681      6.766231     0.004550    Cartesian    0.07
    261 y         -2.253894     -2.243638     0.010256    Cartesian   -0.46
    261 z          6.761681      6.755874    -0.005807    Cartesian   -0.09
    262 x          4.507787      4.487906    -0.019881    Cartesian   -0.44
    262 y          9.015574      9.044375     0.028800    Cartesian    0.32
    262 z          4.507787      4.500729    -0.007058    Cartesian   -0.16
    263 x          9.015574      9.029132     0.013557    Cartesian    0.15
    263 y          0.000000     -0.002414    -0.002414    Cartesian *******
    263 z         -4.507787     -4.571093    -0.063306    Cartesian    1.40
    264 x          6.761681      6.763702     0.002022    Cartesian    0.03
    264 y          2.253894      2.242266    -0.011627    Cartesian   -0.52
    264 z         -6.761681     -6.741881     0.019800    Cartesian   -0.29
    265 x          4.507787      4.519530     0.011743    Cartesian    0.26
    265 y          0.000000      0.010195     0.010195    Cartesian *******
    265 z          9.015574      9.039307     0.023732    Cartesian    0.26
    266 x          2.253894      2.253894     0.000000    Cartesian    0.00
    266 y         -6.761681     -6.732114     0.029567    Cartesian   -0.44
    266 z         -2.253894     -2.236346     0.017547    Cartesian   -0.78
    267 x          9.015574      9.044557     0.028982    Cartesian    0.32
    267 y          4.507787      4.536001     0.028214    Cartesian    0.63
    267 z         -4.507787     -4.553640    -0.045853    Cartesian    1.02
    268 x          2.253894      2.253894     0.000000    Cartesian    0.00
    268 y          6.761681      6.725215    -0.036466    Cartesian   -0.54
    268 z         -6.761681     -6.745987     0.015694    Cartesian   -0.23
    269 x          4.507787      4.510861     0.003073    Cartesian    0.07
    269 y          4.507787      4.525600     0.017813    Cartesian    0.40
    269 z          9.015574      9.100011     0.084436    Cartesian    0.94
    270 x          9.015574      9.059877     0.044303    Cartesian    0.49
    270 y         -4.507787     -4.492694     0.015094    Cartesian   -0.33
    270 z          0.000000     -0.012004    -0.012004    Cartesian    0.00
    271 x         11.269468     11.258579    -0.010889    Cartesian   -0.10
    271 y          2.253894      2.260363     0.006469    Cartesian    0.29
    271 z          2.253894      2.246007    -0.007886    Cartesian   -0.35
    272 x          6.761681      6.772254     0.010573    Cartesian    0.16
    272 y          6.761681      6.769002     0.007321    Cartesian    0.11
    272 z          6.761681      6.748124    -0.013557    Cartesian   -0.20
    273 x          4.507787      4.509964     0.002177    Cartesian    0.05
    273 y          9.015574      9.050432     0.034858    Cartesian    0.39
    273 z         -4.507787     -4.546825    -0.039037    Cartesian    0.87
    274 x          6.761681      6.766662     0.004981    Cartesian    0.07
    274 y         -2.253894     -2.233185     0.020708    Cartesian   -0.92
    274 z         -6.761681     -6.757023     0.004658    Cartesian   -0.07
    275 x         11.269468     11.275969     0.006501    Cartesian    0.06
    275 y          2.253894      2.262236     0.008342    Cartesian    0.37
    275 z         -2.253894     -2.244758     0.009136    Cartesian   -0.41
    276 x         -2.253894     -2.237731     0.016163    Cartesian   -0.72
    276 y         -6.761681     -6.722916     0.038765    Cartesian   -0.57
    276 z          2.253894      2.253721    -0.000173    Cartesian   -0.01
    277 x          2.253894      2.253894     0.000000    Cartesian    0.00
    277 y         11.269468     11.268394    -0.001074    Cartesian   -0.01
    277 z          2.253894      2.264269     0.010375    Cartesian    0.46
    278 x          9.015574      9.060944     0.045370    Cartesian    0.50
    278 y         -4.507787     -4.510450    -0.002663    Cartesian    0.06
    278 z          4.507787      4.485570    -0.022217    Cartesian   -0.49
    279 x          6.761681      6.772034     0.010353    Cartesian    0.15
    279 y         -6.761681     -6.739267     0.022414    Cartesian   -0.33
    279 z         -2.253894     -2.271257    -0.017364    Cartesian    0.77
    280 x         11.269468     11.260505    -0.008963    Cartesian   -0.08
    280 y         -2.253894     -2.262944    -0.009051    Cartesian    0.40
    280 z          2.253894      2.239304    -0.014589    Cartesian   -0.65
    281 x          4.507787      4.479119    -0.028669    Cartesian   -0.64
    281 y          0.000000      0.001004     0.001004    Cartesian *******
    281 z         -9.015574     -9.044796    -0.029222    Cartesian    0.32
    282 x          9.015574      9.007985    -0.007590    Cartesian   -0.08
    282 y          9.015574      9.074267     0.058693    Cartesian    0.65
    282 z          0.000000     -0.020953    -0.020953    Cartesian    0.00
    283 x          2.253894      2.253894     0.000000    Cartesian    0.00
    283 y         11.269468     11.246059    -0.023409    Cartesian   -0.21
    283 z         -2.253894     -2.277367    -0.023473    Cartesian    1.04
    284 x          6.761681      6.756192    -0.005489    Cartesian   -0.08
    284 y          6.761681      6.770689     0.009008    Cartesian    0.13
    284 z         -6.761681     -6.732388     0.029292    Cartesian   -0.43
    285 x         11.269468     11.275637     0.006169    Cartesian    0.05
    285 y         -2.253894     -2.244782     0.009111    Cartesian   -0.40
    285 z         -2.253894     -2.241502     0.012392    Cartesian   -0.55
    286 x          4.507787      4.550142     0.042355    Cartesian    0.94
    286 y          4.507787      4.519025     0.011238    Cartesian    0.25
    286 z         -9.015574     -9.067313    -0.051739    Cartesian    0.57
    287 x          2.253894      2.253894     0.000000    Cartesian    0.00
    287 y         -6.761681     -6.746633     0.015048    Cartesian   -0.22
    287 z          6.761681      6.745580    -0.016100    Cartesian   -0.24
    288 x          9.015574      9.039727     0.024152    Cartesian    0.27
    288 y         -4.507787     -4.546445    -0.038658    Cartesian    0.86
    288 z         -4.507787     -4.537131    -0.029344    Cartesian    0.65
    289 x         11.269468     11.267925    -0.001543    Cartesian   -0.01
    289 y          6.761681      6.729787    -0.031894    Cartesian   -0.47
    289 z          2.253894      2.259133     0.005239    Cartesian    0.23
    290 x          4.507787      4.523396     0.015609    Cartesian    0.35
    290 y         -4.507787     -4.503478     0.004309    Cartesian   -0.10
    290 z          9.015574      9.085972     0.070398    Cartesian    0.78
    291 x          2.253894      2.253894     0.000000    Cartesian    0.00
    291 y          2.253894      2.257441     0.003548    Cartesian    0.16
    291 z         11.269468     11.252588    -0.016880    Cartesian   -0.15
    292 x          9.015574      9.068504     0.052930    Cartesian    0.59
    292 y          9.015574      9.037210     0.021635    Cartesian    0.24
    292 z          4.507787      4.517211     0.009424    Cartesian    0.21
    293 x         -2.253894     -2.264542    -0.010648    Cartesian    0.47
    293 y         11.269468     11.257172    -0.012296    Cartesian   -0.11
    293 z          2.253894      2.240575    -0.013319    Cartesian   -0.59
    294 x         11.269468     11.271370     0.001901    Cartesian    0.02
    294 y          6.761681      6.749355    -0.012326    Cartesian   -0.18
    294 z         -2.253894     -2.263253    -0.009359    Cartesian    0.42
    295 x          4.507787      4.523899     0.016112    Cartesian    0.36
    295 y         -9.015574     -9.067525    -0.051951    Cartesian    0.58
    295 z          0.000000      0.006789     0.006789    Cartesian    0.00
    296 x          9.015574      9.098173     0.082599    Cartesian    0.92
    296 y          0.000000     -0.002497    -0.002497    Cartesian *******
    296 z          9.015574      9.022486     0.006912    Cartesian    0.08
    297 x         11.269468     11.271846     0.002378    Cartesian    0.02
    297 y          2.253894      2.239964    -0.013930    Cartesian   -0.62
    297 z          6.761681      6.753814    -0.007866    Cartesian   -0.12
    298 x          6.761681      6.762321     0.000640    Cartesian    0.01
    298 y         11.269468     11.264549    -0.004919    Cartesian   -0.04
    298 z         -2.253894     -2.231236     0.022658    Cartesian   -1.01
    299 x          9.015574      9.004491    -0.011084    Cartesian   -0.12
    299 y          4.507787      4.521114     0.013327    Cartesian    0.30
    299 z          9.015574      9.050356     0.034782    Cartesian    0.39
    300 x          2.253894      2.253894     0.000000    Cartesian    0.00
    300 y         -6.761681     -6.741725     0.019956    Cartesian   -0.30
    300 z         -6.761681     -6.770791    -0.009111    Cartesian    0.13
    301 x          9.015574      9.074226     0.058652    Cartesian    0.65
    301 y          9.015574      9.024409     0.008834    Cartesian    0.10
    301 z         -4.507787     -4.541066    -0.033279    Cartesian    0.74
    302 x          2.253894      2.253894     0.000000    Cartesian    0.00
    302 y         -2.253894     -2.260480    -0.006586    Cartesian    0.29
    302 z         11.269468     11.247360    -0.022108    Cartesian   -0.20
    303 x         -2.253894     -2.264153    -0.010260    Cartesian    0.46
    303 y         -6.761681     -6.774527    -0.012846    Cartesian    0.19
    303 z          6.761681      6.756759    -0.004922    Cartesian   -0.07
    304 x         13.523362     13.592156     0.068794    Cartesian    0.51
    304 y          0.000000      0.010162     0.010162    Cartesian *******
    304 z          0.000000     -0.001898    -0.001898    Cartesian    0.00
    305 x          4.507787      4.548548     0.040760    Cartesian    0.90
    305 y          9.015574      9.073347     0.057772    Cartesian    0.64
    305 z          9.015574      9.019705     0.004130    Cartesian    0.05
    306 x          2.253894      2.253894     0.000000    Cartesian    0.00
    306 y         11.269468     11.272887     0.003419    Cartesian    0.03
    306 z          6.761681      6.760818    -0.000862    Cartesian   -0.01
    307 x          4.507787      4.496528    -0.011259    Cartesian   -0.25
    307 y         -9.015574     -9.059584    -0.044010    Cartesian    0.49
    307 z          4.507787      4.500825    -0.006963    Cartesian   -0.15
    308 x          6.761681      6.764377     0.002696    Cartesian    0.04
    308 y          2.253894      2.270290     0.016396    Cartesian    0.73
    308 z         11.269468     11.259840    -0.009628    Cartesian   -0.09
    309 x         11.269468     11.273573     0.004105    Cartesian    0.04
    309 y         -2.253894     -2.250712     0.003182    Cartesian   -0.14
    309 z          6.761681      6.766866     0.005185    Cartesian    0.08
    310 x         13.523362     13.572805     0.049444    Cartesian    0.37
    310 y          4.507787      4.521294     0.013507    Cartesian    0.30
    310 z          0.000000      0.001867     0.001867    Cartesian    0.00
    311 x          4.507787      4.503409    -0.004379    Cartesian   -0.10
    311 y         -4.507787     -4.514323    -0.006536    Cartesian    0.14
    311 z         -9.015574     -9.056450    -0.040876    Cartesian    0.45
    312 x         11.269468     11.267926    -0.001542    Cartesian   -0.01
    312 y          2.253894      2.247960    -0.005933    Cartesian   -0.26
    312 z         -6.761681     -6.764944    -0.003263    Cartesian    0.05
    313 x          2.253894      2.253894     0.000000    Cartesian    0.00
    313 y          6.761681      6.765756     0.004076    Cartesian    0.06
    313 z         11.269468     11.274565     0.005097    Cartesian    0.05
    314 x          9.015574      9.075366     0.059792    Cartesian    0.66
    314 y          0.000000     -0.006719    -0.006719    Cartesian *******
    314 z         -9.015574     -9.043175    -0.027601    Cartesian    0.31
    315 x          2.253894      2.253894     0.000000    Cartesian    0.00
    315 y          2.253894      2.244207    -0.009686    Cartesian   -0.43
    315 z        -11.269468    -11.265507     0.003961    Cartesian   -0.04
--------------------------------------------------------------------------------


  Time to end of optimisation  =      158.8485 seconds


  Peak dynamic memory used =      91.09 MB 


  Timing analysis for GULP :

--------------------------------------------------------------------------------
  Task / Subroutine                                          Time (Seconds)
--------------------------------------------------------------------------------
  Calculation of reciprocal space energy and derivatives          0.0008
  Calculation of reciprocal space energy using symmetry           0.0011
  Calculation of real space energy and derivatives                0.0044
  Calculation of real space energy using symmetry                 0.0111
  Calculation for region 1 energy and derivatives (2-b)          91.9428
  Calculation for region 2a energy                               58.4695
  Calculation for region 2b energy                                0.0285
  Calculation and manipulation of Hessian matrix                  0.2716
  Calculation of matrix inversion                                 7.5019
  Symmetry generation of equivalent positions                     0.0056
--------------------------------------------------------------------------------
  Total CPU time                                                158.8486
--------------------------------------------------------------------------------


  Dump file written as Na3OCl.grs


  Job Finished at 16:20.18 26th November   2020                               

