********************************************************************************
*                       GENERAL UTILITY LATTICE PROGRAM                        *
*                                 Julian Gale                                  *
*                       Curtin Institute for Computation                       *
*                    School of Molecular and Life Sciences                     *
*                    Curtin University, Western Australia                      *
********************************************************************************
* Version = 5.2.0 * Last modified =  10th September 2020                       *
********************************************************************************
*  optimise     - perform optimisation run                                     *
*  conp         - constant pressure calculation                                *
*  property     - calculate properties for final geometry                      *
*  defect       - perform defect calculation after bulk run                    *
*  compare      - compare initial and final structures                         *
********************************************************************************

  Job Started  at 16:20.07 26th November   2020                               

  Number of CPUs =     1


  Total number of configurations input =      1

********************************************************************************
*  Input for Configuration =   1                                               *
********************************************************************************

  Formula = ClONa3                                                      

  Number of irreducible atoms/shells =       5


  Total number atoms/shells =       7

  Dimensionality = 3               :  Bulk   


  Symmetry :

  Crystal family                   :  Cubic       
  Crystal class  (Groth - 1921)    :  Cubic Hexakisoctahedral              

  Space group (centrosymmetric)    :  P M 3 M         

  Patterson group                  :  P m -3 m 

  Cartesian lattice vectors (Angstroms) :

        4.504000    0.000000    0.000000
        0.000000    4.504000    0.000000
        0.000000    0.000000    4.504000

  Cell parameters (Angstroms/Degrees):

  a =       4.5040    alpha =  90.0000
  b =       4.5040    beta  =  90.0000
  c =       4.5040    gamma =  90.0000

  Initial cell volume =          91.368216 Angs**3

  Temperature of configuration =   0.00     K 

  Pressure of configuration =         0.000 GPa 

  Fractional coordinates of asymmetric unit :

--------------------------------------------------------------------------------
   No.  Atomic       x           y          z         Charge      Occupancy
        Label      (Frac)      (Frac)     (Frac)        (e)         (Frac)  
--------------------------------------------------------------------------------
      1 Cl    c    0.000000    0.000000    0.000000     1.48500    1.000000    
      2 O     c    0.500000    0.500000    0.500000     0.18300    1.000000    
      3 Na    c    0.500000    0.500000    0.000000     1.00000    1.000000    
      4 Cl    s    0.000000    0.000000    0.000000    -2.48500    1.000000    
      5 O     s    0.500000    0.500000    0.500000    -2.18300    1.000000    
--------------------------------------------------------------------------------


  Constraints : 

--------------------------------------------------------------------------------
  Constraint no.      Unconstrained     Constrained    Coefficient    Offset
                         Variable         Variable
--------------------------------------------------------------------------------
           1              Strain 1        Strain 2       1.00000      0.0000
           2              Strain 1        Strain 3       1.00000      0.0000
--------------------------------------------------------------------------------


********************************************************************************
*  General input information                                                   *
********************************************************************************

  Species output for all configurations : 

--------------------------------------------------------------------------------
  Species    Type    Atomic    Atomic    Charge       Radii (Angs)     Library
                     Number     Mass       (e)     Cova   Ionic  VDW   Symbol
--------------------------------------------------------------------------------
    Na       Core       11      22.99   1.000000   0.970  0.000  2.300          
    O        Core        8      16.00   0.183000   0.730  0.000  1.360          
    O        Shell       8       0.00  -2.183000   0.730  0.000  1.360          
    Cl       Core       17      35.45   1.485000   0.990  0.000  1.650          
    Cl       Shell      17       0.00  -2.485000   0.990  0.000  1.650          
--------------------------------------------------------------------------------


  Lattice summation method               =    Ewald          (3-D)
                                         =    Parry          (2-D)
                                         =    Saunders et al (1-D)
  Accuracy factor for lattice sums       =   12.000


  Analytic derivatives to be used

  Time limit = Infinity

  Maximum range for interatomic potentials =    100000.000000 Angstroms

  General interatomic potentials :

--------------------------------------------------------------------------------
Atom  Types   Potential      Parameter       Value         Units   Cutoffs(Ang)
  1     2                                                            Min /  Max 
--------------------------------------------------------------------------------
O    c O    s Spring (c-s)  Spring k 2       593.72000    eV*Ang^-2 0.000  0.800
                            Spring k 4       0.0000000    eV*Ang^-4 
--------------------------------------------------------------------------------
Cl   c Cl   s Spring (c-s)  Spring k 2       29.380000    eV*Ang^-2 0.000  0.800
                            Spring k 4       0.0000000    eV*Ang^-4 
--------------------------------------------------------------------------------
Na   c Na   c Buckingham    Buckingham A     1788.1900    eV        0.000 12.000
                            Buckingham rho  0.15900000    Ang       
                            Buckingham C     0.0000000    eV*Ang^6  
--------------------------------------------------------------------------------
Na   c O    s Buckingham    Buckingham A     1226.8400    eV        0.000 12.000
                            Buckingham rho  0.30700000    Ang       
                            Buckingham C     0.0000000    eV*Ang^6  
--------------------------------------------------------------------------------
Na   c Cl   s Buckingham    Buckingham A     2314.7000    eV        0.000 12.000
                            Buckingham rho  0.29000000    Ang       
                            Buckingham C     0.0000000    eV*Ang^6  
--------------------------------------------------------------------------------
O    s O    s Buckingham    Buckingham A     22764.300    eV        0.000 12.000
                            Buckingham rho  0.14900000    Ang       
                            Buckingham C     13.190000    eV*Ang^6  
--------------------------------------------------------------------------------
O    s Cl   s Buckingham    Buckingham A     8286.9100    eV        0.000 12.000
                            Buckingham rho  0.25900000    Ang       
                            Buckingham C     62.200000    eV*Ang^6  
--------------------------------------------------------------------------------
Cl   s Cl   s Buckingham    Buckingham A     1227.2000    eV        0.000 12.000
                            Buckingham rho  0.32100000    Ang       
                            Buckingham C     14.530000    eV*Ang^6  
--------------------------------------------------------------------------------

********************************************************************************
*  Output for configuration   1                                                *
********************************************************************************


  Components of energy : 

--------------------------------------------------------------------------------
  Interatomic potentials     =           5.13022605 eV    
  Monopole - monopole (real) =         -10.03624526 eV    
  Monopole - monopole (recip)=         -29.53581274 eV    
  Monopole - monopole (total)=         -39.57205800 eV    
--------------------------------------------------------------------------------
  Total lattice energy       =         -34.44183194 eV    
--------------------------------------------------------------------------------
  Total lattice energy       =           -3323.1103 kJ/(mole unit cells)
--------------------------------------------------------------------------------


  Number of variables =        1

  Maximum number of calculations  =          1000
  Maximum Hessian update interval =            10
  Maximum step size               =   1.000000000
  Maximum parameter tolerance     =   0.000010000
  Maximum function  tolerance     =   0.000010000
  Maximum gradient  tolerance     =   0.001000000
  Maximum gradient  component     =   0.010000000

  Symmetry constrained optimisation

  Symmetry used for second derivatives

  Cell parameters to be optimised using strains

  Newton-Raphson optimiser to be used

  BFGS hessian update to be used

  Lower half triangular hessian to be used

  Start of bulk optimisation :

  Cycle:      0 Energy:       -34.441832  Gnorm:      0.196570  CPU:    0.017
  ** Hessian calculated **
  Cycle:      1 Energy:       -34.441914  Gnorm:      0.000103  CPU:    0.021


  **** Optimisation achieved ****


  Final energy =     -34.44191447 eV
  Final Gnorm  =       0.00000000

  Components of energy : 

--------------------------------------------------------------------------------
  Interatomic potentials     =           5.09689708 eV    
  Monopole - monopole (real) =         -10.02781331 eV    
  Monopole - monopole (recip)=         -29.51099824 eV    
  Monopole - monopole (total)=         -39.53881155 eV    
--------------------------------------------------------------------------------
  Total lattice energy       =         -34.44191447 eV    
--------------------------------------------------------------------------------
  Total lattice energy       =           -3323.1183 kJ/(mole unit cells)
--------------------------------------------------------------------------------

  Final asymmetric unit coordinates :

--------------------------------------------------------------------------------
   No.  Atomic        x           y           z         Radius
        Label       (Frac)      (Frac)      (Frac)       (Angs) 
--------------------------------------------------------------------------------
     1  Cl    c     0.000000    0.000000    0.000000    0.000000
     2  O     c     0.500000    0.500000    0.500000    0.000000
     3  Na    c     0.500000    0.500000    0.000000    0.000000
     4  Cl    s     0.000000    0.000000    0.000000    0.000000
     5  O     s     0.500000    0.500000    0.500000    0.000000
--------------------------------------------------------------------------------

  Final Cartesian lattice vectors (Angstroms) :

        4.507787    0.000000    0.000000
        0.000000    4.507787    0.000000
        0.000000    0.000000    4.507787


  Final cell parameters and derivatives :

--------------------------------------------------------------------------------
       a            4.507787 Angstrom     dE/de1(xx)     0.000000 eV/strain
       b            4.507787 Angstrom     dE/de2(yy)     0.000000 eV/strain
       c            4.507787 Angstrom     dE/de3(zz)     0.000000 eV/strain
       alpha       90.000000 Degrees      dE/de4(yz)     0.000000 eV/strain
       beta        90.000000 Degrees      dE/de5(xz)     0.000000 eV/strain
       gamma       90.000000 Degrees      dE/de6(xy)     0.000000 eV/strain
--------------------------------------------------------------------------------

  Primitive cell volume =            91.598892 Angs**3

  Density of cell =      2.183054 g/cm**3

  Non-primitive cell volume =            91.598892 Angs**3


  Final internal derivatives :

--------------------------------------------------------------------------------
   No.  Atomic          a             b             c           Radius
        Label          (eV)          (eV)          (eV)        (eV/Angs)
--------------------------------------------------------------------------------
      1 Cl    c       0.000000      0.000000      0.000000      0.000000
      2 O     c       0.000000      0.000000      0.000000      0.000000
      3 Na    c       0.000000      0.000000      0.000000      0.000000
      4 Cl    s       0.000000      0.000000      0.000000      0.000000
      5 O     s       0.000000      0.000000      0.000000      0.000000
--------------------------------------------------------------------------------
  Maximum abs         0.000000      0.000000      0.000000      0.000000
--------------------------------------------------------------------------------

  Comparison of initial and final structures : 

--------------------------------------------------------------------------------
  Parameter   Initial value   Final value   Difference    Units      Percent
--------------------------------------------------------------------------------
    Volume        91.368216     91.598892     0.230676    Angs**3      0.25
    a              4.504000      4.507787     0.003787    Angstroms    0.08
    b              4.504000      4.507787     0.003787    Angstroms    0.08
    c              4.504000      4.507787     0.003787    Angstroms    0.08
    alpha         90.000000     90.000000     0.000000    Degrees      0.00
    beta          90.000000     90.000000     0.000000    Degrees      0.00
    gamma         90.000000     90.000000     0.000000    Degrees      0.00
      1 x          0.000000      0.000000     0.000000    Fractional   0.00
      1 y          0.000000      0.000000     0.000000    Fractional   0.00
      1 z          0.000000      0.000000     0.000000    Fractional   0.00
      2 x          0.500000      0.500000     0.000000    Fractional   0.00
      2 y          0.500000      0.500000     0.000000    Fractional   0.00
      2 z          0.500000      0.500000     0.000000    Fractional   0.00
      3 x          0.500000      0.500000     0.000000    Fractional   0.00
      3 y          0.500000      0.500000     0.000000    Fractional   0.00
      3 z          0.000000      0.000000     0.000000    Fractional   0.00
      4 x          0.000000      0.000000     0.000000    Fractional   0.00
      4 y          0.000000      0.000000     0.000000    Fractional   0.00
      4 z          0.000000      0.000000     0.000000    Fractional   0.00
      5 x          0.500000      0.500000     0.000000    Fractional   0.00
      5 y          0.500000      0.500000     0.000000    Fractional   0.00
      5 z          0.500000      0.500000     0.000000    Fractional   0.00
--------------------------------------------------------------------------------


  Born effective charge tensors : 

-------------------------------------------------------------------------------
  Atom             x           y             z
-------------------------------------------------------------------------------
    1 Cl    x      -1.0181     -0.0000      0.0000
            y      -0.0000     -1.0181      0.0000
            z       0.0000      0.0000     -1.0181
-------------------------------------------------------------------------------
    2 O     x      -2.2647      0.0000     -0.0000
            y       0.0000     -2.2647     -0.0000
            z      -0.0000     -0.0000     -2.2647
-------------------------------------------------------------------------------
    3 Na    x       1.2258     -0.0000      0.0000
            y      -0.0000      1.2258     -0.0000
            z       0.0000     -0.0000      0.8313
-------------------------------------------------------------------------------




  Elastic Constant Matrix: (Units=GPa)

-------------------------------------------------------------------------------
  Indices      1         2         3         4         5         6    
-------------------------------------------------------------------------------
       1     95.8177   20.0737   20.0737   -0.0000   -0.0000    0.0000
       2     20.0737   95.8177   20.0737   -0.0000   -0.0000    0.0000
       3     20.0737   20.0737   95.8177   -0.0000   -0.0000    0.0000
       4     -0.0000   -0.0000   -0.0000   20.0737   -0.0000    0.0000
       5     -0.0000   -0.0000   -0.0000   -0.0000   20.0737    0.0000
       6      0.0000    0.0000    0.0000    0.0000    0.0000   20.0737
-------------------------------------------------------------------------------


  Elastic Compliance Matrix: (Units=1/GPa)

-------------------------------------------------------------------------------
  Indices      1         2         3         4         5         6    
-------------------------------------------------------------------------------
       1    0.011253 -0.001949 -0.001949  0.000000  0.000000 -0.000000
       2   -0.001949  0.011253 -0.001949  0.000000  0.000000  0.000000
       3   -0.001949 -0.001949  0.011253  0.000000  0.000000 -0.000000
       4    0.000000  0.000000  0.000000  0.049816  0.000000 -0.000000
       5    0.000000  0.000000  0.000000  0.000000  0.049816 -0.000000
       6   -0.000000  0.000000 -0.000000 -0.000000 -0.000000  0.049816
-------------------------------------------------------------------------------

  Mechanical properties :

-------------------------------------------------------------------------------
  Convention :                    Reuss         Voigt         Hill
-------------------------------------------------------------------------------
  Bulk  Modulus (GPa)     =      45.32174      45.32174      45.32174
  Shear Modulus (GPa)     =      24.72085      27.19304      25.95695
-------------------------------------------------------------------------------
  Velocity S-wave (km/s)  =       3.36511       3.52937       3.44822
  Velocity P-wave (km/s)  =       5.98827       6.11304       6.05098
-------------------------------------------------------------------------------
  Compressibility (1/GPa) =    0.02206447
-------------------------------------------------------------------------------
  Stress axis :                     x             y             z
-------------------------------------------------------------------------------
  Youngs Moduli (GPa)     =      88.86373      88.86373      88.86373
-------------------------------------------------------------------------------
  Poissons Ratio (x)      =                     0.17321       0.17321
  Poissons Ratio (y)      =       0.17321                     0.17321
  Poissons Ratio (z)      =       0.17321       0.17321
-------------------------------------------------------------------------------


  Piezoelectric Strain Matrix: (Units=C/m**2)

-------------------------------------------------------------------------------
  Indices      1         2         3         4         5         6    
-------------------------------------------------------------------------------
       x    -0.00000  -0.00000  -0.00000   0.00000  -0.00000  -0.00000
       y    -0.00000  -0.00000   0.00000  -0.00000   0.00000   0.00000
       z    -0.00000  -0.00000  -0.00000  -0.00000   0.00000   0.00000
-------------------------------------------------------------------------------


  Piezoelectric Stress Matrix: (Units=10**-11 C/N)

-------------------------------------------------------------------------------
  Indices      1         2         3         4         5         6    
-------------------------------------------------------------------------------
       x    -0.00000   0.00000   0.00000   0.00000  -0.00000  -0.00000
       y    -0.00000  -0.00000   0.00000  -0.00000   0.00000   0.00000
       z     0.00000   0.00000  -0.00000  -0.00000   0.00000   0.00000
-------------------------------------------------------------------------------


  Static dielectric constant tensor : 

-------------------------------------------------------------------------------
              x         y         z
-------------------------------------------------------------------------------
       x    22.84729   0.00000   0.00000
       y     0.00000  22.84729  -0.00000
       z     0.00000  -0.00000  22.84729
--------------------------------------------------------------------------------

  High frequency dielectric constant tensor : 

-------------------------------------------------------------------------------
              x         y         z
-------------------------------------------------------------------------------
       x     1.47557   0.00000  -0.00000
       y     0.00000   1.47557  -0.00000
       z    -0.00000  -0.00000   1.47557
-------------------------------------------------------------------------------

  Static refractive indices : 

-------------------------------------------------------------------------------
    1 =    4.77988      2 =    4.77988      3 =    4.77988
-------------------------------------------------------------------------------

  High frequency refractive indices : 

-------------------------------------------------------------------------------
    1 =    1.21473      2 =    1.21473      3 =    1.21473
-------------------------------------------------------------------------------


  Time to end of optimisation =       0.0308 seconds

********************************************************************************
*  Defect calculation for configuration   1 :                                  *
********************************************************************************

  Total number of defects =      3

  Total charge on defect  =  -1.00

  Defect centre is at   0.5000   0.4400   0.0600  Frac

  Region 1 radius =  12.0000      Number of ions =    556

  Number of symmetry inequivalent region 1 ions  =    324

  Region 2 radius =  16.0000      Number of ions =    749

  Number of symmetry inequivalent region 2a ions =    406

  Region 2a mode = 4 : screened electrostatics due to region 1 
                       neglect correction to region 1 forces from 2a
                       region 2a displacements based on defects only

  Region 2a ions will only interact with defects in region 1

  Vacancies:

--------------------------------------------------------------------------------
    Specification type     Symbol/Number         x          y          z
--------------------------------------------------------------------------------
    Fractional                               0.500000   0.500000   0.000000
    Fractional                               0.500000   0.000000   0.500000
--------------------------------------------------------------------------------

  Interstitials:

--------------------------------------------------------------------------------
    Specification type     Symbol/Number         x          y          z
--------------------------------------------------------------------------------
    Atom/Fractional         Na               0.500000   0.440000   0.060000
--------------------------------------------------------------------------------


  Symmetry reduced region 1 (Relative to defect centre) :

--------------------------------------------------------------------------------
   No.   Atomic       x            y             z       Radius  Multiplicity   
         Label      (Angs)       (Angs)        (Angs)    (Angs)     
--------------------------------------------------------------------------------
     1  Na    c      0.0000       0.0000       0.0000 *  0.0000     1    Defect
     2  O     c      0.0000       0.2705 *     1.9834 *  0.0000     1          
     3  O     c      0.0000       0.2705 *    -2.5244 *  0.0000     1          
     4  Na    c      2.2539 *     0.2705 *     1.9834 *  0.0000     2          
     5  Cl    c      2.2539 *    -1.9834 *    -0.2705 *  0.0000     2          
     6  Na    c      0.0000       2.5244 *     1.9834 *  0.0000     1          
     7  Na    c      0.0000      -1.9834 *    -2.5244 *  0.0000     1          
     8  Cl    c      2.2539 *     2.5244 *    -0.2705 *  0.0000     2          
     9  Na    c      2.2539 *     0.2705 *    -2.5244 *  0.0000     2          
    10  Na    c      0.0000       2.5244 *    -2.5244 *  0.0000     1          
    11  Na    c      0.0000       0.2705 *     4.2373 *  0.0000     1          
    12  Na    c      0.0000      -4.2373 *    -0.2705 *  0.0000     1          
    13  Na    c     -4.5078 *     0.2705 *    -0.2705 *  0.0000     2          
    14  O     c      0.0000      -4.2373 *     1.9834 *  0.0000     1          
    15  Na    c      0.0000       0.2705 *    -4.7783 *  0.0000     1          
    16  Na    c      0.0000       4.7783 *    -0.2705 *  0.0000     1          
    17  O     c     -4.5078 *     0.2705 *     1.9834 *  0.0000     2          
    18  O     c      0.0000      -4.2373 *    -2.5244 *  0.0000     1          
    19  O     c      0.0000       4.7783 *     1.9834 *  0.0000     1          
    20  O     c     -4.5078 *     0.2705 *    -2.5244 *  0.0000     2          
    21  Na    c      2.2539 *    -4.2373 *     1.9834 *  0.0000     2          
    22  Cl    c      2.2539 *    -1.9834 *     4.2373 *  0.0000     2          
    23  Na    c     -4.5078 *    -1.9834 *     1.9834 *  0.0000     2          
    24  O     c      0.0000       4.7783 *    -2.5244 *  0.0000     1          
    25  Cl    c      2.2539 *     2.5244 *     4.2373 *  0.0000     2          
    26  Na    c      2.2539 *    -4.2373 *    -2.5244 *  0.0000     2          
    27  Na    c     -4.5078 *     2.5244 *     1.9834 *  0.0000     2          
    28  Na    c     -4.5078 *    -1.9834 *    -2.5244 *  0.0000     2          
    29  Na    c      2.2539 *     4.7783 *     1.9834 *  0.0000     2          
    30  Cl    c      2.2539 *    -1.9834 *    -4.7783 *  0.0000     2          
    31  Na    c     -4.5078 *     2.5244 *    -2.5244 *  0.0000     2          
    32  Cl    c      2.2539 *     2.5244 *    -4.7783 *  0.0000     2          
    33  Na    c      2.2539 *     4.7783 *    -2.5244 *  0.0000     2          
    34  Na    c      0.0000      -4.2373 *     4.2373 *  0.0000     1          
    35  Na    c     -4.5078 *     0.2705 *     4.2373 *  0.0000     2          
    36  Na    c     -4.5078 *    -4.2373 *    -0.2705 *  0.0000     2          
    37  Na    c      0.0000       4.7783 *     4.2373 *  0.0000     1          
    38  Na    c      0.0000      -4.2373 *    -4.7783 *  0.0000     1          
    39  O     c      0.0000       0.2705 *     6.4912 *  0.0000     1          
    40  O     c     -4.5078 *    -4.2373 *     1.9834 *  0.0000     2          
    41  Na    c     -4.5078 *     0.2705 *    -4.7783 *  0.0000     2          
    42  Na    c     -4.5078 *     4.7783 *    -0.2705 *  0.0000     2          
    43  O     c     -4.5078 *    -4.2373 *    -2.5244 *  0.0000     2          
    44  Na    c      0.0000       4.7783 *    -4.7783 *  0.0000     1          
    45  Na    c      0.0000      -1.9834 *     6.4912 *  0.0000     1          
    46  Na    c      0.0000      -6.4912 *     1.9834 *  0.0000     1          
    47  O     c     -4.5078 *     4.7783 *     1.9834 *  0.0000     2          
    48  Cl    c      2.2539 *    -6.4912 *    -0.2705 *  0.0000     2          
    49  Na    c      2.2539 *     0.2705 *     6.4912 *  0.0000     2          
    50  Na    c      0.0000       2.5244 *     6.4912 *  0.0000     1          
    51  Na    c      0.0000      -6.4912 *    -2.5244 *  0.0000     1          
    52  O     c      0.0000       0.2705 *    -7.0321 *  0.0000     1          
    53  O     c     -4.5078 *     4.7783 *    -2.5244 *  0.0000     2          
    54  Cl    c      6.7617 *    -1.9834 *    -0.2705 *  0.0000     2          
    55  Na    c      6.7617 *     0.2705 *     1.9834 *  0.0000     2          
    56  Cl    c      6.7617 *     2.5244 *    -0.2705 *  0.0000     2          
    57  Na    c      6.7617 *     0.2705 *    -2.5244 *  0.0000     2          
    58  Na    c      0.0000       7.0321 *     1.9834 *  0.0000     1          
    59  Na    c      0.0000      -1.9834 *    -7.0321 *  0.0000     1          
    60  Cl    c      2.2539 *     7.0321 *    -0.2705 *  0.0000     2          
    61  Na    c      2.2539 *     0.2705 *    -7.0321 *  0.0000     2          
    62  Na    c      0.0000       7.0321 *    -2.5244 *  0.0000     1          
    63  Na    c      0.0000       2.5244 *    -7.0321 *  0.0000     1          
    64  Na    c      4.5078 *    -4.2373 *     4.2373 *  0.0000     2          
    65  O     c      0.0000      -4.2373 *     6.4912 *  0.0000     1          
    66  Na    c      4.5078 *     4.7783 *     4.2373 *  0.0000     2          
    67  Na    c      4.5078 *    -4.2373 *    -4.7783 *  0.0000     2          
    68  O     c      4.5078 *     0.2705 *     6.4912 *  0.0000     2          
    69  O     c      0.0000       4.7783 *     6.4912 *  0.0000     1          
    70  Cl    c      2.2539 *    -6.4912 *     4.2373 *  0.0000     2          
    71  Na    c      2.2539 *    -4.2373 *     6.4912 *  0.0000     2          
    72  Na    c      4.5078 *     4.7783 *    -4.7783 *  0.0000     2          
    73  Na    c     -4.5078 *    -6.4912 *     1.9834 *  0.0000     2          
    74  Na    c      4.5078 *    -1.9834 *     6.4912 *  0.0000     2          
    75  O     c      0.0000      -4.2373 *    -7.0321 *  0.0000     1          
    76  Na    c      6.7617 *    -4.2373 *     1.9834 *  0.0000     2          
    77  Cl    c      6.7617 *    -1.9834 *     4.2373 *  0.0000     2          
    78  Na    c     -4.5078 *     2.5244 *     6.4912 *  0.0000     2          
    79  Na    c     -4.5078 *    -6.4912 *    -2.5244 *  0.0000     2          
    80  O     c      4.5078 *     0.2705 *    -7.0321 *  0.0000     2          
    81  Cl    c      2.2539 *    -6.4912 *    -4.7783 *  0.0000     2          
    82  Na    c      2.2539 *     4.7783 *     6.4912 *  0.0000     2          
    83  Cl    c      6.7617 *     2.5244 *     4.2373 *  0.0000     2          
    84  Na    c      6.7617 *    -4.2373 *    -2.5244 *  0.0000     2          
    85  O     c      0.0000       4.7783 *    -7.0321 *  0.0000     1          
    86  Cl    c      2.2539 *     7.0321 *     4.2373 *  0.0000     2          
    87  Na    c      2.2539 *    -4.2373 *    -7.0321 *  0.0000     2          
    88  Na    c      6.7617 *     4.7783 *     1.9834 *  0.0000     2          
    89  Cl    c      6.7617 *    -1.9834 *    -4.7783 *  0.0000     2          
    90  Na    c      4.5078 *     7.0321 *     1.9834 *  0.0000     2          
    91  Na    c      4.5078 *    -1.9834 *    -7.0321 *  0.0000     2          
    92  Cl    c      6.7617 *     2.5244 *    -4.7783 *  0.0000     2          
    93  Na    c      6.7617 *     4.7783 *    -2.5244 *  0.0000     2          
    94  Na    c      4.5078 *     7.0321 *    -2.5244 *  0.0000     2          
    95  Na    c     -4.5078 *     2.5244 *    -7.0321 *  0.0000     2          
    96  Na    c      0.0000       0.2705 *     8.7451 *  0.0000     1          
    97  Na    c      0.0000      -8.7451 *    -0.2705 *  0.0000     1          
    98  Cl    c      2.2539 *     7.0321 *    -4.7783 *  0.0000     2          
    99  Na    c      2.2539 *     4.7783 *    -7.0321 *  0.0000     2          
   100  O     c     -4.5078 *    -4.2373 *     6.4912 *  0.0000     2          
   101  O     c      0.0000      -8.7451 *     1.9834 *  0.0000     1          
   102  Na    c      9.0156 *     0.2705 *    -0.2705 *  0.0000     2          
   103  O     c      0.0000      -8.7451 *    -2.5244 *  0.0000     1          
   104  Na    c      0.0000      -6.4912 *     6.4912 *  0.0000     1          
   105  O     c      4.5078 *     4.7783 *     6.4912 *  0.0000     2          
   106  O     c      9.0156 *     0.2705 *     1.9834 *  0.0000     2          
   107  Cl    c      2.2539 *    -1.9834 *     8.7451 *  0.0000     2          
   108  Na    c      2.2539 *    -8.7451 *     1.9834 *  0.0000     2          
   109  Na    c      0.0000       0.2705 *    -9.2860 *  0.0000     1          
   110  Na    c      0.0000       9.2860 *    -0.2705 *  0.0000     1          
   111  O     c     -4.5078 *    -4.2373 *    -7.0321 *  0.0000     2          
   112  O     c      9.0156 *     0.2705 *    -2.5244 *  0.0000     2          
   113  Cl    c      6.7617 *    -6.4912 *    -0.2705 *  0.0000     2          
   114  Na    c      6.7617 *     0.2705 *     6.4912 *  0.0000     2          
   115  Cl    c      2.2539 *     2.5244 *     8.7451 *  0.0000     2          
   116  Na    c      2.2539 *    -8.7451 *    -2.5244 *  0.0000     2          
   117  Na    c      9.0156 *    -1.9834 *     1.9834 *  0.0000     2          
   118  O     c      0.0000       9.2860 *     1.9834 *  0.0000     1          
   119  Na    c      0.0000       7.0321 *     6.4912 *  0.0000     1          
   120  Na    c      0.0000      -6.4912 *    -7.0321 *  0.0000     1          
   121  Na    c      9.0156 *     2.5244 *     1.9834 *  0.0000     2          
   122  Na    c      9.0156 *    -1.9834 *    -2.5244 *  0.0000     2          
   123  O     c      0.0000       9.2860 *    -2.5244 *  0.0000     1          
   124  O     c      4.5078 *     4.7783 *    -7.0321 *  0.0000     2          
   125  Na    c      9.0156 *     2.5244 *    -2.5244 *  0.0000     2          
   126  Na    c      0.0000      -4.2373 *     8.7451 *  0.0000     1          
   127  Na    c      0.0000      -8.7451 *     4.2373 *  0.0000     1          
   128  Na    c      2.2539 *     9.2860 *     1.9834 *  0.0000     2          
   129  Cl    c      2.2539 *    -1.9834 *    -9.2860 *  0.0000     2          
   130  Cl    c      6.7617 *     7.0321 *    -0.2705 *  0.0000     2          
   131  Na    c      6.7617 *     0.2705 *    -7.0321 *  0.0000     2          
   132  Na    c      4.5078 *     0.2705 *     8.7451 *  0.0000     2          
   133  Na    c     -4.5078 *    -8.7451 *    -0.2705 *  0.0000     2          
   134  Cl    c      2.2539 *     2.5244 *    -9.2860 *  0.0000     2          
   135  Na    c      2.2539 *     9.2860 *    -2.5244 *  0.0000     2          
   136  Na    c      0.0000       7.0321 *    -7.0321 *  0.0000     1          
   137  Na    c      9.0156 *     0.2705 *     4.2373 *  0.0000     2          
   138  Na    c      9.0156 *    -4.2373 *    -0.2705 *  0.0000     2          
   139  Na    c      0.0000       4.7783 *     8.7451 *  0.0000     1          
   140  Na    c      0.0000      -8.7451 *    -4.7783 *  0.0000     1          
   141  O     c     -4.5078 *    -8.7451 *     1.9834 *  0.0000     2          
   142  O     c      9.0156 *    -4.2373 *     1.9834 *  0.0000     2          
   143  O     c     -4.5078 *    -8.7451 *    -2.5244 *  0.0000     2          
   144  Na    c      0.0000       9.2860 *     4.2373 *  0.0000     1          
   145  Na    c      0.0000      -4.2373 *    -9.2860 *  0.0000     1          
   146  Na    c      9.0156 *     0.2705 *    -4.7783 *  0.0000     2          
   147  Na    c      9.0156 *     4.7783 *    -0.2705 *  0.0000     2          
   148  Na    c     -4.5078 *    -6.4912 *     6.4912 *  0.0000     2          
   149  O     c      9.0156 *    -4.2373 *    -2.5244 *  0.0000     2          
   150  Cl    c      6.7617 *    -6.4912 *     4.2373 *  0.0000     2          
   151  Na    c      6.7617 *    -4.2373 *     6.4912 *  0.0000     2          
   152  Na    c      4.5078 *     0.2705 *    -9.2860 *  0.0000     2          
   153  Na    c     -4.5078 *     9.2860 *    -0.2705 *  0.0000     2          
   154  O     c      9.0156 *     4.7783 *     1.9834 *  0.0000     2          
   155  Na    c      0.0000       4.7783 *    -9.2860 *  0.0000     1          
   156  Na    c      0.0000       9.2860 *    -4.7783 *  0.0000     1          
   157  O     c     -4.5078 *     9.2860 *     1.9834 *  0.0000     2          
   158  O     c      9.0156 *     4.7783 *    -2.5244 *  0.0000     2          
   159  Cl    c      6.7617 *    -6.4912 *    -4.7783 *  0.0000     2          
   160  Na    c      6.7617 *     4.7783 *     6.4912 *  0.0000     2          
   161  Na    c      4.5078 *     7.0321 *     6.4912 *  0.0000     2          
   162  Na    c     -4.5078 *    -6.4912 *    -7.0321 *  0.0000     2          
   163  O     c     -4.5078 *     9.2860 *    -2.5244 *  0.0000     2          
   164  Cl    c      6.7617 *     7.0321 *     4.2373 *  0.0000     2          
   165  Na    c      6.7617 *    -4.2373 *    -7.0321 *  0.0000     2          
   166  Na    c     -4.5078 *    -4.2373 *     8.7451 *  0.0000     2          
   167  Na    c     -4.5078 *    -8.7451 *     4.2373 *  0.0000     2          
   168  Na    c      9.0156 *    -4.2373 *     4.2373 *  0.0000     2          
   169  Cl    c      6.7617 *     7.0321 *    -4.7783 *  0.0000     2          
   170  Na    c      6.7617 *     4.7783 *    -7.0321 *  0.0000     2          
   171  O     c      0.0000      -8.7451 *     6.4912 *  0.0000     1          
   172  Na    c      4.5078 *     7.0321 *    -7.0321 *  0.0000     2          
   173  Na    c     -4.5078 *    -8.7451 *    -4.7783 *  0.0000     2          
   174  Na    c      4.5078 *     4.7783 *     8.7451 *  0.0000     2          
   175  O     c      0.0000       0.2705 *    10.9990 *  0.0000     1          
   176  Na    c      9.0156 *     4.7783 *     4.2373 *  0.0000     2          
   177  Na    c      9.0156 *    -4.2373 *    -4.7783 *  0.0000     2          
   178  O     c      9.0156 *     0.2705 *     6.4912 *  0.0000     2          
   179  Cl    c      2.2539 *    -6.4912 *     8.7451 *  0.0000     2          
   180  Na    c      2.2539 *    -8.7451 *     6.4912 *  0.0000     2          
   181  Na    c     -4.5078 *     9.2860 *     4.2373 *  0.0000     2          
   182  Na    c      4.5078 *    -4.2373 *    -9.2860 *  0.0000     2          
   183  Na    c      0.0000      -1.9834 *    10.9990 *  0.0000     1          
   184  Na    c      0.0000     -10.9990 *     1.9834 *  0.0000     1          
   185  O     c      0.0000      -8.7451 *    -7.0321 *  0.0000     1          
   186  Cl    c      2.2539 *   -10.9990 *    -0.2705 *  0.0000     2          
   187  Na    c      2.2539 *     0.2705 *    10.9990 *  0.0000     2          
   188  Na    c      6.7617 *    -8.7451 *     1.9834 *  0.0000     2          
   189  Cl    c      6.7617 *    -1.9834 *     8.7451 *  0.0000     2          
   190  Na    c      9.0156 *     4.7783 *    -4.7783 *  0.0000     2          
   191  Na    c      0.0000       2.5244 *    10.9990 *  0.0000     1          
   192  Na    c      0.0000     -10.9990 *    -2.5244 *  0.0000     1          
   193  Na    c      9.0156 *    -1.9834 *     6.4912 *  0.0000     2          
   194  Na    c      9.0156 *    -6.4912 *     1.9834 *  0.0000     2          
   195  O     c      0.0000       9.2860 *     6.4912 *  0.0000     1          
   196  Cl    c      6.7617 *     2.5244 *     8.7451 *  0.0000     2          
   197  Na    c      6.7617 *    -8.7451 *    -2.5244 *  0.0000     2          
   198  Na    c      4.5078 *     4.7783 *    -9.2860 *  0.0000     2          
   199  Na    c     -4.5078 *     9.2860 *    -4.7783 *  0.0000     2          
   200  Na    c      9.0156 *     2.5244 *     6.4912 *  0.0000     2          
   201  Na    c      9.0156 *    -6.4912 *    -2.5244 *  0.0000     2          
   202  O     c      9.0156 *     0.2705 *    -7.0321 *  0.0000     2          
   203  Cl    c     11.2695 *    -1.9834 *    -0.2705 *  0.0000     2          
   204  Na    c     11.2695 *     0.2705 *     1.9834 *  0.0000     2          
   205  Cl    c      2.2539 *     7.0321 *     8.7451 *  0.0000     2          
   206  Na    c      2.2539 *    -8.7451 *    -7.0321 *  0.0000     2          
   207  O     c      0.0000       0.2705 *   -11.5399 *  0.0000     1          
   208  Cl    c      2.2539 *    -6.4912 *    -9.2860 *  0.0000     2          
   209  Cl    c     11.2695 *     2.5244 *    -0.2705 *  0.0000     2          
   210  Na    c      2.2539 *     9.2860 *     6.4912 *  0.0000     2          
   211  Na    c     11.2695 *     0.2705 *    -2.5244 *  0.0000     2          
   212  Na    c      9.0156 *    -1.9834 *    -7.0321 *  0.0000     2          
   213  Na    c      9.0156 *     7.0321 *     1.9834 *  0.0000     2          
   214  O     c      0.0000       9.2860 *    -7.0321 *  0.0000     1          
   215  Cl    c      6.7617 *    -1.9834 *    -9.2860 *  0.0000     2          
   216  Na    c      6.7617 *     9.2860 *     1.9834 *  0.0000     2          
   217  Na    c      0.0000      11.5399 *     1.9834 *  0.0000     1          
   218  Na    c      0.0000      -1.9834 *   -11.5399 *  0.0000     1          
   219  Na    c      9.0156 *     2.5244 *    -7.0321 *  0.0000     2          
   220  Na    c      9.0156 *     7.0321 *    -2.5244 *  0.0000     2          
   221  Cl    c      6.7617 *     2.5244 *    -9.2860 *  0.0000     2          
   222  Cl    c      2.2539 *    11.5399 *    -0.2705 *  0.0000     2          
   223  Na    c      2.2539 *     0.2705 *   -11.5399 *  0.0000     2          
   224  Na    c      6.7617 *     9.2860 *    -2.5244 *  0.0000     2          
   225  O     c      0.0000      -4.2373 *    10.9990 *  0.0000     1          
   226  O     c     -4.5078 *    -8.7451 *     6.4912 *  0.0000     2          
   227  Na    c      0.0000       2.5244 *   -11.5399 *  0.0000     1          
   228  Na    c      0.0000      11.5399 *    -2.5244 *  0.0000     1          
   229  Cl    c      2.2539 *     7.0321 *    -9.2860 *  0.0000     2          
   230  Na    c      2.2539 *     9.2860 *    -7.0321 *  0.0000     2          
   231  O     c      4.5078 *     0.2705 *    10.9990 *  0.0000     2          
   232  O     c      9.0156 *    -4.2373 *     6.4912 *  0.0000     2          
   233  O     c      0.0000       4.7783 *    10.9990 *  0.0000     1          
   234  O     s      0.0000       0.2705 *     1.9834 *  0.0000     1          
   235  O     s      0.0000       0.2705 *    -2.5244 *  0.0000     1          
   236  Cl    s      2.2539 *    -1.9834 *    -0.2705 *  0.0000     2          
   237  Cl    s      2.2539 *     2.5244 *    -0.2705 *  0.0000     2          
   238  O     s      0.0000      -4.2373 *     1.9834 *  0.0000     1          
   239  O     s     -4.5078 *     0.2705 *     1.9834 *  0.0000     2          
   240  O     s      0.0000      -4.2373 *    -2.5244 *  0.0000     1          
   241  O     s      0.0000       4.7783 *     1.9834 *  0.0000     1          
   242  O     s     -4.5078 *     0.2705 *    -2.5244 *  0.0000     2          
   243  Cl    s      2.2539 *    -1.9834 *     4.2373 *  0.0000     2          
   244  O     s      0.0000       4.7783 *    -2.5244 *  0.0000     1          
   245  Cl    s      2.2539 *     2.5244 *     4.2373 *  0.0000     2          
   246  Cl    s      2.2539 *    -1.9834 *    -4.7783 *  0.0000     2          
   247  Cl    s      2.2539 *     2.5244 *    -4.7783 *  0.0000     2          
   248  O     s      0.0000       0.2705 *     6.4912 *  0.0000     1          
   249  O     s     -4.5078 *    -4.2373 *     1.9834 *  0.0000     2          
   250  O     s     -4.5078 *    -4.2373 *    -2.5244 *  0.0000     2          
   251  O     s     -4.5078 *     4.7783 *     1.9834 *  0.0000     2          
   252  Cl    s      2.2539 *    -6.4912 *    -0.2705 *  0.0000     2          
   253  O     s      0.0000       0.2705 *    -7.0321 *  0.0000     1          
   254  O     s     -4.5078 *     4.7783 *    -2.5244 *  0.0000     2          
   255  Cl    s      6.7617 *    -1.9834 *    -0.2705 *  0.0000     2          
   256  Cl    s      6.7617 *     2.5244 *    -0.2705 *  0.0000     2          
   257  Cl    s      2.2539 *     7.0321 *    -0.2705 *  0.0000     2          
   258  O     s      0.0000      -4.2373 *     6.4912 *  0.0000     1          
   259  O     s      4.5078 *     0.2705 *     6.4912 *  0.0000     2          
   260  O     s      0.0000       4.7783 *     6.4912 *  0.0000     1          
   261  Cl    s      2.2539 *    -6.4912 *     4.2373 *  0.0000     2          
   262  O     s      0.0000      -4.2373 *    -7.0321 *  0.0000     1          
   263  Cl    s      6.7617 *    -1.9834 *     4.2373 *  0.0000     2          
   264  O     s      4.5078 *     0.2705 *    -7.0321 *  0.0000     2          
   265  Cl    s      2.2539 *    -6.4912 *    -4.7783 *  0.0000     2          
   266  Cl    s      6.7617 *     2.5244 *     4.2373 *  0.0000     2          
   267  O     s      0.0000       4.7783 *    -7.0321 *  0.0000     1          
   268  Cl    s      2.2539 *     7.0321 *     4.2373 *  0.0000     2          
   269  Cl    s      6.7617 *    -1.9834 *    -4.7783 *  0.0000     2          
   270  Cl    s      6.7617 *     2.5244 *    -4.7783 *  0.0000     2          
   271  Cl    s      2.2539 *     7.0321 *    -4.7783 *  0.0000     2          
   272  O     s     -4.5078 *    -4.2373 *     6.4912 *  0.0000     2          
   273  O     s      0.0000      -8.7451 *     1.9834 *  0.0000     1          
   274  O     s      0.0000      -8.7451 *    -2.5244 *  0.0000     1          
   275  O     s      4.5078 *     4.7783 *     6.4912 *  0.0000     2          
   276  O     s      9.0156 *     0.2705 *     1.9834 *  0.0000     2          
   277  Cl    s      2.2539 *    -1.9834 *     8.7451 *  0.0000     2          
   278  O     s     -4.5078 *    -4.2373 *    -7.0321 *  0.0000     2          
   279  O     s      9.0156 *     0.2705 *    -2.5244 *  0.0000     2          
   280  Cl    s      6.7617 *    -6.4912 *    -0.2705 *  0.0000     2          
   281  Cl    s      2.2539 *     2.5244 *     8.7451 *  0.0000     2          
   282  O     s      0.0000       9.2860 *     1.9834 *  0.0000     1          
   283  O     s      0.0000       9.2860 *    -2.5244 *  0.0000     1          
   284  O     s      4.5078 *     4.7783 *    -7.0321 *  0.0000     2          
   285  Cl    s      2.2539 *    -1.9834 *    -9.2860 *  0.0000     2          
   286  Cl    s      6.7617 *     7.0321 *    -0.2705 *  0.0000     2          
   287  Cl    s      2.2539 *     2.5244 *    -9.2860 *  0.0000     2          
   288  O     s     -4.5078 *    -8.7451 *     1.9834 *  0.0000     2          
   289  O     s      9.0156 *    -4.2373 *     1.9834 *  0.0000     2          
   290  O     s     -4.5078 *    -8.7451 *    -2.5244 *  0.0000     2          
   291  O     s      9.0156 *    -4.2373 *    -2.5244 *  0.0000     2          
   292  Cl    s      6.7617 *    -6.4912 *     4.2373 *  0.0000     2          
   293  O     s      9.0156 *     4.7783 *     1.9834 *  0.0000     2          
   294  O     s     -4.5078 *     9.2860 *     1.9834 *  0.0000     2          
   295  O     s      9.0156 *     4.7783 *    -2.5244 *  0.0000     2          
   296  Cl    s      6.7617 *    -6.4912 *    -4.7783 *  0.0000     2          
   297  O     s     -4.5078 *     9.2860 *    -2.5244 *  0.0000     2          
   298  Cl    s      6.7617 *     7.0321 *     4.2373 *  0.0000     2          
   299  Cl    s      6.7617 *     7.0321 *    -4.7783 *  0.0000     2          
   300  O     s      0.0000      -8.7451 *     6.4912 *  0.0000     1          
   301  O     s      0.0000       0.2705 *    10.9990 *  0.0000     1          
   302  O     s      9.0156 *     0.2705 *     6.4912 *  0.0000     2          
   303  Cl    s      2.2539 *    -6.4912 *     8.7451 *  0.0000     2          
   304  O     s      0.0000      -8.7451 *    -7.0321 *  0.0000     1          
   305  Cl    s      2.2539 *   -10.9990 *    -0.2705 *  0.0000     2          
   306  Cl    s      6.7617 *    -1.9834 *     8.7451 *  0.0000     2          
   307  O     s      0.0000       9.2860 *     6.4912 *  0.0000     1          
   308  Cl    s      6.7617 *     2.5244 *     8.7451 *  0.0000     2          
   309  O     s      9.0156 *     0.2705 *    -7.0321 *  0.0000     2          
   310  Cl    s     11.2695 *    -1.9834 *    -0.2705 *  0.0000     2          
   311  Cl    s      2.2539 *     7.0321 *     8.7451 *  0.0000     2          
   312  O     s      0.0000       0.2705 *   -11.5399 *  0.0000     1          
   313  Cl    s      2.2539 *    -6.4912 *    -9.2860 *  0.0000     2          
   314  Cl    s     11.2695 *     2.5244 *    -0.2705 *  0.0000     2          
   315  O     s      0.0000       9.2860 *    -7.0321 *  0.0000     1          
   316  Cl    s      6.7617 *    -1.9834 *    -9.2860 *  0.0000     2          
   317  Cl    s      6.7617 *     2.5244 *    -9.2860 *  0.0000     2          
   318  Cl    s      2.2539 *    11.5399 *    -0.2705 *  0.0000     2          
   319  O     s      0.0000      -4.2373 *    10.9990 *  0.0000     1          
   320  O     s     -4.5078 *    -8.7451 *     6.4912 *  0.0000     2          
   321  Cl    s      2.2539 *     7.0321 *    -9.2860 *  0.0000     2          
   322  O     s      4.5078 *     0.2705 *    10.9990 *  0.0000     2          
   323  O     s      9.0156 *    -4.2373 *     6.4912 *  0.0000     2          
   324  O     s      0.0000       4.7783 *    10.9990 *  0.0000     1          
--------------------------------------------------------------------------------

  Components of defect energy : 

--------------------------------------------------------------------------------
  Region 1 - region 1                   =      4.96678797 eV
  Region 1 - region 2a (unrelaxed)      =      3.42514252 eV
  Region 1 - 2a (relaxed - correction)  =     -0.30688376 eV
  Region 1 (Total)                      =      8.08504673 eV
  Region 2a                             =      0.15334054 eV
  Region 2b                             =     -0.43758895 eV
--------------------------------------------------------------------------------
  Total defect energy                   =      7.80079832 eV
--------------------------------------------------------------------------------

  Largest displacement in region 2 =   0.0320 Angstroms


  Number of variables =      879

  Maximum number of calculations  =        1000
  Maximum Hessian update interval =          10
  Maximum step size               =   1.0000000
  Maximum parameter tolerance     =   0.0000100
  Maximum function  tolerance     =   0.0000100
  Maximum gradient  tolerance     =   0.0010000

  Symmetry adapted optimisation

  Symmetry to be used for second derivatives

  Newton-Raphson optimiser to be used

  BFGS hessian update to be used

  Lower half triangular hessian to be used

  Start of defect optimisation :

  Cycle:      0 Defect Energy:   7.800798  Gnorm:     0.018744  CPU:    2.456
  ** Hessian calculated **
  Cycle:      1 Defect Energy:   6.080225  Gnorm:     0.007239  CPU:    9.467
  Cycle:      2 Defect Energy:   5.438304  Gnorm:     0.006063  CPU:   13.919
  Cycle:      3 Defect Energy:   5.296354  Gnorm:     0.003339  CPU:   17.351
  Cycle:      4 Defect Energy:   5.244947  Gnorm:     0.003172  CPU:   18.378
  Cycle:      5 Defect Energy:   5.177361  Gnorm:     0.002622  CPU:   19.284
  Cycle:      6 Defect Energy:   5.090062  Gnorm:     0.002099  CPU:   20.206
  Cycle:      7 Defect Energy:   4.998939  Gnorm:     0.001983  CPU:   21.068
  Cycle:      8 Defect Energy:   4.934910  Gnorm:     0.001680  CPU:   21.708
  Cycle:      9 Defect Energy:   4.884104  Gnorm:     0.001784  CPU:   22.620
  Cycle:     10 Defect Energy:   4.835313  Gnorm:     0.001844  CPU:   23.524
  ** Hessian calculated **
  Cycle:     11 Defect Energy:   4.817693  Gnorm:     0.001572  CPU:   25.948
  Cycle:     12 Defect Energy:   4.795637  Gnorm:     0.001496  CPU:   26.843
  Cycle:     13 Defect Energy:   4.767235  Gnorm:     0.001471  CPU:   27.821
  Cycle:     14 Defect Energy:   4.734105  Gnorm:     0.001438  CPU:   28.687
  Cycle:     15 Defect Energy:   4.705641  Gnorm:     0.001390  CPU:   29.542
  Cycle:     16 Defect Energy:   4.681163  Gnorm:     0.001360  CPU:   30.364
  Cycle:     17 Defect Energy:   4.659435  Gnorm:     0.001354  CPU:   31.245
  Cycle:     18 Defect Energy:   4.636985  Gnorm:     0.001307  CPU:   32.184
  Cycle:     19 Defect Energy:   4.615172  Gnorm:     0.001266  CPU:   33.033
  Cycle:     20 Defect Energy:   4.593055  Gnorm:     0.001221  CPU:   33.878
  ** Hessian calculated **
  Cycle:     21 Defect Energy:   4.567231  Gnorm:     0.001111  CPU:   36.010
  Cycle:     22 Defect Energy:   4.528754  Gnorm:     0.000913  CPU:   36.905
  Cycle:     23 Defect Energy:   4.513717  Gnorm:     0.000799  CPU:   38.765
  Cycle:     24 Defect Energy:   4.530683  Gnorm:     0.000906  CPU:   41.739
  ** Hessian calculated **
  Cycle:     25 Defect Energy:   4.498807  Gnorm:     0.000644  CPU:   44.448
  Cycle:     26 Defect Energy:   4.487944  Gnorm:     0.000630  CPU:   45.527
  ** Hessian calculated **
  Cycle:     27 Defect Energy:   4.474230  Gnorm:     0.000466  CPU:   48.263
  Cycle:     28 Defect Energy:   4.468488  Gnorm:     0.000385  CPU:   49.194
  ** Hessian calculated **
  Cycle:     29 Defect Energy:   4.458974  Gnorm:     0.000288  CPU:   51.882
  Cycle:     30 Defect Energy:   4.452019  Gnorm:     0.000247  CPU:   52.808
  Cycle:     31 Defect Energy:   4.442948  Gnorm:     0.000287  CPU:   53.738
  Cycle:     32 Defect Energy:   4.434129  Gnorm:     0.000528  CPU:   54.682
  Cycle:     33 Defect Energy:   4.429414  Gnorm:     0.000371  CPU:   55.686
  Cycle:     34 Defect Energy:   4.426431  Gnorm:     0.000266  CPU:   56.575
  Cycle:     35 Defect Energy:   4.424001  Gnorm:     0.000199  CPU:   57.459
  Cycle:     36 Defect Energy:   4.422099  Gnorm:     0.000125  CPU:   58.366
  Cycle:     37 Defect Energy:   4.420985  Gnorm:     0.000080  CPU:   59.247
  Cycle:     38 Defect Energy:   4.420349  Gnorm:     0.000056  CPU:   60.186
  ** Hessian calculated **
  Cycle:     39 Defect Energy:   4.419933  Gnorm:     0.000039  CPU:   62.494
  Cycle:     40 Defect Energy:   4.419708  Gnorm:     0.000027  CPU:   63.346
  Cycle:     41 Defect Energy:   4.419577  Gnorm:     0.000019  CPU:   64.202
  Cycle:     42 Defect Energy:   4.419500  Gnorm:     0.000013  CPU:   65.122
  Cycle:     43 Defect Energy:   4.419452  Gnorm:     0.000009  CPU:   65.965
  Cycle:     44 Defect Energy:   4.419421  Gnorm:     0.000007  CPU:   66.805
  Cycle:     45 Defect Energy:   4.419401  Gnorm:     0.000005  CPU:   67.644
  Cycle:     46 Defect Energy:   4.419387  Gnorm:     0.000003  CPU:   68.463


  **** Optimisation achieved ****


  Final defect energy  =        4.41937845
  Final defect Gnorm   =        0.00000226

  Components of defect energy : 

--------------------------------------------------------------------------------
  Region 1 - region 1                   =      0.76040211 eV
  Region 1 - region 2a (unrelaxed)      =      4.20001220 eV
  Region 1 - 2a (relaxed - correction)  =     -0.21990099 eV
  Region 1 (Total)                      =      4.74051332 eV
  Region 2a                             =      0.10991026 eV
  Region 2b                             =     -0.43104513 eV
--------------------------------------------------------------------------------
  Total defect energy                   =      4.41937845 eV
--------------------------------------------------------------------------------

  Largest displacement in region 2 =   0.0323 Angstroms

  Final coordinates of region 1 :

--------------------------------------------------------------------------------
   No.  Atomic        x           y           z          Radius      Charge
        Label       (Angs)      (Angs)      (Angs)       (Angs)       (e) 
--------------------------------------------------------------------------------
     1  Na    c     2.253894    1.983426    0.063885    0.000000    1.000000
     2  O     c     2.253894    2.334278    2.256409    0.000000    0.183000
     3  O     c     2.253894    2.235698   -2.238629    0.000000    0.183000
     4  Na    c     4.419965    1.796409    2.218424    0.000000    1.000000
     5  Na    c     0.087822    1.796409    2.218424    0.000000    1.000000
     6  Cl    c     4.639312    0.007619   -0.126154    0.000000    1.485000
     7  Cl    c    -0.131525    0.007619   -0.126154    0.000000    1.485000
     8  Na    c     2.253894    4.526558    2.337485    0.000000    1.000000
     9  Na    c     2.253894    0.008282   -2.648803    0.000000    1.000000
    10  Cl    c     4.560776    4.624739   -0.109897    0.000000    1.485000
    11  Cl    c    -0.052988    4.624739   -0.109897    0.000000    1.485000
    12  Na    c     4.508660    2.103180   -2.173769    0.000000    1.000000
    13  Na    c    -0.000873    2.103180   -2.173769    0.000000    1.000000
    14  Na    c     2.253894    4.484810   -1.917064    0.000000    1.000000
    15  Na    c     2.253894    1.829583    4.432003    0.000000    1.000000
    16  Na    c     2.253894   -1.741889    0.075795    0.000000    1.000000
    17  Na    c    -2.315024    2.240117    0.004625    0.000000    1.000000
    18  Na    c     6.822811    2.240117    0.004625    0.000000    1.000000
    19  O     c     2.253894   -2.306116    2.235031    0.000000    0.183000
    20  Na    c     2.253894    2.645786   -4.492596    0.000000    1.000000
    21  Na    c     2.253894    6.814148    0.001278    0.000000    1.000000
    22  O     c    -2.207153    2.241354    2.260521    0.000000    0.183000
    23  O     c     6.714940    2.241354    2.260521    0.000000    0.183000
    24  O     c     2.253894   -2.215180   -2.218770    0.000000    0.183000
    25  O     c     2.253894    6.814393    2.264216    0.000000    0.183000
    26  O     c    -2.262045    2.263455   -2.264722    0.000000    0.183000
    27  O     c     6.769833    2.263455   -2.264722    0.000000    0.183000
    28  Na    c     4.433490   -1.846237    2.247564    0.000000    1.000000
    29  Na    c     0.074297   -1.846237    2.247564    0.000000    1.000000
    30  Cl    c     4.636778   -0.002697    4.623710    0.000000    1.485000
    31  Cl    c    -0.128990   -0.002697    4.623710    0.000000    1.485000
    32  Na    c    -2.586122    0.005165    2.309143    0.000000    1.000000
    33  Na    c     7.093909    0.005165    2.309143    0.000000    1.000000
    34  O     c     2.253894    6.744956   -2.267864    0.000000    0.183000
    35  Cl    c     4.611353    4.617019    4.602803    0.000000    1.485000
    36  Cl    c    -0.103566    4.617019    4.602803    0.000000    1.485000
    37  Na    c     4.508473   -2.130321   -2.187238    0.000000    1.000000
    38  Na    c    -0.000686   -2.130321   -2.187238    0.000000    1.000000
    39  Na    c    -1.804059    4.471814    2.205008    0.000000    1.000000
    40  Na    c     6.311846    4.471814    2.205008    0.000000    1.000000
    41  Na    c    -2.456562    0.004541   -2.193696    0.000000    1.000000
    42  Na    c     6.964349    0.004541   -2.193696    0.000000    1.000000
    43  Na    c     4.503144    6.944556    2.301532    0.000000    1.000000
    44  Na    c     0.004643    6.944556    2.301532    0.000000    1.000000
    45  Cl    c     4.529996    0.009082   -4.524462    0.000000    1.485000
    46  Cl    c    -0.022209    0.009082   -4.524462    0.000000    1.485000
    47  Na    c    -1.995857    4.506552   -2.269436    0.000000    1.000000
    48  Na    c     6.503644    4.506552   -2.269436    0.000000    1.000000
    49  Cl    c     4.538602    4.518949   -4.549904    0.000000    1.485000
    50  Cl    c    -0.030815    4.518949   -4.549904    0.000000    1.485000
    51  Na    c     4.508822    6.848204   -2.277088    0.000000    1.000000
    52  Na    c    -0.001034    6.848204   -2.277088    0.000000    1.000000
    53  Na    c     2.253894   -1.902766    4.430567    0.000000    1.000000
    54  Na    c    -2.091674    2.306777    4.509911    0.000000    1.000000
    55  Na    c     6.599461    2.306777    4.509911    0.000000    1.000000
    56  Na    c    -2.234984   -2.220329    0.009431    0.000000    1.000000
    57  Na    c     6.742771   -2.220329    0.009431    0.000000    1.000000
    58  Na    c     2.253894    6.979822    4.508891    0.000000    1.000000
    59  Na    c     2.253894   -2.658084   -4.462389    0.000000    1.000000
    60  O     c     2.253894    2.234001    6.729768    0.000000    0.183000
    61  O     c    -2.218553   -2.236477    2.258691    0.000000    0.183000
    62  O     c     6.726340   -2.236477    2.258691    0.000000    0.183000
    63  Na    c    -2.156852    2.169086   -4.509075    0.000000    1.000000
    64  Na    c     6.664639    2.169086   -4.509075    0.000000    1.000000
    65  Na    c    -2.178416    6.733844   -0.003052    0.000000    1.000000
    66  Na    c     6.686203    6.733844   -0.003052    0.000000    1.000000
    67  O     c    -2.261878   -2.255616   -2.253838    0.000000    0.183000
    68  O     c     6.769665   -2.255616   -2.253838    0.000000    0.183000
    69  Na    c     2.253894    6.429516   -4.504698    0.000000    1.000000
    70  Na    c     2.253894    0.005671    7.085285    0.000000    1.000000
    71  Na    c     2.253894   -4.491940    2.160353    0.000000    1.000000
    72  O     c    -2.241479    6.719543    2.250986    0.000000    0.183000
    73  O     c     6.749267    6.719543    2.250986    0.000000    0.183000
    74  Cl    c     4.601267   -4.632575   -0.077512    0.000000    1.485000
    75  Cl    c    -0.093479   -4.632575   -0.077512    0.000000    1.485000
    76  Na    c     4.503487    2.200005    6.783562    0.000000    1.000000
    77  Na    c     0.004300    2.200005    6.783562    0.000000    1.000000
    78  Na    c     2.253894    4.477534    6.378962    0.000000    1.000000
    79  Na    c     2.253894   -4.460475   -1.824372    0.000000    1.000000
    80  O     c     2.253894    2.243355   -6.746429    0.000000    0.183000
    81  O     c    -2.267757    6.756926   -2.262066    0.000000    0.183000
    82  O     c     6.775545    6.756926   -2.262066    0.000000    0.183000
    83  Cl    c     9.031024   -0.029722   -0.001392    0.000000    1.485000
    84  Cl    c    -4.523237   -0.029722   -0.001392    0.000000    1.485000
    85  Na    c     8.970873    2.579111    2.383218    0.000000    1.000000
    86  Na    c    -4.463086    2.579111    2.383218    0.000000    1.000000
    87  Cl    c     9.063005    4.478688   -0.015557    0.000000    1.485000
    88  Cl    c    -4.555218    4.478688   -0.015557    0.000000    1.485000
    89  Na    c     9.006121    2.523441   -2.381098    0.000000    1.000000
    90  Na    c    -4.498334    2.523441   -2.381098    0.000000    1.000000
    91  Na    c     2.253894    9.051978    2.156296    0.000000    1.000000
    92  Na    c     2.253894   -0.001750   -6.373135    0.000000    1.000000
    93  Cl    c     4.484258    9.028336    0.015773    0.000000    1.485000
    94  Cl    c     0.023529    9.028336    0.015773    0.000000    1.485000
    95  Na    c     4.506015    2.150626   -6.782413    0.000000    1.000000
    96  Na    c     0.001772    2.150626   -6.782413    0.000000    1.000000
    97  Na    c     2.253894    9.002081   -2.418093    0.000000    1.000000
    98  Na    c     2.253894    4.491833   -7.093799    0.000000    1.000000
    99  Na    c     6.689869   -2.288214    4.505521    0.000000    1.000000
   100  Na    c    -2.182082   -2.288214    4.505521    0.000000    1.000000
   101  O     c     2.253894   -2.224020    6.735044    0.000000    0.183000
   102  Na    c     6.797593    6.634244    4.511572    0.000000    1.000000
   103  Na    c    -2.289806    6.634244    4.511572    0.000000    1.000000
   104  Na    c     6.712462   -2.199480   -4.502085    0.000000    1.000000
   105  Na    c    -2.204674   -2.199480   -4.502085    0.000000    1.000000
   106  O     c     6.765263    2.258777    6.765189    0.000000    0.183000
   107  O     c    -2.257476    2.258777    6.765189    0.000000    0.183000
   108  O     c     2.253894    6.741795    6.748098    0.000000    0.183000
   109  Cl    c     4.601034   -4.619869    4.606359    0.000000    1.485000
   110  Cl    c    -0.093247   -4.619869    4.606359    0.000000    1.485000
   111  Na    c     4.505080   -2.200242    6.727888    0.000000    1.000000
   112  Na    c     0.002707   -2.200242    6.727888    0.000000    1.000000
   113  Na    c     6.869385    6.769552   -4.506752    0.000000    1.000000
   114  Na    c    -2.361598    6.769552   -4.506752    0.000000    1.000000
   115  Na    c    -1.915476   -4.485219    2.240115    0.000000    1.000000
   116  Na    c     6.423263   -4.485219    2.240115    0.000000    1.000000
   117  Na    c     6.814864   -0.001406    6.696637    0.000000    1.000000
   118  Na    c    -2.307077   -0.001406    6.696637    0.000000    1.000000
   119  O     c     2.253894   -2.244917   -6.718488    0.000000    0.183000
   120  Na    c     8.980901   -2.546743    2.273711    0.000000    1.000000
   121  Na    c    -4.473113   -2.546743    2.273711    0.000000    1.000000
   122  Cl    c     9.056007   -0.001654    4.533385    0.000000    1.485000
   123  Cl    c    -4.548220   -0.001654    4.533385    0.000000    1.485000
   124  Na    c    -2.209542    4.506756    6.816964    0.000000    1.000000
   125  Na    c     6.717329    4.506756    6.816964    0.000000    1.000000
   126  Na    c    -2.107673   -4.506958   -2.245309    0.000000    1.000000
   127  Na    c     6.615460   -4.506958   -2.245309    0.000000    1.000000
   128  O     c     6.765888    2.250197   -6.762358    0.000000    0.183000
   129  O     c    -2.258101    2.250197   -6.762358    0.000000    0.183000
   130  Cl    c     4.548219   -4.521174   -4.550012    0.000000    1.485000
   131  Cl    c    -0.040432   -4.521174   -4.550012    0.000000    1.485000
   132  Na    c     4.509222    6.713741    6.726337    0.000000    1.000000
   133  Na    c    -0.001434    6.713741    6.726337    0.000000    1.000000
   134  Cl    c     9.057252    4.523202    4.554650    0.000000    1.485000
   135  Cl    c    -4.549465    4.523202    4.554650    0.000000    1.485000
   136  Na    c     9.008916   -2.460520   -2.272319    0.000000    1.000000
   137  Na    c    -4.501128   -2.460520   -2.272319    0.000000    1.000000
   138  O     c     2.253894    6.746579   -6.758108    0.000000    0.183000
   139  Cl    c     4.484452    9.044774    4.488261    0.000000    1.485000
   140  Cl    c     0.023335    9.044774    4.488261    0.000000    1.485000
   141  Na    c     4.507812   -2.146578   -6.742354    0.000000    1.000000
   142  Na    c    -0.000024   -2.146578   -6.742354    0.000000    1.000000
   143  Na    c     8.998677    6.464963    2.213629    0.000000    1.000000
   144  Na    c    -4.490890    6.464963    2.213629    0.000000    1.000000
   145  Cl    c     9.027493    0.003372   -4.540843    0.000000    1.485000
   146  Cl    c    -4.519706    0.003372   -4.540843    0.000000    1.485000
   147  Na    c     6.938401    8.982295    2.292364    0.000000    1.000000
   148  Na    c    -2.430614    8.982295    2.292364    0.000000    1.000000
   149  Na    c     6.947264    0.002314   -6.813706    0.000000    1.000000
   150  Na    c    -2.439477    0.002314   -6.813706    0.000000    1.000000
   151  Cl    c     9.043035    4.538556   -4.551732    0.000000    1.485000
   152  Cl    c    -4.535248    4.538556   -4.551732    0.000000    1.485000
   153  Na    c     9.019773    6.534390   -2.178564    0.000000    1.000000
   154  Na    c    -4.511986    6.534390   -2.178564    0.000000    1.000000
   155  Na    c     6.926535    9.003226   -2.249837    0.000000    1.000000
   156  Na    c    -2.418747    9.003226   -2.249837    0.000000    1.000000
   157  Na    c    -2.113996    4.504106   -6.712183    0.000000    1.000000
   158  Na    c     6.621783    4.504106   -6.712183    0.000000    1.000000
   159  Na    c     2.253894    2.544070    8.988995    0.000000    1.000000
   160  Na    c     2.253894   -6.928503    0.003457    0.000000    1.000000
   161  Cl    c     4.508432    9.046026   -4.531741    0.000000    1.485000
   162  Cl    c    -0.000645    9.046026   -4.531741    0.000000    1.485000
   163  Na    c     4.504321    6.806338   -6.677786    0.000000    1.000000
   164  Na    c     0.003466    6.806338   -6.677786    0.000000    1.000000
   165  O     c    -2.256377   -2.261486    6.760517    0.000000    0.183000
   166  O     c     6.764164   -2.261486    6.760517    0.000000    0.183000
   167  O     c     2.253894   -6.784528    2.247022    0.000000    0.183000
   168  Na    c    11.060047    2.214595    0.002710    0.000000    1.000000
   169  Na    c    -6.552259    2.214595    0.002710    0.000000    1.000000
   170  O     c     2.253894   -6.730523   -2.238184    0.000000    0.183000
   171  Na    c     2.253894   -4.482351    6.543709    0.000000    1.000000
   172  O     c     6.769037    6.763062    6.774020    0.000000    0.183000
   173  O     c    -2.261250    6.763062    6.774020    0.000000    0.183000
   174  O     c    11.232836    2.248060    2.251255    0.000000    0.183000
   175  O     c    -6.725049    2.248060    2.251255    0.000000    0.183000
   176  Cl    c     4.522684    0.011859    9.030483    0.000000    1.485000
   177  Cl    c    -0.014896    0.011859    9.030483    0.000000    1.485000
   178  Na    c     4.494970   -6.841133    2.261198    0.000000    1.000000
   179  Na    c     0.012817   -6.841133    2.261198    0.000000    1.000000
   180  Na    c     2.253894    1.960723   -8.998704    0.000000    1.000000
   181  Na    c     2.253894   11.241125   -0.010135    0.000000    1.000000
   182  O     c    -2.257707   -2.246079   -6.761726    0.000000    0.183000
   183  O     c     6.765494   -2.246079   -6.761726    0.000000    0.183000
   184  O     c    11.254609    2.246459   -2.250856    0.000000    0.183000
   185  O     c    -6.746822    2.246459   -2.250856    0.000000    0.183000
   186  Cl    c     9.078750   -4.504297   -0.025262    0.000000    1.485000
   187  Cl    c    -4.570962   -4.504297   -0.025262    0.000000    1.485000
   188  Na    c     9.015672    2.302407    6.674694    0.000000    1.000000
   189  Na    c    -4.507884    2.302407    6.674694    0.000000    1.000000
   190  Cl    c     4.518185    4.514220    9.062337    0.000000    1.485000
   191  Cl    c    -0.010398    4.514220    9.062337    0.000000    1.485000
   192  Na    c     4.503276   -6.738731   -2.259049    0.000000    1.000000
   193  Na    c     0.004511   -6.738731   -2.259049    0.000000    1.000000
   194  Na    c    11.018618   -0.012996    2.276005    0.000000    1.000000
   195  Na    c    -6.510831   -0.012996    2.276005    0.000000    1.000000
   196  O     c     2.253894   11.274800    2.248426    0.000000    0.183000
   197  Na    c     2.253894    8.995727    6.925170    0.000000    1.000000
   198  Na    c     2.253894   -4.485728   -6.991332    0.000000    1.000000
   199  Na    c    11.485682    4.484275    2.220432    0.000000    1.000000
   200  Na    c    -6.977895    4.484275    2.220432    0.000000    1.000000
   201  Na    c    11.062666   -0.007640   -2.253738    0.000000    1.000000
   202  Na    c    -6.554878   -0.007640   -2.253738    0.000000    1.000000
   203  O     c     2.253894   11.263234   -2.263812    0.000000    0.183000
   204  O     c     6.759402    6.759527   -6.760016    0.000000    0.183000
   205  O     c    -2.251615    6.759527   -6.760016    0.000000    0.183000
   206  Na    c    11.466914    4.490888   -2.219116    0.000000    1.000000
   207  Na    c    -6.959127    4.490888   -2.219116    0.000000    1.000000
   208  Na    c     2.253894   -2.468570    8.994794    0.000000    1.000000
   209  Na    c     2.253894   -6.752020    4.496555    0.000000    1.000000
   210  Na    c     4.517832   11.223922    2.296599    0.000000    1.000000
   211  Na    c    -0.010045   11.223922    2.296599    0.000000    1.000000
   212  Cl    c     4.493737   -0.011832   -9.045816    0.000000    1.485000
   213  Cl    c     0.014050   -0.011832   -9.045816    0.000000    1.485000
   214  Cl    c     9.028327    9.054363   -0.012180    0.000000    1.485000
   215  Cl    c    -4.520540    9.054363   -0.012180    0.000000    1.485000
   216  Na    c     9.019157    2.405945   -6.680093    0.000000    1.000000
   217  Na    c    -4.511370    2.405945   -6.680093    0.000000    1.000000
   218  Na    c     6.808369    2.209510    9.013660    0.000000    1.000000
   219  Na    c    -2.300581    2.209510    9.013660    0.000000    1.000000
   220  Na    c    -2.241008   -6.729457   -0.001896    0.000000    1.000000
   221  Na    c     6.748796   -6.729457   -0.001896    0.000000    1.000000
   222  Cl    c     4.542854    4.498870   -9.035665    0.000000    1.485000
   223  Cl    c    -0.035067    4.498870   -9.035665    0.000000    1.485000
   224  Na    c     4.513946   11.209686   -2.260021    0.000000    1.000000
   225  Na    c    -0.006159   11.209686   -2.260021    0.000000    1.000000
   226  Na    c     2.253894    9.009142   -6.530913    0.000000    1.000000
   227  Na    c    11.327916    2.209566    4.502374    0.000000    1.000000
   228  Na    c    -6.820129    2.209566    4.502374    0.000000    1.000000
   229  Na    c    11.223799   -2.238322    0.002964    0.000000    1.000000
   230  Na    c    -6.716012   -2.238322    0.002964    0.000000    1.000000
   231  Na    c     2.253894    6.556110    9.004581    0.000000    1.000000
   232  Na    c     2.253894   -6.538061   -4.495722    0.000000    1.000000
   233  O     c    -2.231228   -6.745910    2.252999    0.000000    0.183000
   234  O     c     6.739015   -6.745910    2.252999    0.000000    0.183000
   235  O     c    11.246753   -2.269136    2.254616    0.000000    0.183000
   236  O     c    -6.738966   -2.269136    2.254616    0.000000    0.183000
   237  O     c    -2.255867   -6.763884   -2.263280    0.000000    0.183000
   238  O     c     6.763654   -6.763884   -2.263280    0.000000    0.183000
   239  Na    c     2.253894   11.198787    4.515295    0.000000    1.000000
   240  Na    c     2.253894   -2.056490   -8.994880    0.000000    1.000000
   241  Na    c    11.354458    2.192838   -4.500442    0.000000    1.000000
   242  Na    c    -6.846670    2.192838   -4.500442    0.000000    1.000000
   243  Na    c    11.273638    6.811116    0.005324    0.000000    1.000000
   244  Na    c    -6.765850    6.811116    0.005324    0.000000    1.000000
   245  Na    c    -2.194730   -4.514063    6.778328    0.000000    1.000000
   246  Na    c     6.702517   -4.514063    6.778328    0.000000    1.000000
   247  O     c    11.262695   -2.258468   -2.255399    0.000000    0.183000
   248  O     c    -6.754908   -2.258468   -2.255399    0.000000    0.183000
   249  Cl    c     9.072431   -4.505654    4.515517    0.000000    1.485000
   250  Cl    c    -4.564644   -4.505654    4.515517    0.000000    1.485000
   251  Na    c     9.011951   -2.320541    6.740066    0.000000    1.000000
   252  Na    c    -4.504163   -2.320541    6.740066    0.000000    1.000000
   253  Na    c     6.800534    2.292693   -9.012582    0.000000    1.000000
   254  Na    c    -2.292747    2.292693   -9.012582    0.000000    1.000000
   255  Na    c    -2.207036   11.230411    0.006691    0.000000    1.000000
   256  Na    c     6.714823   11.230411    0.006691    0.000000    1.000000
   257  O     c    11.261540    6.729528    2.250744    0.000000    0.183000
   258  O     c    -6.753753    6.729528    2.250744    0.000000    0.183000
   259  Na    c     2.253894    6.962447   -9.005955    0.000000    1.000000
   260  Na    c     2.253894   11.410800   -4.502685    0.000000    1.000000
   261  O     c    -2.267158   11.257977    2.257516    0.000000    0.183000
   262  O     c     6.774945   11.257977    2.257516    0.000000    0.183000
   263  O     c    11.269622    6.741429   -2.246145    0.000000    0.183000
   264  O     c    -6.761835    6.741429   -2.246145    0.000000    0.183000
   265  Cl    c     9.054668   -4.510872   -4.530136    0.000000    1.485000
   266  Cl    c    -4.546881   -4.510872   -4.530136    0.000000    1.485000
   267  Na    c     9.015430    6.744437    6.806021    0.000000    1.000000
   268  Na    c    -4.507643    6.744437    6.806021    0.000000    1.000000
   269  Na    c     6.764040    9.009718    6.732493    0.000000    1.000000
   270  Na    c    -2.256253    9.009718    6.732493    0.000000    1.000000
   271  Na    c    -2.154777   -4.504585   -6.741434    0.000000    1.000000
   272  Na    c     6.662564   -4.504585   -6.741434    0.000000    1.000000
   273  O     c    -2.260944   11.261597   -2.249263    0.000000    0.183000
   274  O     c     6.768731   11.261597   -2.249263    0.000000    0.183000
   275  Cl    c     9.023520    9.065774    4.515690    0.000000    1.485000
   276  Cl    c    -4.515733    9.065774    4.515690    0.000000    1.485000
   277  Na    c     9.014881   -2.379114   -6.703794    0.000000    1.000000
   278  Na    c    -4.507094   -2.379114   -6.703794    0.000000    1.000000
   279  Na    c    -2.243866   -2.237653    9.011046    0.000000    1.000000
   280  Na    c     6.751653   -2.237653    9.011046    0.000000    1.000000
   281  Na    c    -2.247575   -6.716660    4.511600    0.000000    1.000000
   282  Na    c     6.755362   -6.716660    4.511600    0.000000    1.000000
   283  Na    c    11.261248   -2.217590    4.510068    0.000000    1.000000
   284  Na    c    -6.753461   -2.217590    4.510068    0.000000    1.000000
   285  Cl    c     9.011860    9.046139   -4.529249    0.000000    1.485000
   286  Cl    c    -4.504073    9.046139   -4.529249    0.000000    1.485000
   287  Na    c     9.012581    6.676900   -6.832955    0.000000    1.000000
   288  Na    c    -4.504794    6.676900   -6.832955    0.000000    1.000000
   289  O     c     2.253894   -6.755076    6.751119    0.000000    0.183000
   290  Na    c     6.825333    9.010940   -6.755372    0.000000    1.000000
   291  Na    c    -2.317546    9.010940   -6.755372    0.000000    1.000000
   292  Na    c    -2.291464   -6.755353   -4.506686    0.000000    1.000000
   293  Na    c     6.799252   -6.755353   -4.506686    0.000000    1.000000
   294  Na    c     6.743566    6.787468    9.019871    0.000000    1.000000
   295  Na    c    -2.235779    6.787468    9.019871    0.000000    1.000000
   296  O     c     2.253894    2.275520   11.251557    0.000000    0.183000
   297  Na    c    11.217552    6.741992    4.504218    0.000000    1.000000
   298  Na    c    -6.709765    6.741992    4.504218    0.000000    1.000000
   299  Na    c    11.297041   -2.209264   -4.507250    0.000000    1.000000
   300  Na    c    -6.789254   -2.209264   -4.507250    0.000000    1.000000
   301  O     c    11.274328    2.252843    6.758899    0.000000    0.183000
   302  O     c    -6.766541    2.252843    6.758899    0.000000    0.183000
   303  Cl    c     4.511313   -4.500237    9.063801    0.000000    1.485000
   304  Cl    c    -0.003526   -4.500237    9.063801    0.000000    1.485000
   305  Na    c     4.508458   -6.745116    6.736434    0.000000    1.000000
[...]
    244 y          6.761681      6.744983    -0.016698    Cartesian   -0.25
    244 z         -2.253894     -2.267849    -0.013955    Cartesian    0.62
    245 x          4.507787      4.626657     0.118870    Cartesian    2.64
    245 y          4.507787      4.627862     0.120075    Cartesian    2.66
    245 z          4.507787      4.612499     0.104712    Cartesian    2.32
    246 x          4.507787      4.521301     0.013514    Cartesian    0.30
    246 y          0.000000      0.010788     0.010788    Cartesian    0.00
    246 z         -4.507787     -4.527367    -0.019580    Cartesian    0.43
    247 x          4.507787      4.538320     0.030533    Cartesian    0.68
    247 y          4.507787      4.520527     0.012739    Cartesian    0.28
    247 z         -4.507787     -4.553003    -0.045215    Cartesian    1.00
    248 x          2.253894      2.253894     0.000000    Cartesian    0.00
    248 y          2.253894      2.233968    -0.019926    Cartesian   -0.88
    248 z          6.761681      6.729850    -0.031831    Cartesian   -0.47
    249 x         -2.253894     -2.218616     0.035278    Cartesian   -1.57
    249 y         -2.253894     -2.236487     0.017406    Cartesian   -0.77
    249 z          2.253894      2.258699     0.004806    Cartesian    0.21
    250 x         -2.253894     -2.261889    -0.007996    Cartesian    0.35
    250 y         -2.253894     -2.255633    -0.001739    Cartesian    0.08
    250 z         -2.253894     -2.253836     0.000057    Cartesian   -0.00
    251 x         -2.253894     -2.241432     0.012461    Cartesian   -0.55
    251 y          6.761681      6.719555    -0.042126    Cartesian   -0.62
    251 z          2.253894      2.250978    -0.002916    Cartesian   -0.13
    252 x          4.507787      4.613225     0.105438    Cartesian    2.34
    252 y         -4.507787     -4.646086    -0.138298    Cartesian    3.07
    252 z          0.000000     -0.089195    -0.089195    Cartesian    0.00
    253 x          2.253894      2.253894     0.000000    Cartesian    0.00
    253 y          2.253894      2.243339    -0.010555    Cartesian   -0.47
    253 z         -6.761681     -6.746464     0.015217    Cartesian   -0.23
    254 x         -2.253894     -2.267753    -0.013860    Cartesian    0.61
    254 y          6.761681      6.756922    -0.004759    Cartesian   -0.07
    254 z         -2.253894     -2.262071    -0.008178    Cartesian    0.36
    255 x          9.015574      9.034105     0.018531    Cartesian    0.21
    255 y          0.000000     -0.028704    -0.028704    Cartesian    0.00
    255 z          0.000000     -0.001324    -0.001324    Cartesian    0.00
    256 x          9.015574      9.069515     0.053940    Cartesian    0.60
    256 y          4.507787      4.477783    -0.030004    Cartesian   -0.67
    256 z          0.000000     -0.016006    -0.016006    Cartesian    0.00
    257 x          4.507787      4.479488    -0.028299    Cartesian   -0.63
    257 y          9.015574      9.027871     0.012296    Cartesian    0.14
    257 z          0.000000      0.020300     0.020300    Cartesian    0.00
    258 x          2.253894      2.253894     0.000000    Cartesian    0.00
    258 y         -2.253894     -2.224000     0.029894    Cartesian   -1.33
    258 z          6.761681      6.735131    -0.026550    Cartesian   -0.39
    259 x          6.761681      6.765255     0.003574    Cartesian    0.05
    259 y          2.253894      2.258790     0.004897    Cartesian    0.22
    259 z          6.761681      6.765191     0.003510    Cartesian    0.05
    260 x          2.253894      2.253894     0.000000    Cartesian    0.00
    260 y          6.761681      6.741839    -0.019842    Cartesian   -0.29
    260 z          6.761681      6.748050    -0.013631    Cartesian   -0.20
    261 x          4.507787      4.615696     0.107909    Cartesian    2.39
    261 y         -4.507787     -4.633327    -0.125539    Cartesian    2.78
    261 z          4.507787      4.616973     0.109185    Cartesian    2.42
    262 x          2.253894      2.253894     0.000000    Cartesian    0.00
    262 y         -2.253894     -2.244933     0.008961    Cartesian   -0.40
    262 z         -6.761681     -6.718502     0.043179    Cartesian   -0.64
    263 x          9.015574      9.059656     0.044082    Cartesian    0.49
    263 y          0.000000     -0.001935    -0.001935    Cartesian    0.00
    263 z          4.507787      4.529276     0.021489    Cartesian    0.48
    264 x          6.761681      6.765885     0.004205    Cartesian    0.06
    264 y          2.253894      2.250197    -0.003697    Cartesian   -0.16
    264 z         -6.761681     -6.762356    -0.000675    Cartesian    0.01
    265 x          4.507787      4.548160     0.040373    Cartesian    0.90
    265 y         -4.507787     -4.522495    -0.014708    Cartesian    0.33
    265 z         -4.507787     -4.554357    -0.046570    Cartesian    1.03
    266 x          9.015574      9.060659     0.045085    Cartesian    0.50
    266 y          4.507787      4.522513     0.014726    Cartesian    0.33
    266 z          4.507787      4.551104     0.043317    Cartesian    0.96
    267 x          2.253894      2.253894     0.000000    Cartesian    0.00
    267 y          6.761681      6.746595    -0.015086    Cartesian   -0.22
    267 z         -6.761681     -6.758120     0.003561    Cartesian   -0.05
    268 x          4.507787      4.477937    -0.029851    Cartesian   -0.66
    268 y          9.015574      9.044630     0.029056    Cartesian    0.32
    268 z          4.507787      4.482820    -0.024968    Cartesian   -0.55
    269 x          9.015574      9.028994     0.013420    Cartesian    0.15
    269 y          0.000000      0.003003     0.003003    Cartesian    0.00
    269 z         -4.507787     -4.543034    -0.035247    Cartesian    0.78
    270 x          9.015574      9.045696     0.030122    Cartesian    0.33
    270 y          4.507787      4.537796     0.030009    Cartesian    0.67
    270 z         -4.507787     -4.553037    -0.045250    Cartesian    1.00
    271 x          4.507787      4.503199    -0.004588    Cartesian   -0.10
    271 y          9.015574      9.049257     0.033682    Cartesian    0.37
    271 z         -4.507787     -4.536153    -0.028366    Cartesian    0.63
    272 x         -2.253894     -2.256374    -0.002481    Cartesian    0.11
    272 y         -2.253894     -2.261497    -0.007604    Cartesian    0.34
    272 z          6.761681      6.760508    -0.001173    Cartesian   -0.02
    273 x          2.253894      2.253894     0.000000    Cartesian    0.00
    273 y         -6.761681     -6.784624    -0.022943    Cartesian    0.34
    273 z          2.253894      2.247019    -0.006875    Cartesian   -0.31
    274 x          2.253894      2.253894     0.000000    Cartesian    0.00
    274 y         -6.761681     -6.730579     0.031102    Cartesian   -0.46
    274 z         -2.253894     -2.238134     0.015759    Cartesian   -0.70
    275 x          6.761681      6.769046     0.007365    Cartesian    0.11
    275 y          6.761681      6.763047     0.001366    Cartesian    0.02
    275 z          6.761681      6.774044     0.012364    Cartesian    0.18
    276 x         11.269468     11.232853    -0.036615    Cartesian   -0.32
    276 y          2.253894      2.248098    -0.005796    Cartesian   -0.26
    276 z          2.253894      2.251266    -0.002628    Cartesian   -0.12
    277 x          4.507787      4.519571     0.011784    Cartesian    0.26
    277 y          0.000000      0.013657     0.013657    Cartesian    0.00
    277 z          9.015574      9.029546     0.013971    Cartesian    0.15
    278 x         -2.253894     -2.257719    -0.003826    Cartesian    0.17
    278 y         -2.253894     -2.246077     0.007817    Cartesian   -0.35
    278 z         -6.761681     -6.761731    -0.000050    Cartesian    0.00
    279 x         11.269468     11.254608    -0.014860    Cartesian   -0.13
    279 y          2.253894      2.246476    -0.007418    Cartesian   -0.33
    279 z         -2.253894     -2.250871     0.003023    Cartesian   -0.13
    280 x          9.015574      9.086474     0.070900    Cartesian    0.79
    280 y         -4.507787     -4.499693     0.008094    Cartesian   -0.18
    280 z          0.000000     -0.027226    -0.027226    Cartesian    0.00
    281 x          4.507787      4.514482     0.006695    Cartesian    0.15
    281 y          4.507787      4.514290     0.006502    Cartesian    0.14
    281 z          9.015574      9.066423     0.050849    Cartesian    0.56
    282 x          2.253894      2.253894     0.000000    Cartesian    0.00
    282 y         11.269468     11.274742     0.005273    Cartesian    0.05
    282 z          2.253894      2.248416    -0.005477    Cartesian   -0.24
    283 x          2.253894      2.253894     0.000000    Cartesian    0.00
    283 y         11.269468     11.263249    -0.006219    Cartesian   -0.06
    283 z         -2.253894     -2.263835    -0.009941    Cartesian    0.44
    284 x          6.761681      6.759401    -0.002279    Cartesian   -0.03
    284 y          6.761681      6.759530    -0.002151    Cartesian   -0.03
    284 z         -6.761681     -6.760009     0.001672    Cartesian   -0.02
    285 x          4.507787      4.485217    -0.022570    Cartesian   -0.50
    285 y          0.000000     -0.010978    -0.010978    Cartesian    0.00
    285 z         -9.015574     -9.048406    -0.032831    Cartesian    0.36
    286 x          9.015574      9.028709     0.013135    Cartesian    0.15
    286 y          9.015574      9.060934     0.045360    Cartesian    0.50
    286 z          0.000000     -0.014433    -0.014433    Cartesian    0.00
    287 x          4.507787      4.544684     0.036897    Cartesian    0.82
    287 y          4.507787      4.498410    -0.009377    Cartesian   -0.21
    287 z         -9.015574     -9.035858    -0.020284    Cartesian    0.22
    288 x         -2.253894     -2.231172     0.022722    Cartesian   -1.01
    288 y         -6.761681     -6.745926     0.015755    Cartesian   -0.23
    288 z          2.253894      2.252995    -0.000899    Cartesian   -0.04
    289 x         11.269468     11.246739    -0.022729    Cartesian   -0.20
    289 y         -2.253894     -2.269192    -0.015298    Cartesian    0.68
    289 z          2.253894      2.254619     0.000725    Cartesian    0.03
    290 x         -2.253894     -2.255859    -0.001966    Cartesian    0.09
    290 y         -6.761681     -6.763878    -0.002197    Cartesian    0.03
    290 z         -2.253894     -2.263292    -0.009398    Cartesian    0.42
    291 x         11.269468     11.262673    -0.006795    Cartesian   -0.06
    291 y         -2.253894     -2.258501    -0.004607    Cartesian    0.20
    291 z         -2.253894     -2.255407    -0.001514    Cartesian    0.07
    292 x          9.015574      9.078754     0.063180    Cartesian    0.70
    292 y         -4.507787     -4.501786     0.006001    Cartesian   -0.13
    292 z          4.507787      4.512689     0.004902    Cartesian    0.11
    293 x         11.269468     11.261583    -0.007885    Cartesian   -0.07
    293 y          6.761681      6.729495    -0.032186    Cartesian   -0.48
    293 z          2.253894      2.250729    -0.003164    Cartesian   -0.14
    294 x         -2.253894     -2.267188    -0.013294    Cartesian    0.59
    294 y         11.269468     11.257996    -0.011472    Cartesian   -0.10
    294 z          2.253894      2.257525     0.003632    Cartesian    0.16
    295 x         11.269468     11.269643     0.000175    Cartesian    0.00
    295 y          6.761681      6.741410    -0.020270    Cartesian   -0.30
    295 z         -2.253894     -2.246127     0.007766    Cartesian   -0.34
    296 x          9.015574      9.059009     0.043434    Cartesian    0.48
    296 y         -4.507787     -4.507716     0.000071    Cartesian   -0.00
    296 z         -4.507787     -4.532254    -0.024467    Cartesian    0.54
    297 x         -2.253894     -2.260965    -0.007072    Cartesian    0.31
    297 y         11.269468     11.261593    -0.007875    Cartesian   -0.07
    297 z         -2.253894     -2.249264     0.004629    Cartesian   -0.21
    298 x          9.015574      9.023227     0.007653    Cartesian    0.08
    298 y          9.015574      9.072897     0.057323    Cartesian    0.64
    298 z          4.507787      4.514034     0.006247    Cartesian    0.14
    299 x          9.015574      9.008918    -0.006656    Cartesian   -0.07
    299 y          9.015574      9.048948     0.033373    Cartesian    0.37
    299 z         -4.507787     -4.530145    -0.022358    Cartesian    0.50
    300 x          2.253894      2.253894     0.000000    Cartesian    0.00
    300 y         -6.761681     -6.755101     0.006580    Cartesian   -0.10
    300 z          6.761681      6.751070    -0.010611    Cartesian   -0.16
    301 x          2.253894      2.253894     0.000000    Cartesian    0.00
    301 y          2.253894      2.275589     0.021695    Cartesian    0.96
    301 z         11.269468     11.251564    -0.017904    Cartesian   -0.16
    302 x         11.269468     11.274342     0.004874    Cartesian    0.04
    302 y          2.253894      2.252847    -0.001046    Cartesian   -0.05
    302 z          6.761681      6.758889    -0.002792    Cartesian   -0.04
    303 x          4.507787      4.510542     0.002755    Cartesian    0.06
    303 y         -4.507787     -4.497355     0.010432    Cartesian   -0.23
    303 z          9.015574      9.069446     0.053872    Cartesian    0.60
    304 x          2.253894      2.253894     0.000000    Cartesian    0.00
    304 y         -6.761681     -6.741601     0.020080    Cartesian   -0.30
    304 z         -6.761681     -6.765461    -0.003780    Cartesian    0.06
    305 x          4.507787      4.492770    -0.015017    Cartesian   -0.33
    305 y         -9.015574     -9.053529    -0.037955    Cartesian    0.42
    305 z          0.000000      0.030798     0.030798    Cartesian    0.00
    306 x          9.015574      9.034536     0.018962    Cartesian    0.21
    306 y          0.000000      0.003255     0.003255    Cartesian    0.00
    306 z          9.015574      9.055428     0.039853    Cartesian    0.44
    307 x          2.253894      2.253894     0.000000    Cartesian    0.00
    307 y         11.269468     11.258460    -0.011008    Cartesian   -0.10
    307 z          6.761681      6.774202     0.012521    Cartesian    0.19
    308 x          9.015574      9.036844     0.021269    Cartesian    0.24
    308 y          4.507787      4.531438     0.023651    Cartesian    0.52
    308 z          9.015574      9.037921     0.022347    Cartesian    0.25
    309 x         11.269468     11.274101     0.004633    Cartesian    0.04
    309 y          2.253894      2.263012     0.009119    Cartesian    0.40
    309 z         -6.761681     -6.756382     0.005299    Cartesian   -0.08
    310 x         13.523362     13.638630     0.115269    Cartesian    0.85
    310 y          0.000000      0.024143     0.024143    Cartesian    0.00
    310 z          0.000000     -0.001858    -0.001858    Cartesian    0.00
    311 x          4.507787      4.519099     0.011311    Cartesian    0.25
    311 y          9.015574      9.052478     0.036903    Cartesian    0.41
    311 z          9.015574      9.034262     0.018688    Cartesian    0.21
    312 x          2.253894      2.253894     0.000000    Cartesian    0.00
    312 y          2.253894      2.231501    -0.022393    Cartesian   -0.99
    312 z        -11.269468    -11.256329     0.013139    Cartesian   -0.12
    313 x          4.507787      4.511876     0.004089    Cartesian    0.09
    313 y         -4.507787     -4.529020    -0.021233    Cartesian    0.47
    313 z         -9.015574     -9.034921    -0.019347    Cartesian    0.21
    314 x         13.523362     13.547509     0.024147    Cartesian    0.18
    314 y          4.507787      4.549913     0.042126    Cartesian    0.93
    314 z          0.000000      0.000770     0.000770    Cartesian    0.00
    315 x          2.253894      2.253894     0.000000    Cartesian    0.00
    315 y         11.269468     11.269900     0.000432    Cartesian    0.00
    315 z         -6.761681     -6.752023     0.009657    Cartesian   -0.14
    316 x          9.015574      9.024858     0.009283    Cartesian    0.10
    316 y          0.000000     -0.004492    -0.004492    Cartesian    0.00
    316 z         -9.015574     -9.052743    -0.037169    Cartesian    0.41
    317 x          9.015574      9.034498     0.018923    Cartesian    0.21
    317 y          4.507787      4.515203     0.007416    Cartesian    0.16
    317 z         -9.015574     -9.042936    -0.027362    Cartesian    0.30
    318 x          4.507787      4.513852     0.006065    Cartesian    0.13
    318 y         13.523362     13.564097     0.040736    Cartesian    0.30
    318 z          0.000000     -0.017069    -0.017069    Cartesian    0.00
    319 x          2.253894      2.253894     0.000000    Cartesian    0.00
    319 y         -2.253894     -2.263510    -0.009617    Cartesian    0.43
    319 z         11.269468     11.254261    -0.015207    Cartesian   -0.13
    320 x         -2.253894     -2.262915    -0.009021    Cartesian    0.40
    320 y         -6.761681     -6.770343    -0.008662    Cartesian    0.13
    320 z          6.761681      6.775072     0.013392    Cartesian    0.20
    321 x          4.507787      4.506943    -0.000844    Cartesian   -0.02
    321 y          9.015574      9.014250    -0.001324    Cartesian   -0.01
    321 z         -9.015574     -9.068923    -0.053349    Cartesian    0.59
    322 x          6.761681      6.768642     0.006961    Cartesian    0.10
    322 y          2.253894      2.250867    -0.003027    Cartesian   -0.13
    322 z         11.269468     11.272895     0.003427    Cartesian    0.03
    323 x         11.269468     11.272006     0.002538    Cartesian    0.02
    323 y         -2.253894     -2.257312    -0.003419    Cartesian    0.15
    323 z          6.761681      6.769028     0.007348    Cartesian    0.11
    324 x          2.253894      2.253894     0.000000    Cartesian    0.00
    324 y          6.761681      6.752539    -0.009142    Cartesian   -0.14
    324 z         11.269468     11.279787     0.010319    Cartesian    0.09
--------------------------------------------------------------------------------


  Time to end of optimisation  =       69.3872 seconds


  Peak dynamic memory used =      95.47 MB 


  Timing analysis for GULP :

--------------------------------------------------------------------------------
  Task / Subroutine                                          Time (Seconds)
--------------------------------------------------------------------------------
  Calculation of reciprocal space energy and derivatives          0.0007
  Calculation of reciprocal space energy using symmetry           0.0009
  Calculation of real space energy and derivatives                0.0037
  Calculation of real space energy using symmetry                 0.0092
  Calculation for region 1 energy and derivatives (2-b)          41.3696
  Calculation for region 2a energy                               24.4776
  Calculation for region 2b energy                                0.0123
  Calculation and manipulation of Hessian matrix                  0.1401
  Calculation of matrix inversion                                 3.0587
  Symmetry generation of equivalent positions                     0.0050
--------------------------------------------------------------------------------
  Total CPU time                                                 69.3873
--------------------------------------------------------------------------------


  Dump file written as Na3OCl.grs


  Job Finished at 16:21.26 26th November   2020                               

