********************************************************************************
*                       GENERAL UTILITY LATTICE PROGRAM                        *
*                                 Julian Gale                                  *
*                       Curtin Institute for Computation                       *
*                    School of Molecular and Life Sciences                     *
*                    Curtin University, Western Australia                      *
********************************************************************************
* Version = 5.2.0 * Last modified =  10th September 2020                       *
********************************************************************************
*  optimise     - perform optimisation run                                     *
*  conp         - constant pressure calculation                                *
*  property     - calculate properties for final geometry                      *
*  defect       - perform defect calculation after bulk run                    *
*  compare      - compare initial and final structures                         *
********************************************************************************

  Job Started  at 16:21.04 26th November   2020                               

  Number of CPUs =     1


  Total number of configurations input =      1

********************************************************************************
*  Input for Configuration =   1                                               *
********************************************************************************

  Formula = ClONa3                                                      

  Number of irreducible atoms/shells =       5


  Total number atoms/shells =       7

  Dimensionality = 3               :  Bulk   


  Symmetry :

  Crystal family                   :  Cubic       
  Crystal class  (Groth - 1921)    :  Cubic Hexakisoctahedral              

  Space group (centrosymmetric)    :  P M 3 M         

  Patterson group                  :  P m -3 m 

  Cartesian lattice vectors (Angstroms) :

        4.504000    0.000000    0.000000
        0.000000    4.504000    0.000000
        0.000000    0.000000    4.504000

  Cell parameters (Angstroms/Degrees):

  a =       4.5040    alpha =  90.0000
  b =       4.5040    beta  =  90.0000
  c =       4.5040    gamma =  90.0000

  Initial cell volume =          91.368216 Angs**3

  Temperature of configuration =   0.00     K 

  Pressure of configuration =         0.000 GPa 

  Fractional coordinates of asymmetric unit :

--------------------------------------------------------------------------------
   No.  Atomic       x           y          z         Charge      Occupancy
        Label      (Frac)      (Frac)     (Frac)        (e)         (Frac)  
--------------------------------------------------------------------------------
      1 Cl    c    0.000000    0.000000    0.000000     1.48500    1.000000    
      2 O     c    0.500000    0.500000    0.500000     0.18300    1.000000    
      3 Na    c    0.500000    0.500000    0.000000     1.00000    1.000000    
      4 Cl    s    0.000000    0.000000    0.000000    -2.48500    1.000000    
      5 O     s    0.500000    0.500000    0.500000    -2.18300    1.000000    
--------------------------------------------------------------------------------


  Constraints : 

--------------------------------------------------------------------------------
  Constraint no.      Unconstrained     Constrained    Coefficient    Offset
                         Variable         Variable
--------------------------------------------------------------------------------
           1              Strain 1        Strain 2       1.00000      0.0000
           2              Strain 1        Strain 3       1.00000      0.0000
--------------------------------------------------------------------------------


********************************************************************************
*  General input information                                                   *
********************************************************************************

  Species output for all configurations : 

--------------------------------------------------------------------------------
  Species    Type    Atomic    Atomic    Charge       Radii (Angs)     Library
                     Number     Mass       (e)     Cova   Ionic  VDW   Symbol
--------------------------------------------------------------------------------
    Na       Core       11      22.99   1.000000   0.970  0.000  2.300          
    O        Core        8      16.00   0.183000   0.730  0.000  1.360          
    O        Shell       8       0.00  -2.183000   0.730  0.000  1.360          
    Cl       Core       17      35.45   1.485000   0.990  0.000  1.650          
    Cl       Shell      17       0.00  -2.485000   0.990  0.000  1.650          
--------------------------------------------------------------------------------


  Lattice summation method               =    Ewald          (3-D)
                                         =    Parry          (2-D)
                                         =    Saunders et al (1-D)
  Accuracy factor for lattice sums       =   12.000


  Analytic derivatives to be used

  Time limit = Infinity

  Maximum range for interatomic potentials =    100000.000000 Angstroms

  General interatomic potentials :

--------------------------------------------------------------------------------
Atom  Types   Potential      Parameter       Value         Units   Cutoffs(Ang)
  1     2                                                            Min /  Max 
--------------------------------------------------------------------------------
O    c O    s Spring (c-s)  Spring k 2       593.72000    eV*Ang^-2 0.000  0.800
                            Spring k 4       0.0000000    eV*Ang^-4 
--------------------------------------------------------------------------------
Cl   c Cl   s Spring (c-s)  Spring k 2       29.380000    eV*Ang^-2 0.000  0.800
                            Spring k 4       0.0000000    eV*Ang^-4 
--------------------------------------------------------------------------------
Na   c Na   c Buckingham    Buckingham A     1788.1900    eV        0.000 12.000
                            Buckingham rho  0.15900000    Ang       
                            Buckingham C     0.0000000    eV*Ang^6  
--------------------------------------------------------------------------------
Na   c O    s Buckingham    Buckingham A     1226.8400    eV        0.000 12.000
                            Buckingham rho  0.30700000    Ang       
                            Buckingham C     0.0000000    eV*Ang^6  
--------------------------------------------------------------------------------
Na   c Cl   s Buckingham    Buckingham A     2314.7000    eV        0.000 12.000
                            Buckingham rho  0.29000000    Ang       
                            Buckingham C     0.0000000    eV*Ang^6  
--------------------------------------------------------------------------------
O    s O    s Buckingham    Buckingham A     22764.300    eV        0.000 12.000
                            Buckingham rho  0.14900000    Ang       
                            Buckingham C     13.190000    eV*Ang^6  
--------------------------------------------------------------------------------
O    s Cl   s Buckingham    Buckingham A     8286.9100    eV        0.000 12.000
                            Buckingham rho  0.25900000    Ang       
                            Buckingham C     62.200000    eV*Ang^6  
--------------------------------------------------------------------------------
Cl   s Cl   s Buckingham    Buckingham A     1227.2000    eV        0.000 12.000
                            Buckingham rho  0.32100000    Ang       
                            Buckingham C     14.530000    eV*Ang^6  
--------------------------------------------------------------------------------

********************************************************************************
*  Output for configuration   1                                                *
********************************************************************************


  Components of energy : 

--------------------------------------------------------------------------------
  Interatomic potentials     =           5.13022605 eV    
  Monopole - monopole (real) =         -10.03624526 eV    
  Monopole - monopole (recip)=         -29.53581274 eV    
  Monopole - monopole (total)=         -39.57205800 eV    
--------------------------------------------------------------------------------
  Total lattice energy       =         -34.44183194 eV    
--------------------------------------------------------------------------------
  Total lattice energy       =           -3323.1103 kJ/(mole unit cells)
--------------------------------------------------------------------------------


  Number of variables =        1

  Maximum number of calculations  =          1000
  Maximum Hessian update interval =            10
  Maximum step size               =   1.000000000
  Maximum parameter tolerance     =   0.000010000
  Maximum function  tolerance     =   0.000010000
  Maximum gradient  tolerance     =   0.001000000
  Maximum gradient  component     =   0.010000000

  Symmetry constrained optimisation

  Symmetry used for second derivatives

  Cell parameters to be optimised using strains

  Newton-Raphson optimiser to be used

  BFGS hessian update to be used

  Lower half triangular hessian to be used

  Start of bulk optimisation :

  Cycle:      0 Energy:       -34.441832  Gnorm:      0.196570  CPU:    0.017
  ** Hessian calculated **
  Cycle:      1 Energy:       -34.441914  Gnorm:      0.000103  CPU:    0.022


  **** Optimisation achieved ****


  Final energy =     -34.44191447 eV
  Final Gnorm  =       0.00000000

  Components of energy : 

--------------------------------------------------------------------------------
  Interatomic potentials     =           5.09689708 eV    
  Monopole - monopole (real) =         -10.02781331 eV    
  Monopole - monopole (recip)=         -29.51099824 eV    
  Monopole - monopole (total)=         -39.53881155 eV    
--------------------------------------------------------------------------------
  Total lattice energy       =         -34.44191447 eV    
--------------------------------------------------------------------------------
  Total lattice energy       =           -3323.1183 kJ/(mole unit cells)
--------------------------------------------------------------------------------

  Final asymmetric unit coordinates :

--------------------------------------------------------------------------------
   No.  Atomic        x           y           z         Radius
        Label       (Frac)      (Frac)      (Frac)       (Angs) 
--------------------------------------------------------------------------------
     1  Cl    c     0.000000    0.000000    0.000000    0.000000
     2  O     c     0.500000    0.500000    0.500000    0.000000
     3  Na    c     0.500000    0.500000    0.000000    0.000000
     4  Cl    s     0.000000    0.000000    0.000000    0.000000
     5  O     s     0.500000    0.500000    0.500000    0.000000
--------------------------------------------------------------------------------

  Final Cartesian lattice vectors (Angstroms) :

        4.507787    0.000000    0.000000
        0.000000    4.507787    0.000000
        0.000000    0.000000    4.507787


  Final cell parameters and derivatives :

--------------------------------------------------------------------------------
       a            4.507787 Angstrom     dE/de1(xx)     0.000000 eV/strain
       b            4.507787 Angstrom     dE/de2(yy)     0.000000 eV/strain
       c            4.507787 Angstrom     dE/de3(zz)     0.000000 eV/strain
       alpha       90.000000 Degrees      dE/de4(yz)     0.000000 eV/strain
       beta        90.000000 Degrees      dE/de5(xz)     0.000000 eV/strain
       gamma       90.000000 Degrees      dE/de6(xy)     0.000000 eV/strain
--------------------------------------------------------------------------------

  Primitive cell volume =            91.598892 Angs**3

  Density of cell =      2.183054 g/cm**3

  Non-primitive cell volume =            91.598892 Angs**3


  Final internal derivatives :

--------------------------------------------------------------------------------
   No.  Atomic          a             b             c           Radius
        Label          (eV)          (eV)          (eV)        (eV/Angs)
--------------------------------------------------------------------------------
      1 Cl    c       0.000000      0.000000      0.000000      0.000000
      2 O     c       0.000000      0.000000      0.000000      0.000000
      3 Na    c       0.000000      0.000000      0.000000      0.000000
      4 Cl    s       0.000000      0.000000      0.000000      0.000000
      5 O     s       0.000000      0.000000      0.000000      0.000000
--------------------------------------------------------------------------------
  Maximum abs         0.000000      0.000000      0.000000      0.000000
--------------------------------------------------------------------------------

  Comparison of initial and final structures : 

--------------------------------------------------------------------------------
  Parameter   Initial value   Final value   Difference    Units      Percent
--------------------------------------------------------------------------------
    Volume        91.368216     91.598892     0.230676    Angs**3      0.25
    a              4.504000      4.507787     0.003787    Angstroms    0.08
    b              4.504000      4.507787     0.003787    Angstroms    0.08
    c              4.504000      4.507787     0.003787    Angstroms    0.08
    alpha         90.000000     90.000000     0.000000    Degrees      0.00
    beta          90.000000     90.000000     0.000000    Degrees      0.00
    gamma         90.000000     90.000000     0.000000    Degrees      0.00
      1 x          0.000000      0.000000     0.000000    Fractional   0.00
      1 y          0.000000      0.000000     0.000000    Fractional   0.00
      1 z          0.000000      0.000000     0.000000    Fractional   0.00
      2 x          0.500000      0.500000     0.000000    Fractional   0.00
      2 y          0.500000      0.500000     0.000000    Fractional   0.00
      2 z          0.500000      0.500000     0.000000    Fractional   0.00
      3 x          0.500000      0.500000     0.000000    Fractional   0.00
      3 y          0.500000      0.500000     0.000000    Fractional   0.00
      3 z          0.000000      0.000000     0.000000    Fractional   0.00
      4 x          0.000000      0.000000     0.000000    Fractional   0.00
      4 y          0.000000      0.000000     0.000000    Fractional   0.00
      4 z          0.000000      0.000000     0.000000    Fractional   0.00
      5 x          0.500000      0.500000     0.000000    Fractional   0.00
      5 y          0.500000      0.500000     0.000000    Fractional   0.00
      5 z          0.500000      0.500000     0.000000    Fractional   0.00
--------------------------------------------------------------------------------


  Born effective charge tensors : 

-------------------------------------------------------------------------------
  Atom             x           y             z
-------------------------------------------------------------------------------
    1 Cl    x      -1.0181     -0.0000      0.0000
            y      -0.0000     -1.0181      0.0000
            z       0.0000      0.0000     -1.0181
-------------------------------------------------------------------------------
    2 O     x      -2.2647      0.0000     -0.0000
            y       0.0000     -2.2647     -0.0000
            z      -0.0000     -0.0000     -2.2647
-------------------------------------------------------------------------------
    3 Na    x       1.2258     -0.0000      0.0000
            y      -0.0000      1.2258     -0.0000
            z       0.0000     -0.0000      0.8313
-------------------------------------------------------------------------------




  Elastic Constant Matrix: (Units=GPa)

-------------------------------------------------------------------------------
  Indices      1         2         3         4         5         6    
-------------------------------------------------------------------------------
       1     95.8177   20.0737   20.0737   -0.0000   -0.0000    0.0000
       2     20.0737   95.8177   20.0737   -0.0000   -0.0000    0.0000
       3     20.0737   20.0737   95.8177   -0.0000   -0.0000    0.0000
       4     -0.0000   -0.0000   -0.0000   20.0737   -0.0000    0.0000
       5     -0.0000   -0.0000   -0.0000   -0.0000   20.0737    0.0000
       6      0.0000    0.0000    0.0000    0.0000    0.0000   20.0737
-------------------------------------------------------------------------------


  Elastic Compliance Matrix: (Units=1/GPa)

-------------------------------------------------------------------------------
  Indices      1         2         3         4         5         6    
-------------------------------------------------------------------------------
       1    0.011253 -0.001949 -0.001949  0.000000  0.000000 -0.000000
       2   -0.001949  0.011253 -0.001949  0.000000  0.000000  0.000000
       3   -0.001949 -0.001949  0.011253  0.000000  0.000000 -0.000000
       4    0.000000  0.000000  0.000000  0.049816  0.000000 -0.000000
       5    0.000000  0.000000  0.000000  0.000000  0.049816 -0.000000
       6   -0.000000  0.000000 -0.000000 -0.000000 -0.000000  0.049816
-------------------------------------------------------------------------------

  Mechanical properties :

-------------------------------------------------------------------------------
  Convention :                    Reuss         Voigt         Hill
-------------------------------------------------------------------------------
  Bulk  Modulus (GPa)     =      45.32174      45.32174      45.32174
  Shear Modulus (GPa)     =      24.72085      27.19304      25.95695
-------------------------------------------------------------------------------
  Velocity S-wave (km/s)  =       3.36511       3.52937       3.44822
  Velocity P-wave (km/s)  =       5.98827       6.11304       6.05098
-------------------------------------------------------------------------------
  Compressibility (1/GPa) =    0.02206447
-------------------------------------------------------------------------------
  Stress axis :                     x             y             z
-------------------------------------------------------------------------------
  Youngs Moduli (GPa)     =      88.86373      88.86373      88.86373
-------------------------------------------------------------------------------
  Poissons Ratio (x)      =                     0.17321       0.17321
  Poissons Ratio (y)      =       0.17321                     0.17321
  Poissons Ratio (z)      =       0.17321       0.17321
-------------------------------------------------------------------------------


  Piezoelectric Strain Matrix: (Units=C/m**2)

-------------------------------------------------------------------------------
  Indices      1         2         3         4         5         6    
-------------------------------------------------------------------------------
       x    -0.00000  -0.00000  -0.00000   0.00000  -0.00000  -0.00000
       y    -0.00000  -0.00000   0.00000  -0.00000   0.00000   0.00000
       z    -0.00000  -0.00000  -0.00000  -0.00000   0.00000   0.00000
-------------------------------------------------------------------------------


  Piezoelectric Stress Matrix: (Units=10**-11 C/N)

-------------------------------------------------------------------------------
  Indices      1         2         3         4         5         6    
-------------------------------------------------------------------------------
       x    -0.00000   0.00000   0.00000   0.00000  -0.00000  -0.00000
       y    -0.00000  -0.00000   0.00000  -0.00000   0.00000   0.00000
       z     0.00000   0.00000  -0.00000  -0.00000   0.00000   0.00000
-------------------------------------------------------------------------------


  Static dielectric constant tensor : 

-------------------------------------------------------------------------------
              x         y         z
-------------------------------------------------------------------------------
       x    22.84729   0.00000   0.00000
       y     0.00000  22.84729  -0.00000
       z     0.00000  -0.00000  22.84729
--------------------------------------------------------------------------------

  High frequency dielectric constant tensor : 

-------------------------------------------------------------------------------
              x         y         z
-------------------------------------------------------------------------------
       x     1.47557   0.00000  -0.00000
       y     0.00000   1.47557  -0.00000
       z    -0.00000  -0.00000   1.47557
-------------------------------------------------------------------------------

  Static refractive indices : 

-------------------------------------------------------------------------------
    1 =    4.77988      2 =    4.77988      3 =    4.77988
-------------------------------------------------------------------------------

  High frequency refractive indices : 

-------------------------------------------------------------------------------
    1 =    1.21473      2 =    1.21473      3 =    1.21473
-------------------------------------------------------------------------------


  Time to end of optimisation =       0.0325 seconds

********************************************************************************
*  Defect calculation for configuration   1 :                                  *
********************************************************************************

  Total number of defects =      3

  Total charge on defect  =  -1.00

  Defect centre is at   0.5000   0.4800   0.0200  Frac

  Region 1 radius =  12.0000      Number of ions =    540

  Number of symmetry inequivalent region 1 ions  =    314

  Region 2 radius =  16.0000      Number of ions =    773

  Number of symmetry inequivalent region 2a ions =    420

  Region 2a mode = 4 : screened electrostatics due to region 1 
                       neglect correction to region 1 forces from 2a
                       region 2a displacements based on defects only

  Region 2a ions will only interact with defects in region 1

  Vacancies:

--------------------------------------------------------------------------------
    Specification type     Symbol/Number         x          y          z
--------------------------------------------------------------------------------
    Fractional                               0.500000   0.500000   0.000000
    Fractional                               0.500000   0.000000   0.500000
--------------------------------------------------------------------------------

  Interstitials:

--------------------------------------------------------------------------------
    Specification type     Symbol/Number         x          y          z
--------------------------------------------------------------------------------
    Atom/Fractional         Na               0.500000   0.480000   0.020000
--------------------------------------------------------------------------------


  Symmetry reduced region 1 (Relative to defect centre) :

--------------------------------------------------------------------------------
   No.   Atomic       x            y             z       Radius  Multiplicity   
         Label      (Angs)       (Angs)        (Angs)    (Angs)     
--------------------------------------------------------------------------------
     1  Na    c      0.0000       0.0000       0.0000 *  0.0000     1    Defect
     2  O     c      0.0000       0.0902 *     2.1637 *  0.0000     1          
     3  O     c      0.0000       0.0902 *    -2.3440 *  0.0000     1          
     4  Na    c      2.2539 *     0.0902 *     2.1637 *  0.0000     2          
     5  Cl    c      2.2539 *    -2.1637 *    -0.0902 *  0.0000     2          
     6  Na    c      0.0000       2.3440 *     2.1637 *  0.0000     1          
     7  Na    c      0.0000      -2.1637 *    -2.3440 *  0.0000     1          
     8  Cl    c      2.2539 *     2.3440 *    -0.0902 *  0.0000     2          
     9  Na    c      2.2539 *     0.0902 *    -2.3440 *  0.0000     2          
    10  Na    c      0.0000       2.3440 *    -2.3440 *  0.0000     1          
    11  Na    c      0.0000       0.0902 *     4.4176 *  0.0000     1          
    12  Na    c      0.0000      -4.4176 *    -0.0902 *  0.0000     1          
    13  Na    c     -4.5078 *     0.0902 *    -0.0902 *  0.0000     2          
    14  Na    c      0.0000       4.5979 *    -0.0902 *  0.0000     1          
    15  Na    c      0.0000       0.0902 *    -4.5979 *  0.0000     1          
    16  O     c      0.0000      -4.4176 *     2.1637 *  0.0000     1          
    17  O     c     -4.5078 *     0.0902 *     2.1637 *  0.0000     2          
    18  O     c      0.0000      -4.4176 *    -2.3440 *  0.0000     1          
    19  O     c      0.0000       4.5979 *     2.1637 *  0.0000     1          
    20  O     c     -4.5078 *     0.0902 *    -2.3440 *  0.0000     2          
    21  O     c      0.0000       4.5979 *    -2.3440 *  0.0000     1          
    22  Cl    c      2.2539 *    -2.1637 *     4.4176 *  0.0000     2          
    23  Na    c      2.2539 *    -4.4176 *     2.1637 *  0.0000     2          
    24  Na    c     -4.5078 *    -2.1637 *     2.1637 *  0.0000     2          
    25  Cl    c      2.2539 *     2.3440 *     4.4176 *  0.0000     2          
    26  Na    c      2.2539 *    -4.4176 *    -2.3440 *  0.0000     2          
    27  Na    c     -4.5078 *     2.3440 *     2.1637 *  0.0000     2          
    28  Na    c     -4.5078 *    -2.1637 *    -2.3440 *  0.0000     2          
    29  Na    c      2.2539 *     4.5979 *     2.1637 *  0.0000     2          
    30  Cl    c      2.2539 *    -2.1637 *    -4.5979 *  0.0000     2          
    31  Na    c     -4.5078 *     2.3440 *    -2.3440 *  0.0000     2          
    32  Na    c      2.2539 *     4.5979 *    -2.3440 *  0.0000     2          
    33  Cl    c      2.2539 *     2.3440 *    -4.5979 *  0.0000     2          
    34  Na    c      0.0000      -4.4176 *     4.4176 *  0.0000     1          
    35  Na    c     -4.5078 *     0.0902 *     4.4176 *  0.0000     2          
    36  Na    c     -4.5078 *    -4.4176 *    -0.0902 *  0.0000     2          
    37  Na    c      0.0000       4.5979 *     4.4176 *  0.0000     1          
    38  Na    c      0.0000      -4.4176 *    -4.5979 *  0.0000     1          
    39  Na    c     -4.5078 *     4.5979 *    -0.0902 *  0.0000     2          
    40  Na    c     -4.5078 *     0.0902 *    -4.5979 *  0.0000     2          
    41  Na    c      0.0000       4.5979 *    -4.5979 *  0.0000     1          
    42  O     c      0.0000       0.0902 *     6.6715 *  0.0000     1          
    43  O     c     -4.5078 *    -4.4176 *     2.1637 *  0.0000     2          
    44  O     c     -4.5078 *    -4.4176 *    -2.3440 *  0.0000     2          
    45  O     c     -4.5078 *     4.5979 *     2.1637 *  0.0000     2          
    46  O     c     -4.5078 *     4.5979 *    -2.3440 *  0.0000     2          
    47  O     c      0.0000       0.0902 *    -6.8518 *  0.0000     1          
    48  Na    c      0.0000      -2.1637 *     6.6715 *  0.0000     1          
    49  Na    c      0.0000      -6.6715 *     2.1637 *  0.0000     1          
    50  Cl    c      2.2539 *    -6.6715 *    -0.0902 *  0.0000     2          
    51  Na    c      2.2539 *     0.0902 *     6.6715 *  0.0000     2          
    52  Na    c      0.0000       2.3440 *     6.6715 *  0.0000     1          
    53  Na    c      0.0000      -6.6715 *    -2.3440 *  0.0000     1          
    54  Na    c      6.7617 *     0.0902 *     2.1637 *  0.0000     2          
    55  Cl    c      6.7617 *    -2.1637 *    -0.0902 *  0.0000     2          
    56  Cl    c      6.7617 *     2.3440 *    -0.0902 *  0.0000     2          
    57  Na    c      6.7617 *     0.0902 *    -2.3440 *  0.0000     2          
    58  Na    c      0.0000       6.8518 *     2.1637 *  0.0000     1          
    59  Na    c      0.0000      -2.1637 *    -6.8518 *  0.0000     1          
    60  Cl    c      2.2539 *     6.8518 *    -0.0902 *  0.0000     2          
    61  Na    c      2.2539 *     0.0902 *    -6.8518 *  0.0000     2          
    62  Na    c      0.0000       6.8518 *    -2.3440 *  0.0000     1          
    63  Na    c      0.0000       2.3440 *    -6.8518 *  0.0000     1          
    64  Na    c     -4.5078 *    -4.4176 *     4.4176 *  0.0000     2          
    65  Na    c     -4.5078 *     4.5979 *     4.4176 *  0.0000     2          
    66  Na    c     -4.5078 *    -4.4176 *    -4.5979 *  0.0000     2          
    67  Na    c     -4.5078 *     4.5979 *    -4.5979 *  0.0000     2          
    68  O     c      0.0000      -4.4176 *     6.6715 *  0.0000     1          
    69  O     c      4.5078 *     0.0902 *     6.6715 *  0.0000     2          
    70  O     c      0.0000       4.5979 *     6.6715 *  0.0000     1          
    71  O     c      0.0000      -4.4176 *    -6.8518 *  0.0000     1          
    72  O     c      4.5078 *     0.0902 *    -6.8518 *  0.0000     2          
    73  O     c      0.0000       4.5979 *    -6.8518 *  0.0000     1          
    74  Cl    c      2.2539 *    -6.6715 *     4.4176 *  0.0000     2          
    75  Na    c      2.2539 *    -4.4176 *     6.6715 *  0.0000     2          
    76  Na    c      4.5078 *    -2.1637 *     6.6715 *  0.0000     2          
    77  Na    c      4.5078 *    -6.6715 *     2.1637 *  0.0000     2          
    78  Cl    c      6.7617 *    -2.1637 *     4.4176 *  0.0000     2          
    79  Na    c      6.7617 *    -4.4176 *     2.1637 *  0.0000     2          
    80  Na    c     -4.5078 *     2.3440 *     6.6715 *  0.0000     2          
    81  Na    c      4.5078 *    -6.6715 *    -2.3440 *  0.0000     2          
    82  Na    c      2.2539 *     4.5979 *     6.6715 *  0.0000     2          
    83  Cl    c      2.2539 *    -6.6715 *    -4.5979 *  0.0000     2          
    84  Cl    c      6.7617 *     2.3440 *     4.4176 *  0.0000     2          
    85  Na    c      6.7617 *    -4.4176 *    -2.3440 *  0.0000     2          
    86  Cl    c      2.2539 *     6.8518 *     4.4176 *  0.0000     2          
    87  Cl    c      6.7617 *    -2.1637 *    -4.5979 *  0.0000     2          
    88  Na    c      2.2539 *    -4.4176 *    -6.8518 *  0.0000     2          
    89  Na    c      6.7617 *     4.5979 *     2.1637 *  0.0000     2          
    90  Na    c      4.5078 *     6.8518 *     2.1637 *  0.0000     2          
    91  Na    c     -4.5078 *    -2.1637 *    -6.8518 *  0.0000     2          
    92  Cl    c      6.7617 *     2.3440 *    -4.5979 *  0.0000     2          
    93  Na    c      6.7617 *     4.5979 *    -2.3440 *  0.0000     2          
    94  Na    c      4.5078 *     6.8518 *    -2.3440 *  0.0000     2          
    95  Na    c     -4.5078 *     2.3440 *    -6.8518 *  0.0000     2          
    96  Cl    c      2.2539 *     6.8518 *    -4.5979 *  0.0000     2          
    97  Na    c      2.2539 *     4.5979 *    -6.8518 *  0.0000     2          
    98  Na    c      0.0000       0.0902 *     8.9254 *  0.0000     1          
    99  Na    c      0.0000      -8.9254 *    -0.0902 *  0.0000     1          
   100  Na    c      9.0156 *     0.0902 *    -0.0902 *  0.0000     2          
   101  Na    c      0.0000       9.1057 *    -0.0902 *  0.0000     1          
   102  Na    c      0.0000       0.0902 *    -9.1057 *  0.0000     1          
   103  O     c     -4.5078 *    -4.4176 *     6.6715 *  0.0000     2          
   104  O     c      0.0000      -8.9254 *     2.1637 *  0.0000     1          
   105  O     c      0.0000      -8.9254 *    -2.3440 *  0.0000     1          
   106  O     c      4.5078 *     4.5979 *     6.6715 *  0.0000     2          
   107  O     c      9.0156 *     0.0902 *     2.1637 *  0.0000     2          
   108  O     c      9.0156 *     0.0902 *    -2.3440 *  0.0000     2          
   109  O     c      4.5078 *    -4.4176 *    -6.8518 *  0.0000     2          
   110  O     c      0.0000       9.1057 *     2.1637 *  0.0000     1          
   111  O     c      0.0000       9.1057 *    -2.3440 *  0.0000     1          
   112  O     c     -4.5078 *     4.5979 *    -6.8518 *  0.0000     2          
   113  Na    c      0.0000      -6.6715 *     6.6715 *  0.0000     1          
   114  Cl    c      2.2539 *    -2.1637 *     8.9254 *  0.0000     2          
   115  Na    c      2.2539 *    -8.9254 *     2.1637 *  0.0000     2          
   116  Cl    c      2.2539 *     2.3440 *     8.9254 *  0.0000     2          
   117  Cl    c      6.7617 *    -6.6715 *    -0.0902 *  0.0000     2          
   118  Na    c      6.7617 *     0.0902 *     6.6715 *  0.0000     2          
   119  Na    c      2.2539 *    -8.9254 *    -2.3440 *  0.0000     2          
   120  Na    c      9.0156 *    -2.1637 *     2.1637 *  0.0000     2          
   121  Na    c      0.0000       6.8518 *     6.6715 *  0.0000     1          
   122  Na    c      0.0000      -6.6715 *    -6.8518 *  0.0000     1          
   123  Na    c      9.0156 *     2.3440 *     2.1637 *  0.0000     2          
   124  Na    c      9.0156 *    -2.1637 *    -2.3440 *  0.0000     2          
   125  Na    c      9.0156 *     2.3440 *    -2.3440 *  0.0000     2          
   126  Na    c      2.2539 *     9.1057 *     2.1637 *  0.0000     2          
   127  Cl    c      6.7617 *     6.8518 *    -0.0902 *  0.0000     2          
   128  Cl    c      2.2539 *    -2.1637 *    -9.1057 *  0.0000     2          
   129  Na    c      6.7617 *     0.0902 *    -6.8518 *  0.0000     2          
   130  Na    c      2.2539 *     9.1057 *    -2.3440 *  0.0000     2          
   131  Cl    c      2.2539 *     2.3440 *    -9.1057 *  0.0000     2          
   132  Na    c      0.0000       6.8518 *    -6.8518 *  0.0000     1          
   133  Na    c      0.0000      -4.4176 *     8.9254 *  0.0000     1          
   134  Na    c      0.0000      -8.9254 *     4.4176 *  0.0000     1          
   135  Na    c     -4.5078 *     0.0902 *     8.9254 *  0.0000     2          
   136  Na    c     -4.5078 *    -8.9254 *    -0.0902 *  0.0000     2          
   137  Na    c      0.0000       4.5979 *     8.9254 *  0.0000     1          
   138  Na    c      9.0156 *     0.0902 *     4.4176 *  0.0000     2          
   139  Na    c      9.0156 *    -4.4176 *    -0.0902 *  0.0000     2          
   140  Na    c      0.0000      -8.9254 *    -4.5979 *  0.0000     1          
   141  Na    c      0.0000       9.1057 *     4.4176 *  0.0000     1          
   142  Na    c      9.0156 *     0.0902 *    -4.5979 *  0.0000     2          
   143  Na    c      9.0156 *     4.5979 *    -0.0902 *  0.0000     2          
   144  Na    c      0.0000      -4.4176 *    -9.1057 *  0.0000     1          
   145  Na    c     -4.5078 *     9.1057 *    -0.0902 *  0.0000     2          
   146  Na    c     -4.5078 *     0.0902 *    -9.1057 *  0.0000     2          
   147  Na    c      0.0000       9.1057 *    -4.5979 *  0.0000     1          
   148  Na    c      0.0000       4.5979 *    -9.1057 *  0.0000     1          
   149  O     c     -4.5078 *    -8.9254 *     2.1637 *  0.0000     2          
   150  O     c      9.0156 *    -4.4176 *     2.1637 *  0.0000     2          
   151  O     c     -4.5078 *    -8.9254 *    -2.3440 *  0.0000     2          
   152  O     c      9.0156 *    -4.4176 *    -2.3440 *  0.0000     2          
   153  O     c      9.0156 *     4.5979 *     2.1637 *  0.0000     2          
   154  O     c     -4.5078 *     9.1057 *     2.1637 *  0.0000     2          
   155  O     c      9.0156 *     4.5979 *    -2.3440 *  0.0000     2          
   156  O     c     -4.5078 *     9.1057 *    -2.3440 *  0.0000     2          
   157  Na    c      4.5078 *    -6.6715 *     6.6715 *  0.0000     2          
   158  Cl    c      6.7617 *    -6.6715 *     4.4176 *  0.0000     2          
   159  Na    c      6.7617 *    -4.4176 *     6.6715 *  0.0000     2          
   160  Cl    c      6.7617 *    -6.6715 *    -4.5979 *  0.0000     2          
   161  Na    c      6.7617 *     4.5979 *     6.6715 *  0.0000     2          
   162  Na    c      4.5078 *     6.8518 *     6.6715 *  0.0000     2          
   163  Na    c      4.5078 *    -6.6715 *    -6.8518 *  0.0000     2          
   164  Cl    c      6.7617 *     6.8518 *     4.4176 *  0.0000     2          
   165  Na    c      6.7617 *    -4.4176 *    -6.8518 *  0.0000     2          
   166  Cl    c      6.7617 *     6.8518 *    -4.5979 *  0.0000     2          
   167  Na    c      6.7617 *     4.5979 *    -6.8518 *  0.0000     2          
   168  Na    c      4.5078 *     6.8518 *    -6.8518 *  0.0000     2          
   169  Na    c     -4.5078 *    -4.4176 *     8.9254 *  0.0000     2          
   170  Na    c     -4.5078 *    -8.9254 *     4.4176 *  0.0000     2          
   171  Na    c      9.0156 *    -4.4176 *     4.4176 *  0.0000     2          
   172  Na    c      4.5078 *     4.5979 *     8.9254 *  0.0000     2          
   173  Na    c     -4.5078 *    -8.9254 *    -4.5979 *  0.0000     2          
   174  Na    c      9.0156 *     4.5979 *     4.4176 *  0.0000     2          
   175  Na    c      9.0156 *    -4.4176 *    -4.5979 *  0.0000     2          
   176  Na    c     -4.5078 *     9.1057 *     4.4176 *  0.0000     2          
   177  Na    c     -4.5078 *    -4.4176 *    -9.1057 *  0.0000     2          
   178  Na    c      9.0156 *     4.5979 *    -4.5979 *  0.0000     2          
   179  O     c      0.0000      -8.9254 *     6.6715 *  0.0000     1          
   180  Na    c     -4.5078 *     9.1057 *    -4.5979 *  0.0000     2          
   181  Na    c      4.5078 *     4.5979 *    -9.1057 *  0.0000     2          
   182  O     c      0.0000       0.0902 *    11.1793 *  0.0000     1          
   183  O     c      9.0156 *     0.0902 *     6.6715 *  0.0000     2          
   184  O     c      0.0000      -8.9254 *    -6.8518 *  0.0000     1          
   185  O     c      0.0000       9.1057 *     6.6715 *  0.0000     1          
   186  O     c      9.0156 *     0.0902 *    -6.8518 *  0.0000     2          
   187  O     c      0.0000       0.0902 *   -11.3596 *  0.0000     1          
   188  Cl    c      2.2539 *    -6.6715 *     8.9254 *  0.0000     2          
   189  Na    c      2.2539 *    -8.9254 *     6.6715 *  0.0000     2          
   190  Na    c      0.0000      -2.1637 *    11.1793 *  0.0000     1          
   191  Na    c      0.0000     -11.1793 *     2.1637 *  0.0000     1          
   192  O     c      0.0000       9.1057 *    -6.8518 *  0.0000     1          
   193  Cl    c      2.2539 *   -11.1793 *    -0.0902 *  0.0000     2          
   194  Cl    c      6.7617 *    -2.1637 *     8.9254 *  0.0000     2          
   195  Na    c      2.2539 *     0.0902 *    11.1793 *  0.0000     2          
   196  Na    c      6.7617 *    -8.9254 *     2.1637 *  0.0000     2          
   197  Na    c      0.0000       2.3440 *    11.1793 *  0.0000     1          
   198  Na    c      0.0000     -11.1793 *    -2.3440 *  0.0000     1          
   199  Na    c      9.0156 *    -2.1637 *     6.6715 *  0.0000     2          
   200  Na    c      9.0156 *    -6.6715 *     2.1637 *  0.0000     2          
   201  Cl    c      6.7617 *     2.3440 *     8.9254 *  0.0000     2          
   202  Na    c      6.7617 *    -8.9254 *    -2.3440 *  0.0000     2          
   203  Na    c      9.0156 *    -6.6715 *    -2.3440 *  0.0000     2          
   204  Na    c      9.0156 *     2.3440 *     6.6715 *  0.0000     2          
   205  Na    c     11.2695 *     0.0902 *     2.1637 *  0.0000     2          
   206  Cl    c      2.2539 *     6.8518 *     8.9254 *  0.0000     2          
   207  Cl    c     11.2695 *    -2.1637 *    -0.0902 *  0.0000     2          
   208  Na    c      2.2539 *    -8.9254 *    -6.8518 *  0.0000     2          
   209  Cl    c     11.2695 *     2.3440 *    -0.0902 *  0.0000     2          
   210  Na    c      2.2539 *     9.1057 *     6.6715 *  0.0000     2          
   211  Na    c     11.2695 *     0.0902 *    -2.3440 *  0.0000     2          
   212  Cl    c      2.2539 *    -6.6715 *    -9.1057 *  0.0000     2          
   213  Na    c      9.0156 *     6.8518 *     2.1637 *  0.0000     2          
   214  Na    c      9.0156 *    -2.1637 *    -6.8518 *  0.0000     2          
   215  Cl    c      6.7617 *    -2.1637 *    -9.1057 *  0.0000     2          
   216  Na    c      6.7617 *     9.1057 *     2.1637 *  0.0000     2          
   217  Na    c      9.0156 *     6.8518 *    -2.3440 *  0.0000     2          
   218  Na    c      0.0000      11.3596 *     2.1637 *  0.0000     1          
   219  Na    c      0.0000      -2.1637 *   -11.3596 *  0.0000     1          
   220  Na    c      9.0156 *     2.3440 *    -6.8518 *  0.0000     2          
   221  Na    c      6.7617 *     9.1057 *    -2.3440 *  0.0000     2          
   222  Cl    c      2.2539 *    11.3596 *    -0.0902 *  0.0000     2          
   223  Cl    c      6.7617 *     2.3440 *    -9.1057 *  0.0000     2          
   224  Na    c      2.2539 *     0.0902 *   -11.3596 *  0.0000     2          
   225  Na    c      0.0000       2.3440 *   -11.3596 *  0.0000     1          
   226  Na    c      0.0000      11.3596 *    -2.3440 *  0.0000     1          
   227  Na    c      2.2539 *     9.1057 *    -6.8518 *  0.0000     2          
   228  Cl    c      2.2539 *     6.8518 *    -9.1057 *  0.0000     2          
   229  O     s      0.0000       0.0902 *     2.1637 *  0.0000     1          
   230  O     s      0.0000       0.0902 *    -2.3440 *  0.0000     1          
   231  Cl    s      2.2539 *    -2.1637 *    -0.0902 *  0.0000     2          
   232  Cl    s      2.2539 *     2.3440 *    -0.0902 *  0.0000     2          
   233  O     s      0.0000      -4.4176 *     2.1637 *  0.0000     1          
   234  O     s     -4.5078 *     0.0902 *     2.1637 *  0.0000     2          
   235  O     s      0.0000      -4.4176 *    -2.3440 *  0.0000     1          
   236  O     s      0.0000       4.5979 *     2.1637 *  0.0000     1          
   237  O     s     -4.5078 *     0.0902 *    -2.3440 *  0.0000     2          
   238  O     s      0.0000       4.5979 *    -2.3440 *  0.0000     1          
   239  Cl    s      2.2539 *    -2.1637 *     4.4176 *  0.0000     2          
   240  Cl    s      2.2539 *     2.3440 *     4.4176 *  0.0000     2          
   241  Cl    s      2.2539 *    -2.1637 *    -4.5979 *  0.0000     2          
   242  Cl    s      2.2539 *     2.3440 *    -4.5979 *  0.0000     2          
   243  O     s      0.0000       0.0902 *     6.6715 *  0.0000     1          
   244  O     s     -4.5078 *    -4.4176 *     2.1637 *  0.0000     2          
   245  O     s     -4.5078 *    -4.4176 *    -2.3440 *  0.0000     2          
   246  O     s     -4.5078 *     4.5979 *     2.1637 *  0.0000     2          
   247  O     s     -4.5078 *     4.5979 *    -2.3440 *  0.0000     2          
   248  O     s      0.0000       0.0902 *    -6.8518 *  0.0000     1          
   249  Cl    s      2.2539 *    -6.6715 *    -0.0902 *  0.0000     2          
   250  Cl    s      6.7617 *    -2.1637 *    -0.0902 *  0.0000     2          
   251  Cl    s      6.7617 *     2.3440 *    -0.0902 *  0.0000     2          
   252  Cl    s      2.2539 *     6.8518 *    -0.0902 *  0.0000     2          
   253  O     s      0.0000      -4.4176 *     6.6715 *  0.0000     1          
   254  O     s      4.5078 *     0.0902 *     6.6715 *  0.0000     2          
   255  O     s      0.0000       4.5979 *     6.6715 *  0.0000     1          
   256  O     s      0.0000      -4.4176 *    -6.8518 *  0.0000     1          
   257  O     s      4.5078 *     0.0902 *    -6.8518 *  0.0000     2          
   258  O     s      0.0000       4.5979 *    -6.8518 *  0.0000     1          
   259  Cl    s      2.2539 *    -6.6715 *     4.4176 *  0.0000     2          
   260  Cl    s      6.7617 *    -2.1637 *     4.4176 *  0.0000     2          
   261  Cl    s      2.2539 *    -6.6715 *    -4.5979 *  0.0000     2          
   262  Cl    s      6.7617 *     2.3440 *     4.4176 *  0.0000     2          
   263  Cl    s      2.2539 *     6.8518 *     4.4176 *  0.0000     2          
   264  Cl    s      6.7617 *    -2.1637 *    -4.5979 *  0.0000     2          
   265  Cl    s      6.7617 *     2.3440 *    -4.5979 *  0.0000     2          
   266  Cl    s      2.2539 *     6.8518 *    -4.5979 *  0.0000     2          
   267  O     s     -4.5078 *    -4.4176 *     6.6715 *  0.0000     2          
   268  O     s      0.0000      -8.9254 *     2.1637 *  0.0000     1          
   269  O     s      0.0000      -8.9254 *    -2.3440 *  0.0000     1          
   270  O     s      4.5078 *     4.5979 *     6.6715 *  0.0000     2          
   271  O     s      9.0156 *     0.0902 *     2.1637 *  0.0000     2          
   272  O     s      9.0156 *     0.0902 *    -2.3440 *  0.0000     2          
   273  O     s      4.5078 *    -4.4176 *    -6.8518 *  0.0000     2          
   274  O     s      0.0000       9.1057 *     2.1637 *  0.0000     1          
   275  O     s      0.0000       9.1057 *    -2.3440 *  0.0000     1          
   276  O     s     -4.5078 *     4.5979 *    -6.8518 *  0.0000     2          
   277  Cl    s      2.2539 *    -2.1637 *     8.9254 *  0.0000     2          
   278  Cl    s      2.2539 *     2.3440 *     8.9254 *  0.0000     2          
   279  Cl    s      6.7617 *    -6.6715 *    -0.0902 *  0.0000     2          
   280  Cl    s      6.7617 *     6.8518 *    -0.0902 *  0.0000     2          
   281  Cl    s      2.2539 *    -2.1637 *    -9.1057 *  0.0000     2          
   282  Cl    s      2.2539 *     2.3440 *    -9.1057 *  0.0000     2          
   283  O     s     -4.5078 *    -8.9254 *     2.1637 *  0.0000     2          
   284  O     s      9.0156 *    -4.4176 *     2.1637 *  0.0000     2          
   285  O     s     -4.5078 *    -8.9254 *    -2.3440 *  0.0000     2          
   286  O     s      9.0156 *    -4.4176 *    -2.3440 *  0.0000     2          
   287  O     s      9.0156 *     4.5979 *     2.1637 *  0.0000     2          
   288  O     s     -4.5078 *     9.1057 *     2.1637 *  0.0000     2          
   289  O     s      9.0156 *     4.5979 *    -2.3440 *  0.0000     2          
   290  O     s     -4.5078 *     9.1057 *    -2.3440 *  0.0000     2          
   291  Cl    s      6.7617 *    -6.6715 *     4.4176 *  0.0000     2          
   292  Cl    s      6.7617 *    -6.6715 *    -4.5979 *  0.0000     2          
   293  Cl    s      6.7617 *     6.8518 *     4.4176 *  0.0000     2          
   294  Cl    s      6.7617 *     6.8518 *    -4.5979 *  0.0000     2          
   295  O     s      0.0000      -8.9254 *     6.6715 *  0.0000     1          
   296  O     s      0.0000       0.0902 *    11.1793 *  0.0000     1          
   297  O     s      9.0156 *     0.0902 *     6.6715 *  0.0000     2          
   298  O     s      0.0000      -8.9254 *    -6.8518 *  0.0000     1          
   299  O     s      0.0000       9.1057 *     6.6715 *  0.0000     1          
   300  O     s      9.0156 *     0.0902 *    -6.8518 *  0.0000     2          
   301  O     s      0.0000       0.0902 *   -11.3596 *  0.0000     1          
   302  Cl    s      2.2539 *    -6.6715 *     8.9254 *  0.0000     2          
   303  O     s      0.0000       9.1057 *    -6.8518 *  0.0000     1          
   304  Cl    s      2.2539 *   -11.1793 *    -0.0902 *  0.0000     2          
   305  Cl    s      6.7617 *    -2.1637 *     8.9254 *  0.0000     2          
   306  Cl    s      6.7617 *     2.3440 *     8.9254 *  0.0000     2          
   307  Cl    s      2.2539 *     6.8518 *     8.9254 *  0.0000     2          
   308  Cl    s     11.2695 *    -2.1637 *    -0.0902 *  0.0000     2          
   309  Cl    s     11.2695 *     2.3440 *    -0.0902 *  0.0000     2          
   310  Cl    s      2.2539 *    -6.6715 *    -9.1057 *  0.0000     2          
   311  Cl    s      6.7617 *    -2.1637 *    -9.1057 *  0.0000     2          
   312  Cl    s      2.2539 *    11.3596 *    -0.0902 *  0.0000     2          
   313  Cl    s      6.7617 *     2.3440 *    -9.1057 *  0.0000     2          
   314  Cl    s      2.2539 *     6.8518 *    -9.1057 *  0.0000     2          
--------------------------------------------------------------------------------

  Components of defect energy : 

--------------------------------------------------------------------------------
  Region 1 - region 1                   =    -17.56794686 eV
  Region 1 - region 2a (unrelaxed)      =     25.99282173 eV
  Region 1 - 2a (relaxed - correction)  =     -0.31597748 eV
  Region 1 (Total)                      =      8.10889738 eV
  Region 2a                             =      0.15788221 eV
  Region 2b                             =     -0.43908503 eV
--------------------------------------------------------------------------------
  Total defect energy                   =      7.82769456 eV
--------------------------------------------------------------------------------

  Largest displacement in region 2 =   0.0328 Angstroms


  Number of variables =      853

  Maximum number of calculations  =        1000
  Maximum Hessian update interval =          10
  Maximum step size               =   1.0000000
  Maximum parameter tolerance     =   0.0000100
  Maximum function  tolerance     =   0.0000100
  Maximum gradient  tolerance     =   0.0010000

  Symmetry adapted optimisation

  Symmetry to be used for second derivatives

  Newton-Raphson optimiser to be used

  BFGS hessian update to be used

  Lower half triangular hessian to be used

  Start of defect optimisation :

  Cycle:      0 Defect Energy:   7.827695  Gnorm:     0.019780  CPU:    2.890
  ** Hessian calculated **
  Cycle:      1 Defect Energy:   6.061383  Gnorm:     0.007709  CPU:    7.273
  Cycle:      2 Defect Energy:   5.463324  Gnorm:     0.006070  CPU:   11.119
  Cycle:      3 Defect Energy:   5.326059  Gnorm:     0.003327  CPU:   14.091
  Cycle:      4 Defect Energy:   5.276532  Gnorm:     0.003173  CPU:   14.934
  Cycle:      5 Defect Energy:   5.209670  Gnorm:     0.002718  CPU:   15.822
  Cycle:      6 Defect Energy:   5.121452  Gnorm:     0.002201  CPU:   16.633
  Cycle:      7 Defect Energy:   5.026851  Gnorm:     0.002077  CPU:   17.438
  Cycle:      8 Defect Energy:   4.962361  Gnorm:     0.001738  CPU:   18.218
  Cycle:      9 Defect Energy:   4.912442  Gnorm:     0.001813  CPU:   19.082
  Cycle:     10 Defect Energy:   4.864662  Gnorm:     0.001859  CPU:   19.758
  ** Hessian calculated **
  Cycle:     11 Defect Energy:   4.840070  Gnorm:     0.001785  CPU:   24.500
  Cycle:     12 Defect Energy:   4.833595  Gnorm:     0.001737  CPU:   25.145
  ** Hessian calculated **
  Cycle:     13 Defect Energy:   4.728041  Gnorm:     0.001355  CPU:   27.318
  Cycle:     14 Defect Energy:   4.746624  Gnorm:     0.001550  CPU:   28.298
  ** Hessian calculated **
  Cycle:     15 Defect Energy:   4.708675  Gnorm:     0.001611  CPU:   30.966
  ** Hessian calculated **
  Cycle:     16 Defect Energy:   4.626179  Gnorm:     0.001138  CPU:   33.502
  Cycle:     17 Defect Energy:   4.583132  Gnorm:     0.000810  CPU:   34.533
  Cycle:     18 Defect Energy:   4.559396  Gnorm:     0.000573  CPU:   35.433
  Cycle:     19 Defect Energy:   4.546084  Gnorm:     0.000403  CPU:   36.328
  Cycle:     20 Defect Energy:   4.538358  Gnorm:     0.000283  CPU:   37.219
  Cycle:     21 Defect Energy:   4.533704  Gnorm:     0.000197  CPU:   38.116
  Cycle:     22 Defect Energy:   4.530790  Gnorm:     0.000137  CPU:   39.097
  Cycle:     23 Defect Energy:   4.528899  Gnorm:     0.000094  CPU:   40.002
  Cycle:     24 Defect Energy:   4.527639  Gnorm:     0.000066  CPU:   40.881
  Cycle:     25 Defect Energy:   4.526754  Gnorm:     0.000044  CPU:   41.780
  ** Hessian calculated **
  Cycle:     26 Defect Energy:   4.525982  Gnorm:     0.000033  CPU:   44.165
  Cycle:     27 Defect Energy:   4.525462  Gnorm:     0.000029  CPU:   44.971
  Cycle:     28 Defect Energy:   4.524921  Gnorm:     0.000035  CPU:   45.804
  Cycle:     29 Defect Energy:   4.524179  Gnorm:     0.000075  CPU:   46.657
  Cycle:     30 Defect Energy:   4.523512  Gnorm:     0.000210  CPU:   47.514
  Cycle:     31 Defect Energy:   4.523142  Gnorm:     0.000189  CPU:   48.435
  Cycle:     32 Defect Energy:   4.522682  Gnorm:     0.000183  CPU:   49.238
  Cycle:     33 Defect Energy:   4.521979  Gnorm:     0.000179  CPU:   50.010
  Cycle:     34 Defect Energy:   4.520996  Gnorm:     0.000195  CPU:   50.842
  Cycle:     35 Defect Energy:   4.519357  Gnorm:     0.000225  CPU:   51.642
  ** Hessian calculated **
  Cycle:     36 Defect Energy:   4.518878  Gnorm:     0.000124  CPU:   53.524
  Cycle:     37 Defect Energy:   4.518411  Gnorm:     0.000095  CPU:   57.045
  Cycle:     38 Defect Energy:   4.517855  Gnorm:     0.000086  CPU:   58.442
  Cycle:     39 Defect Energy:   4.517103  Gnorm:     0.000097  CPU:   59.456
  Cycle:     40 Defect Energy:   4.516130  Gnorm:     0.000120  CPU:   60.462
  Cycle:     41 Defect Energy:   4.514810  Gnorm:     0.000167  CPU:   61.457
  Cycle:     42 Defect Energy:   4.513058  Gnorm:     0.000220  CPU:   62.534
  Cycle:     43 Defect Energy:   4.510682  Gnorm:     0.000288  CPU:   63.525
  Cycle:     44 Defect Energy:   4.507682  Gnorm:     0.000387  CPU:   64.464
  Cycle:     45 Defect Energy:   4.505890  Gnorm:     0.000426  CPU:   65.414
  ** Hessian calculated **
  Cycle:     46 Defect Energy:   4.504624  Gnorm:     0.000376  CPU:   67.994
  Cycle:     47 Defect Energy:   4.503030  Gnorm:     0.000358  CPU:   68.882
  Cycle:     48 Defect Energy:   4.501000  Gnorm:     0.000336  CPU:   69.790
  Cycle:     49 Defect Energy:   4.498458  Gnorm:     0.000330  CPU:   70.726
  Cycle:     50 Defect Energy:   4.495990  Gnorm:     0.000315  CPU:   71.691
  Cycle:     51 Defect Energy:   4.494064  Gnorm:     0.000319  CPU:   72.588
  Cycle:     52 Defect Energy:   4.492434  Gnorm:     0.000326  CPU:   73.441
  Cycle:     53 Defect Energy:   4.490221  Gnorm:     0.000342  CPU:   74.325
  Cycle:     54 Defect Energy:   4.487528  Gnorm:     0.000376  CPU:   75.202
  Cycle:     55 Defect Energy:   4.483754  Gnorm:     0.000401  CPU:   76.142
  ** Hessian calculated **
  Cycle:     56 Defect Energy:   4.482418  Gnorm:     0.000375  CPU:   78.396
  Cycle:     57 Defect Energy:   4.480580  Gnorm:     0.000370  CPU:   79.217
  Cycle:     58 Defect Energy:   4.478289  Gnorm:     0.000367  CPU:   80.051
  Cycle:     59 Defect Energy:   4.475076  Gnorm:     0.000370  CPU:   80.966
  Cycle:     60 Defect Energy:   4.471467  Gnorm:     0.000391  CPU:   81.771
  Cycle:     61 Defect Energy:   4.468297  Gnorm:     0.000413  CPU:   82.584
  Cycle:     62 Defect Energy:   4.465096  Gnorm:     0.000454  CPU:   83.386
  Cycle:     63 Defect Energy:   4.460804  Gnorm:     0.000501  CPU:   84.186
  Cycle:     64 Defect Energy:   4.454996  Gnorm:     0.000578  CPU:   85.011
  Cycle:     65 Defect Energy:   4.446712  Gnorm:     0.000679  CPU:   86.013
  ** Hessian calculated **
  Cycle:     66 Defect Energy:   4.442538  Gnorm:     0.000634  CPU:   91.173
  Cycle:     67 Defect Energy:   4.437054  Gnorm:     0.000621  CPU:   92.190
  Cycle:     68 Defect Energy:   4.429536  Gnorm:     0.000591  CPU:   93.210
  Cycle:     69 Defect Energy:   4.420181  Gnorm:     0.000579  CPU:   94.204
  Cycle:     70 Defect Energy:   4.409772  Gnorm:     0.000574  CPU:   95.259
  Cycle:     71 Defect Energy:   4.402228  Gnorm:     0.000593  CPU:   96.244
  Cycle:     72 Defect Energy:   4.395161  Gnorm:     0.000627  CPU:   97.170
  Cycle:     73 Defect Energy:   4.387154  Gnorm:     0.000691  CPU:   98.101
  Cycle:     74 Defect Energy:   4.377359  Gnorm:     0.000777  CPU:   99.017
  Cycle:     75 Defect Energy:   4.367406  Gnorm:     0.000848  CPU:  100.026
  ** Hessian calculated **
  Cycle:     76 Defect Energy:   4.362445  Gnorm:     0.000820  CPU:  102.422
  Cycle:     77 Defect Energy:   4.355933  Gnorm:     0.000819  CPU:  103.324
  Cycle:     78 Defect Energy:   4.347041  Gnorm:     0.000801  CPU:  104.255
  Cycle:     79 Defect Energy:   4.336462  Gnorm:     0.000801  CPU:  105.225
  Cycle:     80 Defect Energy:   4.328585  Gnorm:     0.000804  CPU:  106.082
  Cycle:     81 Defect Energy:   4.322846  Gnorm:     0.000826  CPU:  106.965
  Cycle:     82 Defect Energy:   4.317207  Gnorm:     0.000849  CPU:  107.821
  Cycle:     83 Defect Energy:   4.312100  Gnorm:     0.000867  CPU:  108.709
  Cycle:     84 Defect Energy:   4.306496  Gnorm:     0.000895  CPU:  109.657
  Cycle:     85 Defect Energy:   4.300351  Gnorm:     0.000924  CPU:  110.502
  ** Hessian calculated **
  Cycle:     86 Defect Energy:   4.274450  Gnorm:     0.000831  CPU:  112.652
  Cycle:     87 Defect Energy:   4.240276  Gnorm:     0.000674  CPU:  113.216
  Cycle:     88 Defect Energy:   4.213651  Gnorm:     0.000455  CPU:  113.836
  Cycle:     89 Defect Energy:   4.203726  Gnorm:     0.000314  CPU:  114.345
  Cycle:     90 Defect Energy:   4.199440  Gnorm:     0.000220  CPU:  114.899
  Cycle:     91 Defect Energy:   4.197434  Gnorm:     0.000152  CPU:  115.392
  Cycle:     92 Defect Energy:   4.196445  Gnorm:     0.000105  CPU:  115.868
  Cycle:     93 Defect Energy:   4.195990  Gnorm:     0.000070  CPU:  116.392
  Cycle:     94 Defect Energy:   4.195787  Gnorm:     0.000056  CPU:  116.905
  Cycle:     95 Defect Energy:   4.195613  Gnorm:     0.000037  CPU:  117.467
  ** Hessian calculated **
  Cycle:     96 Defect Energy:   4.195589  Gnorm:     0.000026  CPU:  118.910


  **** Optimisation achieved ****


  Final defect energy  =        4.19558234
  Final defect Gnorm   =        0.00001805

  Components of defect energy : 

--------------------------------------------------------------------------------
  Region 1 - region 1                   =    -18.30806160 eV
  Region 1 - region 2a (unrelaxed)      =     23.04607035 eV
  Region 1 - 2a (relaxed - correction)  =     -0.22340355 eV
  Region 1 (Total)                      =      4.51460520 eV
  Region 2a                             =      0.11154316 eV
  Region 2b                             =     -0.43056602 eV
--------------------------------------------------------------------------------
  Total defect energy                   =      4.19558234 eV
--------------------------------------------------------------------------------

  Largest displacement in region 2 =   0.0328 Angstroms

  Final coordinates of region 1 :

--------------------------------------------------------------------------------
   No.  Atomic        x           y           z          Radius      Charge
        Label       (Angs)      (Angs)      (Angs)       (Angs)       (e) 
--------------------------------------------------------------------------------
     1  Na    c     2.253894    2.163738    0.059564    0.000000    1.000000
     2  O     c     2.253894    2.360713    2.263283    0.000000    0.183000
     3  O     c     2.253894    2.290745   -2.238407    0.000000    0.183000
     4  Na    c     4.418820    1.846733    2.222739    0.000000    1.000000
     5  Na    c     0.088967    1.846733    2.222739    0.000000    1.000000
     6  Cl    c     4.610443    0.021261   -0.157802    0.000000    1.485000
     7  Cl    c    -0.102656    0.021261   -0.157802    0.000000    1.485000
     8  Na    c     2.253894    4.540273    2.353629    0.000000    1.000000
     9  Na    c     2.253894    0.030924   -2.547974    0.000000    1.000000
    10  Cl    c     4.510293    4.633441   -0.115945    0.000000    1.485000
    11  Cl    c    -0.002506    4.633441   -0.115945    0.000000    1.485000
    12  Na    c     4.510603    2.284699   -2.194584    0.000000    1.000000
    13  Na    c    -0.002816    2.284699   -2.194584    0.000000    1.000000
    14  Na    c     2.253894    4.523067   -1.923753    0.000000    1.000000
    15  Na    c     2.253894    1.818025    4.423879    0.000000    1.000000
    16  Na    c     2.253894   -1.660230    0.094446    0.000000    1.000000
    17  Na    c    -2.284855    1.877322    0.001350    0.000000    1.000000
    18  Na    c     6.792642    1.877322    0.001350    0.000000    1.000000
    19  Na    c     2.253894    6.892905    0.000630    0.000000    1.000000
    20  Na    c     2.253894    2.620106   -4.491740    0.000000    1.000000
    21  O     c     2.253894   -2.316618    2.226236    0.000000    0.183000
    22  O     c    -2.208970    2.230068    2.251303    0.000000    0.183000
    23  O     c     6.716758    2.230068    2.251303    0.000000    0.183000
    24  O     c     2.253894   -2.223854   -2.183693    0.000000    0.183000
    25  O     c     2.253894    6.814684    2.273808    0.000000    0.183000
    26  O     c    -2.262206    2.262833   -2.256662    0.000000    0.183000
    27  O     c     6.769994    2.262833   -2.256662    0.000000    0.183000
    28  O     c     2.253894    6.753093   -2.281548    0.000000    0.183000
    29  Cl    c     4.650562   -0.002865    4.597831    0.000000    1.485000
    30  Cl    c    -0.142774   -0.002865    4.597831    0.000000    1.485000
    31  Na    c     4.438587   -1.909051    2.217694    0.000000    1.000000
    32  Na    c     0.069200   -1.909051    2.217694    0.000000    1.000000
    33  Na    c    -2.454604    0.009863    2.656488    0.000000    1.000000
    34  Na    c     6.962391    0.009863    2.656488    0.000000    1.000000
    35  Cl    c     4.583137    4.653813    4.584192    0.000000    1.485000
    36  Cl    c    -0.075350    4.653813    4.584192    0.000000    1.485000
    37  Na    c     4.506630   -2.279861   -2.098538    0.000000    1.000000
    38  Na    c     0.001157   -2.279861   -2.098538    0.000000    1.000000
    39  Na    c    -1.974838    4.474322    1.927511    0.000000    1.000000
    40  Na    c     6.482626    4.474322    1.927511    0.000000    1.000000
    41  Na    c    -2.139752    0.009344   -2.589223    0.000000    1.000000
    42  Na    c     6.647540    0.009344   -2.589223    0.000000    1.000000
    43  Na    c     4.502918    6.822160    2.352397    0.000000    1.000000
    44  Na    c     0.004869    6.822160    2.352397    0.000000    1.000000
    45  Cl    c     4.510049    0.029183   -4.548912    0.000000    1.485000
    46  Cl    c    -0.002262    0.029183   -4.548912    0.000000    1.485000
    47  Na    c    -2.286322    4.506797   -1.878451    0.000000    1.000000
    48  Na    c     6.794110    4.506797   -1.878451    0.000000    1.000000
    49  Na    c     4.515380    6.682151   -2.317719    0.000000    1.000000
    50  Na    c    -0.007593    6.682151   -2.317719    0.000000    1.000000
    51  Cl    c     4.517954    4.540200   -4.545549    0.000000    1.485000
    52  Cl    c    -0.010167    4.540200   -4.545549    0.000000    1.485000
    53  Na    c     2.253894   -1.935869    4.425966    0.000000    1.000000
    54  Na    c    -2.118285    2.591358    4.491488    0.000000    1.000000
    55  Na    c     6.626073    2.591358    4.491488    0.000000    1.000000
    56  Na    c    -2.318536   -1.898541    0.008555    0.000000    1.000000
    57  Na    c     6.826323   -1.898541    0.008555    0.000000    1.000000
    58  Na    c     2.253894    6.929042    4.512188    0.000000    1.000000
    59  Na    c     2.253894   -2.592585   -4.441466    0.000000    1.000000
    60  Na    c    -2.105008    7.086419   -0.003798    0.000000    1.000000
    61  Na    c     6.612795    7.086419   -0.003798    0.000000    1.000000
    62  Na    c    -2.235572    2.615241   -4.495194    0.000000    1.000000
    63  Na    c     6.743360    2.615241   -4.495194    0.000000    1.000000
    64  Na    c     2.253894    6.432332   -4.514444    0.000000    1.000000
    65  O     c     2.253894    2.216374    6.722936    0.000000    0.183000
    66  O     c    -2.224652   -2.213487    2.259746    0.000000    0.183000
    67  O     c     6.732439   -2.213487    2.259746    0.000000    0.183000
    68  O     c    -2.259028   -2.240619   -2.251486    0.000000    0.183000
    69  O     c     6.766816   -2.240619   -2.251486    0.000000    0.183000
    70  O     c    -2.242482    6.737600    2.234301    0.000000    0.183000
    71  O     c     6.750269    6.737600    2.234301    0.000000    0.183000
    72  O     c    -2.268059    6.763017   -2.250179    0.000000    0.183000
    73  O     c     6.775847    6.763017   -2.250179    0.000000    0.183000
    74  O     c     2.253894    2.247417   -6.742616    0.000000    0.183000
    75  Na    c     2.253894    0.005182    7.116560    0.000000    1.000000
    76  Na    c     2.253894   -4.494480    2.082128    0.000000    1.000000
    77  Cl    c     4.582248   -4.641956   -0.081211    0.000000    1.485000
    78  Cl    c    -0.074461   -4.641956   -0.081211    0.000000    1.485000
    79  Na    c     4.507376    2.122649    6.734845    0.000000    1.000000
    80  Na    c     0.000411    2.122649    6.734845    0.000000    1.000000
    81  Na    c     2.253894    4.473839    6.419832    0.000000    1.000000
    82  Na    c     2.253894   -4.469073   -1.793728    0.000000    1.000000
    83  Na    c     8.983241    2.449629    2.273491    0.000000    1.000000
    84  Na    c    -4.475454    2.449629    2.273491    0.000000    1.000000
    85  Cl    c     9.036901    0.008510   -0.033052    0.000000    1.485000
    86  Cl    c    -4.529114    0.008510   -0.033052    0.000000    1.485000
    87  Cl    c     9.021970    4.513865    0.007003    0.000000    1.485000
    88  Cl    c    -4.514183    4.513865    0.007003    0.000000    1.485000
    89  Na    c     9.017476    2.162410   -2.268391    0.000000    1.000000
    90  Na    c    -4.509689    2.162410   -2.268391    0.000000    1.000000
    91  Na    c     2.253894    9.048691    2.254669    0.000000    1.000000
    92  Na    c     2.253894    0.005480   -6.381763    0.000000    1.000000
    93  Cl    c     4.478662    9.072934    0.027001    0.000000    1.485000
    94  Cl    c     0.029126    9.072934    0.027001    0.000000    1.485000
    95  Na    c     4.510438    2.152368   -6.713928    0.000000    1.000000
    96  Na    c    -0.002651    2.152368   -6.713928    0.000000    1.000000
    97  Na    c     2.253894    8.998403   -2.459557    0.000000    1.000000
    98  Na    c     2.253894    4.496806   -7.086224    0.000000    1.000000
    99  Na    c    -2.114588   -2.554629    4.491820    0.000000    1.000000
   100  Na    c     6.622375   -2.554629    4.491820    0.000000    1.000000
   101  Na    c    -2.340462    6.465819    4.502890    0.000000    1.000000
   102  Na    c     6.848249    6.465819    4.502890    0.000000    1.000000
   103  Na    c    -2.189056   -2.590152   -4.480050    0.000000    1.000000
   104  Na    c     6.696843   -2.590152   -4.480050    0.000000    1.000000
   105  Na    c    -2.362388    6.453683   -4.502440    0.000000    1.000000
   106  Na    c     6.870175    6.453683   -4.502440    0.000000    1.000000
   107  O     c     2.253894   -2.208976    6.746147    0.000000    0.183000
   108  O     c     6.763375    2.276374    6.743908    0.000000    0.183000
   109  O     c    -2.255588    2.276374    6.743908    0.000000    0.183000
   110  O     c     2.253894    6.754773    6.742002    0.000000    0.183000
   111  O     c     2.253894   -2.233446   -6.718734    0.000000    0.183000
   112  O     c     6.767439    2.266652   -6.745639    0.000000    0.183000
   113  O     c    -2.259652    2.266652   -6.745639    0.000000    0.183000
   114  O     c     2.253894    6.757164   -6.752806    0.000000    0.183000
   115  Cl    c     4.583641   -4.626187    4.609026    0.000000    1.485000
   116  Cl    c    -0.075854   -4.626187    4.609026    0.000000    1.485000
   117  Na    c     4.508310   -2.129203    6.741701    0.000000    1.000000
   118  Na    c    -0.000522   -2.129203    6.741701    0.000000    1.000000
   119  Na    c     6.888202    0.004482    6.507019    0.000000    1.000000
   120  Na    c    -2.380415    0.004482    6.507019    0.000000    1.000000
   121  Na    c     6.580242   -4.471283    1.991564    0.000000    1.000000
   122  Na    c    -2.072455   -4.471283    1.991564    0.000000    1.000000
   123  Cl    c     9.103285   -0.024756    4.541398    0.000000    1.485000
   124  Cl    c    -4.595498   -0.024756    4.541398    0.000000    1.485000
   125  Na    c     8.994742   -2.404761    2.318361    0.000000    1.000000
   126  Na    c    -4.486955   -2.404761    2.318361    0.000000    1.000000
   127  Na    c    -2.092680    4.509246    7.020883    0.000000    1.000000
   128  Na    c     6.600468    4.509246    7.020883    0.000000    1.000000
   129  Na    c     6.845349   -4.491475   -1.951642    0.000000    1.000000
   130  Na    c    -2.337562   -4.491475   -1.951642    0.000000    1.000000
   131  Na    c     4.513627    6.776814    6.668167    0.000000    1.000000
   132  Na    c    -0.005840    6.776814    6.668167    0.000000    1.000000
   133  Cl    c     4.514319   -4.527209   -4.576787    0.000000    1.485000
   134  Cl    c    -0.006532   -4.527209   -4.576787    0.000000    1.485000
   135  Cl    c     9.069188    4.509325    4.512888    0.000000    1.485000
   136  Cl    c    -4.561401    4.509325    4.512888    0.000000    1.485000
   137  Na    c     9.017838   -2.118018   -2.306034    0.000000    1.000000
   138  Na    c    -4.510051   -2.118018   -2.306034    0.000000    1.000000
   139  Cl    c     4.497772    9.043346    4.506685    0.000000    1.485000
   140  Cl    c     0.010015    9.043346    4.506685    0.000000    1.485000
   141  Cl    c     9.066080   -0.009916   -4.515664    0.000000    1.485000
   142  Cl    c    -4.558293   -0.009916   -4.515664    0.000000    1.485000
   143  Na    c     4.506477   -2.138956   -6.718283    0.000000    1.000000
   144  Na    c     0.001310   -2.138956   -6.718283    0.000000    1.000000
   145  Na    c     8.998546    6.562740    2.107538    0.000000    1.000000
   146  Na    c    -4.490759    6.562740    2.107538    0.000000    1.000000
   147  Na    c     6.847119    8.989623    2.507025    0.000000    1.000000
   148  Na    c    -2.339331    8.989623    2.507025    0.000000    1.000000
   149  Na    c    -2.377030    0.004679   -6.466013    0.000000    1.000000
   150  Na    c     6.884817    0.004679   -6.466013    0.000000    1.000000
   151  Cl    c     9.059450    4.514961   -4.556665    0.000000    1.485000
   152  Cl    c    -4.551663    4.514961   -4.556665    0.000000    1.485000
   153  Na    c     9.018041    6.767113   -2.094672    0.000000    1.000000
   154  Na    c    -4.510254    6.767113   -2.094672    0.000000    1.000000
   155  Na    c     6.768389    9.002634   -2.545858    0.000000    1.000000
   156  Na    c    -2.260602    9.002634   -2.545858    0.000000    1.000000
   157  Na    c    -2.119497    4.502027   -7.064299    0.000000    1.000000
   158  Na    c     6.627285    4.502027   -7.064299    0.000000    1.000000
   159  Cl    c     4.528854    9.066057   -4.550847    0.000000    1.485000
   160  Cl    c    -0.021067    9.066057   -4.550847    0.000000    1.485000
   161  Na    c     4.510568    6.802239   -6.657996    0.000000    1.000000
   162  Na    c    -0.002781    6.802239   -6.657996    0.000000    1.000000
   163  Na    c     2.253894    2.544224    8.982782    0.000000    1.000000
   164  Na    c     2.253894   -6.967589    0.000275    0.000000    1.000000
   165  Na    c    11.222704    2.607201    0.002718    0.000000    1.000000
   166  Na    c    -6.714917    2.607201    0.002718    0.000000    1.000000
   167  Na    c     2.253894   11.169049   -0.008629    0.000000    1.000000
   168  Na    c     2.253894    1.994631   -8.994692    0.000000    1.000000
   169  O     c    -2.255828   -2.266749    6.736756    0.000000    0.183000
   170  O     c     6.763615   -2.266749    6.736756    0.000000    0.183000
   171  O     c     2.253894   -6.777390    2.251646    0.000000    0.183000
   172  O     c     2.253894   -6.722305   -2.246316    0.000000    0.183000
   173  O     c     6.772525    6.746578    6.771221    0.000000    0.183000
   174  O     c    -2.264738    6.746578    6.771221    0.000000    0.183000
   175  O     c    11.249890    2.261827    2.245145    0.000000    0.183000
   176  O     c    -6.742102    2.261827    2.245145    0.000000    0.183000
   177  O     c    11.273795    2.256882   -2.242642    0.000000    0.183000
   178  O     c    -6.766008    2.256882   -2.242642    0.000000    0.183000
   179  O     c     6.761828   -2.259367   -6.728111    0.000000    0.183000
   180  O     c    -2.254041   -2.259367   -6.728111    0.000000    0.183000
   181  O     c     2.253894   11.276922    2.243505    0.000000    0.183000
   182  O     c     2.253894   11.261665   -2.257153    0.000000    0.183000
   183  O     c    -2.255826    6.738445   -6.761918    0.000000    0.183000
   184  O     c     6.763613    6.738445   -6.761918    0.000000    0.183000
   185  Na    c     2.253894   -4.473501    6.576594    0.000000    1.000000
   186  Cl    c     4.522751    0.008301    9.028474    0.000000    1.485000
   187  Cl    c    -0.014964    0.008301    9.028474    0.000000    1.485000
   188  Na    c     4.498718   -6.763353    2.353856    0.000000    1.000000
   189  Na    c     0.009069   -6.763353    2.353856    0.000000    1.000000
   190  Cl    c     4.498710    4.517397    9.066653    0.000000    1.485000
   191  Cl    c     0.009078    4.517397    9.066653    0.000000    1.485000
   192  Cl    c     9.044897   -4.510386    0.022712    0.000000    1.485000
   193  Cl    c    -4.537110   -4.510386    0.022712    0.000000    1.485000
   194  Na    c     9.012890    2.420583    6.676890    0.000000    1.000000
   195  Na    c    -4.505102    2.420583    6.676890    0.000000    1.000000
   196  Na    c     4.513756   -6.643889   -2.337438    0.000000    1.000000
   197  Na    c    -0.005969   -6.643889   -2.337438    0.000000    1.000000
   198  Na    c    11.142119   -0.001777    1.971009    0.000000    1.000000
   199  Na    c    -6.634331   -0.001777    1.971009    0.000000    1.000000
   200  Na    c     2.253894    9.003078    6.890643    0.000000    1.000000
   201  Na    c     2.253894   -4.486220   -6.944935    0.000000    1.000000
   202  Na    c    11.364040    4.489691    2.613584    0.000000    1.000000
   203  Na    c    -6.856253    4.489691    2.613584    0.000000    1.000000
   204  Na    c    11.329919    0.008251   -1.924025    0.000000    1.000000
   205  Na    c    -6.822132    0.008251   -1.924025    0.000000    1.000000
   206  Na    c    11.238836    4.494805   -2.588271    0.000000    1.000000
   207  Na    c    -6.731048    4.494805   -2.588271    0.000000    1.000000
   208  Na    c     4.515483   11.238011    2.202445    0.000000    1.000000
   209  Na    c    -0.007696   11.238011    2.202445    0.000000    1.000000
   210  Cl    c     9.039611    9.044129   -0.014125    0.000000    1.485000
   211  Cl    c    -4.531824    9.044129   -0.014125    0.000000    1.485000
   212  Cl    c     4.519805   -0.006879   -9.071298    0.000000    1.485000
   213  Cl    c    -0.012018   -0.006879   -9.071298    0.000000    1.485000
   214  Na    c     9.019480    2.411716   -6.711373    0.000000    1.000000
   215  Na    c    -4.511692    2.411716   -6.711373    0.000000    1.000000
   216  Na    c     4.506739   11.238904   -2.176959    0.000000    1.000000
   217  Na    c     0.001048   11.238904   -2.176959    0.000000    1.000000
   218  Cl    c     4.506362    4.519672   -9.039648    0.000000    1.485000
   219  Cl    c     0.001425    4.519672   -9.039648    0.000000    1.485000
   220  Na    c     2.253894    9.010051   -6.535763    0.000000    1.000000
   221  Na    c     2.253894   -2.463657    9.007055    0.000000    1.000000
   222  Na    c     2.253894   -6.699533    4.499150    0.000000    1.000000
   223  Na    c    -2.299684    2.109329    9.000403    0.000000    1.000000
   224  Na    c     6.807471    2.109329    9.000403    0.000000    1.000000
   225  Na    c    -2.093892   -6.897760   -0.002658    0.000000    1.000000
   226  Na    c     6.601679   -6.897760   -0.002658    0.000000    1.000000
   227  Na    c     2.253894    6.577693    8.994107    0.000000    1.000000
   228  Na    c    11.280615    1.949693    4.494370    0.000000    1.000000
   229  Na    c    -6.772828    1.949693    4.494370    0.000000    1.000000
   230  Na    c    11.222501   -2.542110    0.001429    0.000000    1.000000
   231  Na    c    -6.714714   -2.542110    0.001429    0.000000    1.000000
   232  Na    c     2.253894   -6.532565   -4.501356    0.000000    1.000000
   233  Na    c     2.253894   11.273898    4.510172    0.000000    1.000000
   234  Na    c    11.296552    1.962442   -4.494409    0.000000    1.000000
   235  Na    c    -6.788765    1.962442   -4.494409    0.000000    1.000000
   236  Na    c    11.348584    6.482651    0.002969    0.000000    1.000000
   237  Na    c    -6.840796    6.482651    0.002969    0.000000    1.000000
   238  Na    c     2.253894   -2.077952   -8.993420    0.000000    1.000000
   239  Na    c    -2.311867   11.115781   -0.001044    0.000000    1.000000
   240  Na    c     6.819654   11.115781   -0.001044    0.000000    1.000000
   241  Na    c    -2.279435    2.079459   -9.002107    0.000000    1.000000
   242  Na    c     6.787222    2.079459   -9.002107    0.000000    1.000000
   243  Na    c     2.253894   11.430331   -4.499653    0.000000    1.000000
   244  Na    c     2.253894    6.936404   -9.004796    0.000000    1.000000
   245  O     c    -2.234450   -6.741720    2.231529    0.000000    0.183000
   246  O     c     6.742237   -6.741720    2.231529    0.000000    0.183000
   247  O     c    11.259571   -2.262120    2.238651    0.000000    0.183000
   248  O     c    -6.751784   -2.262120    2.238651    0.000000    0.183000
   249  O     c    -2.267158   -6.752794   -2.241426    0.000000    0.183000
   250  O     c     6.774945   -6.752794   -2.241426    0.000000    0.183000
   251  O     c    11.274786   -2.240254   -2.236360    0.000000    0.183000
   252  O     c    -6.766999   -2.240254   -2.236360    0.000000    0.183000
   253  O     c    11.263199    6.723458    2.256061    0.000000    0.183000
   254  O     c    -6.755411    6.723458    2.256061    0.000000    0.183000
   255  O     c    -2.263259   11.255399    2.271451    0.000000    0.183000
   256  O     c     6.771046   11.255399    2.271451    0.000000    0.183000
   257  O     c    11.267474    6.740288   -2.252541    0.000000    0.183000
   258  O     c    -6.759687    6.740288   -2.252541    0.000000    0.183000
   259  O     c    -2.249929   11.256447   -2.273710    0.000000    0.183000
   260  O     c     6.757716   11.256447   -2.273710    0.000000    0.183000
   261  Na    c     6.627800   -4.515749    6.890539    0.000000    1.000000
   262  Na    c    -2.120013   -4.515749    6.890539    0.000000    1.000000
   263  Cl    c     9.068596   -4.503049    4.500569    0.000000    1.485000
[...]
    234 y          2.253894      2.230046    -0.023848    Cartesian   -1.06
    234 z          2.253894      2.251327    -0.002566    Cartesian   -0.11
    235 x          2.253894      2.253894     0.000000    Cartesian    0.00
    235 y         -2.253894     -2.223866     0.030027    Cartesian   -1.33
    235 z         -2.253894     -2.183722     0.070171    Cartesian   -3.11
    236 x          2.253894      2.253894     0.000000    Cartesian    0.00
    236 y          6.761681      6.814773     0.053092    Cartesian    0.79
    236 z          2.253894      2.273890     0.019996    Cartesian    0.89
    237 x         -2.253894     -2.262203    -0.008309    Cartesian    0.37
    237 y          2.253894      2.262823     0.008930    Cartesian    0.40
    237 z         -2.253894     -2.256674    -0.002781    Cartesian    0.12
    238 x          2.253894      2.253894     0.000000    Cartesian    0.00
    238 y          6.761681      6.753045    -0.008635    Cartesian   -0.13
    238 z         -2.253894     -2.281565    -0.027672    Cartesian    1.23
    239 x          4.507787      4.657643     0.149856    Cartesian    3.32
    239 y          0.000000     -0.000806    -0.000806    Cartesian    0.00
    239 z          4.507787      4.600169     0.092382    Cartesian    2.05
    240 x          4.507787      4.598566     0.090779    Cartesian    2.01
    240 y          4.507787      4.667408     0.159621    Cartesian    3.54
    240 z          4.507787      4.596265     0.088478    Cartesian    1.96
    241 x          4.507787      4.509193     0.001406    Cartesian    0.03
    241 y          0.000000      0.031174     0.031174    Cartesian    0.00
    241 z         -4.507787     -4.555855    -0.048068    Cartesian    1.07
    242 x          4.507787      4.516600     0.008813    Cartesian    0.20
    242 y          4.507787      4.543145     0.035358    Cartesian    0.78
    242 z         -4.507787     -4.546940    -0.039152    Cartesian    0.87
    243 x          2.253894      2.253894     0.000000    Cartesian    0.00
    243 y          2.253894      2.216302    -0.037591    Cartesian   -1.67
    243 z          6.761681      6.723018    -0.038663    Cartesian   -0.57
    244 x         -2.253894     -2.224713     0.029180    Cartesian   -1.29
    244 y         -2.253894     -2.213477     0.040417    Cartesian   -1.79
    244 z          2.253894      2.259790     0.005897    Cartesian    0.26
    245 x         -2.253894     -2.259032    -0.005138    Cartesian    0.23
    245 y         -2.253894     -2.240620     0.013274    Cartesian   -0.59
    245 z         -2.253894     -2.251511     0.002382    Cartesian   -0.11
    246 x         -2.253894     -2.242441     0.011453    Cartesian   -0.51
    246 y          6.761681      6.737638    -0.024043    Cartesian   -0.36
    246 z          2.253894      2.234280    -0.019614    Cartesian   -0.87
    247 x         -2.253894     -2.268069    -0.014176    Cartesian    0.63
    247 y          6.761681      6.763042     0.001361    Cartesian    0.02
    247 z         -2.253894     -2.250155     0.003738    Cartesian   -0.17
    248 x          2.253894      2.253894     0.000000    Cartesian    0.00
    248 y          2.253894      2.247393    -0.006500    Cartesian   -0.29
    248 z         -6.761681     -6.742623     0.019058    Cartesian   -0.28
    249 x          4.507787      4.593748     0.085961    Cartesian    1.91
    249 y         -4.507787     -4.653929    -0.146142    Cartesian    3.24
    249 z          0.000000     -0.094205    -0.094205    Cartesian    0.00
    250 x          9.015574      9.035378     0.019804    Cartesian    0.22
    250 y          0.000000      0.008263     0.008263    Cartesian    0.00
    250 z          0.000000     -0.036553    -0.036553    Cartesian    0.00
    251 x          9.015574      9.025376     0.009802    Cartesian    0.11
    251 y          4.507787      4.516951     0.009163    Cartesian    0.20
    251 z          0.000000      0.008593     0.008593    Cartesian    0.00
    252 x          4.507787      4.480166    -0.027621    Cartesian   -0.61
    252 y          9.015574      9.075209     0.059635    Cartesian    0.66
    252 z          0.000000      0.031347     0.031347    Cartesian    0.00
    253 x          2.253894      2.253894     0.000000    Cartesian    0.00
    253 y         -2.253894     -2.208925     0.044969    Cartesian   -2.00
    253 z          6.761681      6.746252    -0.015429    Cartesian   -0.23
    254 x          6.761681      6.763359     0.001678    Cartesian    0.02
    254 y          2.253894      2.276434     0.022541    Cartesian    1.00
    254 z          6.761681      6.743927    -0.017754    Cartesian   -0.26
    255 x          2.253894      2.253894     0.000000    Cartesian    0.00
    255 y          6.761681      6.754847    -0.006834    Cartesian   -0.10
    255 z          6.761681      6.741925    -0.019756    Cartesian   -0.29
    256 x          2.253894      2.253894     0.000000    Cartesian    0.00
    256 y         -2.253894     -2.233442     0.020452    Cartesian   -0.91
    256 z         -6.761681     -6.718746     0.042935    Cartesian   -0.63
    257 x          6.761681      6.767436     0.005756    Cartesian    0.09
    257 y          2.253894      2.266707     0.012813    Cartesian    0.57
    257 z         -6.761681     -6.745657     0.016024    Cartesian   -0.24
    258 x          2.253894      2.253894     0.000000    Cartesian    0.00
    258 y          6.761681      6.757185    -0.004496    Cartesian   -0.07
    258 z         -6.761681     -6.752794     0.008887    Cartesian   -0.13
    259 x          4.507787      4.598506     0.090719    Cartesian    2.01
    259 y         -4.507787     -4.637553    -0.129766    Cartesian    2.88
    259 z          4.507787      4.622797     0.115010    Cartesian    2.55
    260 x          9.015574      9.102869     0.087295    Cartesian    0.97
    260 y          0.000000     -0.024917    -0.024917    Cartesian    0.00
    260 z          4.507787      4.541486     0.033699    Cartesian    0.75
    261 x          4.507787      4.515155     0.007368    Cartesian    0.16
    261 y         -4.507787     -4.525914    -0.018127    Cartesian    0.40
    261 z         -4.507787     -4.582263    -0.074476    Cartesian    1.65
    262 x          9.015574      9.071624     0.056050    Cartesian    0.62
    262 y          4.507787      4.509059     0.001272    Cartesian    0.03
    262 z          4.507787      4.511124     0.003336    Cartesian    0.07
    263 x          4.507787      4.496007    -0.011780    Cartesian   -0.26
    263 y          9.015574      9.041857     0.026283    Cartesian    0.29
    263 z          4.507787      4.503756    -0.004031    Cartesian   -0.09
    264 x          9.015574      9.068195     0.052620    Cartesian    0.58
    264 y          0.000000     -0.010375    -0.010375    Cartesian    0.00
    264 z         -4.507787     -4.518294    -0.010507    Cartesian    0.23
    265 x          9.015574      9.058824     0.043250    Cartesian    0.48
    265 y          4.507787      4.516284     0.008496    Cartesian    0.19
    265 z         -4.507787     -4.561143    -0.053355    Cartesian    1.18
    266 x          4.507787      4.530712     0.022925    Cartesian    0.51
    266 y          9.015574      9.071115     0.055541    Cartesian    0.62
    266 z         -4.507787     -4.555580    -0.047793    Cartesian    1.06
    267 x         -2.253894     -2.255816    -0.001922    Cartesian    0.09
    267 y         -2.253894     -2.266812    -0.012919    Cartesian    0.57
    267 z          6.761681      6.736744    -0.024937    Cartesian   -0.37
    268 x          2.253894      2.253894     0.000000    Cartesian    0.00
    268 y         -6.761681     -6.777456    -0.015775    Cartesian    0.23
    268 z          2.253894      2.251684    -0.002210    Cartesian   -0.10
    269 x          2.253894      2.253894     0.000000    Cartesian    0.00
    269 y         -6.761681     -6.722328     0.039353    Cartesian   -0.58
    269 z         -2.253894     -2.246302     0.007591    Cartesian   -0.34
    270 x          6.761681      6.772527     0.010846    Cartesian    0.16
    270 y          6.761681      6.746546    -0.015135    Cartesian   -0.22
    270 z          6.761681      6.771282     0.009601    Cartesian    0.14
    271 x         11.269468     11.249910    -0.019558    Cartesian   -0.17
    271 y          2.253894      2.261874     0.007980    Cartesian    0.35
    271 z          2.253894      2.245161    -0.008733    Cartesian   -0.39
    272 x         11.269468     11.273809     0.004341    Cartesian    0.04
    272 y          2.253894      2.256886     0.002992    Cartesian    0.13
    272 z         -2.253894     -2.242652     0.011242    Cartesian   -0.50
    273 x          6.761681      6.761826     0.000145    Cartesian    0.00
    273 y         -2.253894     -2.259425    -0.005531    Cartesian    0.25
    273 z         -6.761681     -6.728099     0.033582    Cartesian   -0.50
    274 x          2.253894      2.253894     0.000000    Cartesian    0.00
    274 y         11.269468     11.276871     0.007403    Cartesian    0.07
    274 z          2.253894      2.243474    -0.010420    Cartesian   -0.46
    275 x          2.253894      2.253894     0.000000    Cartesian    0.00
    275 y         11.269468     11.261687    -0.007781    Cartesian   -0.07
    275 z         -2.253894     -2.257141    -0.003247    Cartesian    0.14
    276 x         -2.253894     -2.255826    -0.001933    Cartesian    0.09
    276 y          6.761681      6.738415    -0.023265    Cartesian   -0.34
    276 z         -6.761681     -6.761965    -0.000284    Cartesian    0.00
    277 x          4.507787      4.519662     0.011875    Cartesian    0.26
    277 y          0.000000      0.009571     0.009571    Cartesian    0.00
    277 z          9.015574      9.025957     0.010383    Cartesian    0.12
    278 x          4.507787      4.498234    -0.009553    Cartesian   -0.21
    278 y          4.507787      4.516768     0.008981    Cartesian    0.20
    278 z          9.015574      9.067329     0.051755    Cartesian    0.57
    279 x          9.015574      9.047696     0.032122    Cartesian    0.36
    279 y         -4.507787     -4.507633     0.000154    Cartesian   -0.00
    279 z          0.000000      0.022375     0.022375    Cartesian    0.00
    280 x          9.015574      9.042256     0.026682    Cartesian    0.30
    280 y          9.015574      9.048376     0.032802    Cartesian    0.36
    280 z          0.000000     -0.016920    -0.016920    Cartesian    0.00
    281 x          4.507787      4.518485     0.010698    Cartesian    0.24
    281 y          0.000000     -0.005772    -0.005772    Cartesian    0.00
    281 z         -9.015574     -9.078084    -0.062509    Cartesian    0.69
    282 x          4.507787      4.509069     0.001282    Cartesian    0.03
    282 y          4.507787      4.520751     0.012964    Cartesian    0.29
    282 z         -9.015574     -9.033596    -0.018021    Cartesian    0.20
    283 x         -2.253894     -2.234405     0.019489    Cartesian   -0.86
    283 y         -6.761681     -6.741748     0.019933    Cartesian   -0.29
    283 z          2.253894      2.231482    -0.022411    Cartesian   -0.99
    284 x         11.269468     11.259569    -0.009899    Cartesian   -0.09
    284 y         -2.253894     -2.262190    -0.008296    Cartesian    0.37
    284 z          2.253894      2.238638    -0.015256    Cartesian   -0.68
    285 x         -2.253894     -2.267179    -0.013286    Cartesian    0.59
    285 y         -6.761681     -6.752815     0.008866    Cartesian   -0.13
    285 z         -2.253894     -2.241379     0.012515    Cartesian   -0.56
    286 x         11.269468     11.274800     0.005332    Cartesian    0.05
    286 y         -2.253894     -2.240272     0.013622    Cartesian   -0.60
    286 z         -2.253894     -2.236342     0.017552    Cartesian   -0.78
    287 x         11.269468     11.263223    -0.006245    Cartesian   -0.06
    287 y          6.761681      6.723433    -0.038248    Cartesian   -0.57
    287 z          2.253894      2.256084     0.002191    Cartesian    0.10
    288 x         -2.253894     -2.263278    -0.009384    Cartesian    0.42
    288 y         11.269468     11.255411    -0.014057    Cartesian   -0.12
    288 z          2.253894      2.271515     0.017621    Cartesian    0.78
    289 x         11.269468     11.267467    -0.002001    Cartesian   -0.02
    289 y          6.761681      6.740297    -0.021383    Cartesian   -0.32
    289 z         -2.253894     -2.252560     0.001333    Cartesian   -0.06
    290 x         -2.253894     -2.249926     0.003968    Cartesian   -0.18
    290 y         11.269468     11.256448    -0.013020    Cartesian   -0.12
    290 z         -2.253894     -2.273775    -0.019882    Cartesian    0.88
    291 x          9.015574      9.073096     0.057522    Cartesian    0.64
    291 y         -4.507787     -4.498415     0.009372    Cartesian   -0.21
    291 z          4.507787      4.498975    -0.008812    Cartesian   -0.20
    292 x          9.015574      9.052611     0.037037    Cartesian    0.41
    292 y         -4.507787     -4.516721    -0.008934    Cartesian    0.20
    292 z         -4.507787     -4.524217    -0.016430    Cartesian    0.36
    293 x          9.015574      9.040136     0.024562    Cartesian    0.27
    293 y          9.015574      9.072232     0.056658    Cartesian    0.63
    293 z          4.507787      4.525314     0.017527    Cartesian    0.39
    294 x          9.015574      9.042749     0.027174    Cartesian    0.30
    294 y          9.015574      9.049187     0.033613    Cartesian    0.37
    294 z         -4.507787     -4.521109    -0.013322    Cartesian    0.30
    295 x          2.253894      2.253894     0.000000    Cartesian    0.00
    295 y         -6.761681     -6.755956     0.005725    Cartesian   -0.08
    295 z          6.761681      6.749001    -0.012680    Cartesian   -0.19
    296 x          2.253894      2.253894     0.000000    Cartesian    0.00
    296 y          2.253894      2.282145     0.028252    Cartesian    1.25
    296 z         11.269468     11.249648    -0.019820    Cartesian   -0.18
    297 x         11.269468     11.268927    -0.000541    Cartesian   -0.00
    297 y          2.253894      2.240455    -0.013439    Cartesian   -0.60
    297 z          6.761681      6.751229    -0.010452    Cartesian   -0.15
    298 x          2.253894      2.253894     0.000000    Cartesian    0.00
    298 y         -6.761681     -6.749409     0.012272    Cartesian   -0.18
    298 z         -6.761681     -6.762334    -0.000653    Cartesian    0.01
    299 x          2.253894      2.253894     0.000000    Cartesian    0.00
    299 y         11.269468     11.258870    -0.010598    Cartesian   -0.09
    299 z          6.761681      6.775683     0.014003    Cartesian    0.21
    300 x         11.269468     11.272050     0.002582    Cartesian    0.02
    300 y          2.253894      2.236494    -0.017399    Cartesian   -0.77
    300 z         -6.761681     -6.752922     0.008759    Cartesian   -0.13
    301 x          2.253894      2.253894     0.000000    Cartesian    0.00
    301 y          2.253894      2.237199    -0.016695    Cartesian   -0.74
    301 z        -11.269468    -11.256198     0.013270    Cartesian   -0.12
    302 x          4.507787      4.510658     0.002871    Cartesian    0.06
    302 y         -4.507787     -4.493908     0.013879    Cartesian   -0.31
    302 z          9.015574      9.072815     0.057241    Cartesian    0.63
    303 x          2.253894      2.253894     0.000000    Cartesian    0.00
    303 y         11.269468     11.265590    -0.003878    Cartesian   -0.03
    303 z         -6.761681     -6.756934     0.004746    Cartesian   -0.07
    304 x          4.507787      4.543790     0.036003    Cartesian    0.80
    304 y         -9.015574     -9.065872    -0.050298    Cartesian    0.56
    304 z          0.000000      0.030620     0.030620    Cartesian    0.00
    305 x          9.015574      9.043120     0.027545    Cartesian    0.31
    305 y          0.000000      0.009325     0.009325    Cartesian    0.00
    305 z          9.015574      9.095543     0.079969    Cartesian    0.89
    306 x          9.015574      9.015414    -0.000160    Cartesian   -0.00
    306 y          4.507787      4.523594     0.015807    Cartesian    0.35
    306 z          9.015574      9.020190     0.004615    Cartesian    0.05
    307 x          4.507787      4.524505     0.016717    Cartesian    0.37
    307 y          9.015574      9.056182     0.040608    Cartesian    0.45
    307 z          9.015574      9.043036     0.027462    Cartesian    0.30
    308 x         13.523362     13.599753     0.076391    Cartesian    0.56
    308 y          0.000000      0.021909     0.021909    Cartesian    0.00
    308 z          0.000000     -0.001699    -0.001699    Cartesian    0.00
    309 x         13.523362     13.579190     0.055829    Cartesian    0.41
    309 y          4.507787      4.523097     0.015310    Cartesian    0.34
    309 z          0.000000      0.004574     0.004574    Cartesian    0.00
    310 x          4.507787      4.523085     0.015297    Cartesian    0.34
    310 y         -4.507787     -4.537532    -0.029745    Cartesian    0.66
    310 z         -9.015574     -9.027700    -0.012125    Cartesian    0.13
    311 x          9.015574      9.040771     0.025196    Cartesian    0.28
    311 y          0.000000      0.002659     0.002659    Cartesian    0.00
    311 z         -9.015574     -9.091510    -0.075936    Cartesian    0.84
    312 x          4.507787      4.483930    -0.023857    Cartesian   -0.53
    312 y         13.523362     13.573230     0.049868    Cartesian    0.37
    312 z          0.000000     -0.017735    -0.017735    Cartesian    0.00
    313 x          9.015574      9.017870     0.002296    Cartesian    0.03
    313 y          4.507787      4.511150     0.003363    Cartesian    0.07
    313 z         -9.015574     -9.011613     0.003962    Cartesian   -0.04
    314 x          4.507787      4.512809     0.005022    Cartesian    0.11
    314 y          9.015574      9.019594     0.004020    Cartesian    0.04
    314 z         -9.015574     -9.089333    -0.073758    Cartesian    0.82
--------------------------------------------------------------------------------


  Time to end of optimisation  =      121.4120 seconds


  Peak dynamic memory used =      90.17 MB 


  Timing analysis for GULP :

--------------------------------------------------------------------------------
  Task / Subroutine                                          Time (Seconds)
--------------------------------------------------------------------------------
  Calculation of reciprocal space energy and derivatives          0.0009
  Calculation of reciprocal space energy using symmetry           0.0011
  Calculation of real space energy and derivatives                0.0043
  Calculation of real space energy using symmetry                 0.0107
  Calculation for region 1 energy and derivatives (2-b)          71.2551
  Calculation for region 2a energy                               41.5129
  Calculation for region 2b energy                                0.0222
  Calculation and manipulation of Hessian matrix                  0.2567
  Calculation of matrix inversion                                 7.7850
  Symmetry generation of equivalent positions                     0.0053
--------------------------------------------------------------------------------
  Total CPU time                                                121.4124
--------------------------------------------------------------------------------


  Dump file written as Na3OCl.grs


  Job Finished at 16:23.19 26th November   2020                               

