 # Na78 Cl24 O27
 
         129  atoms
           3  atom types
 
      0.000000000000      13.503000000000  xlo xhi
      0.000000000000      13.503000000000  ylo yhi
      0.000000000000      13.503000000000  zlo zhi
 
Masses
 
            1   22.98976928             # Na
            2   15.99900000             # O
            3   35.45000000             # Cl
 
Atoms # charge
 
         1    1   1.000000        2.250500045010       2.250500045010       0.000000000000
         2    1   1.000000        2.250500045010       2.250500045010       4.500999954990
         3    1   1.000000        2.250500045010       2.250500045010       9.002000045010
         4    1   1.000000        2.250500045010       6.751500000000       0.000000000000
         5    1   1.000000        2.250500045010       6.751500000000       4.500999954990
         6    1   1.000000        2.250500045010       6.751500000000       9.002000045010
         7    1   1.000000        2.250500045010      11.252499954990       0.000000000000
         8    1   1.000000        2.250500045010      11.252499954990       9.002000045010
         9    1   1.000000        6.751500000000       2.250500045010       0.000000000000
        10    1   1.000000        6.751500000000       2.250500045010       4.500999954990
        11    1   1.000000        6.751500000000       2.250500045010       9.002000045010
        12    1   1.000000        6.751500000000       6.751500000000       0.000000000000
        13    1   1.000000        6.751500000000       6.751500000000       4.500999954990
        14    1   1.000000        6.751500000000       6.751500000000       9.002000045010
        15    1   1.000000        6.751500000000      11.252499954990       0.000000000000
        16    1   1.000000        6.751500000000      11.252499954990       4.500999954990
        17    1   1.000000        6.751500000000      11.252499954990       9.002000045010
        18    1   1.000000       11.252499954990       2.250500045010       0.000000000000
        19    1   1.000000       11.252499954990       2.250500045010       4.500999954990
        20    1   1.000000       11.252499954990       2.250500045010       9.002000045010
        21    1   1.000000       11.252499954990       6.751500000000       0.000000000000
        22    1   1.000000       11.252499954990       6.751500000000       4.500999954990
        23    1   1.000000       11.252499954990       6.751500000000       9.002000045010
        24    1   1.000000       11.252499954990      11.252499954990       0.000000000000
        25    1   1.000000       11.252499954990      11.252499954990       4.500999954990
        26    1   1.000000       11.252499954990      11.252499954990       9.002000045010
        27    1   1.000000        2.250500045010       0.000000000000       6.751500000000
        28    1   1.000000        2.250500045010       0.000000000000      11.252499954990
        29    1   1.000000        2.250500045010       4.500999954990       2.250500045010
        30    1   1.000000        2.250500045010       4.500999954990       6.751500000000
        31    1   1.000000        2.250500045010       4.500999954990      11.252499954990
        32    1   1.000000        2.250500045010       9.002000045010       2.250500045010
        33    1   1.000000        2.250500045010       9.002000045010       6.751500000000
        34    1   1.000000        2.250500045010       9.002000045010      11.252499954990
        35    1   1.000000        6.751500000000       0.000000000000       2.250500045010
        36    1   1.000000        6.751500000000       0.000000000000       6.751500000000
        37    1   1.000000        6.751500000000       0.000000000000      11.252499954990
        38    1   1.000000        6.751500000000       4.500999954990       2.250500045010
        39    1   1.000000        6.751500000000       4.500999954990       6.751500000000
        40    1   1.000000        6.751500000000       4.500999954990      11.252499954990
        41    1   1.000000        6.751500000000       9.002000045010       2.250500045010
        42    1   1.000000        6.751500000000       9.002000045010       6.751500000000
        43    1   1.000000        6.751500000000       9.002000045010      11.252499954990
        44    1   1.000000       11.252499954990       0.000000000000       2.250500045010
        45    1   1.000000       11.252499954990       0.000000000000       6.751500000000
        46    1   1.000000       11.252499954990       0.000000000000      11.252499954990
        47    1   1.000000       11.252499954990       4.500999954990       2.250500045010
        48    1   1.000000       11.252499954990       4.500999954990       6.751500000000
        49    1   1.000000       11.252499954990       4.500999954990      11.252499954990
        50    1   1.000000       11.252499954990       9.002000045010       2.250500045010
        51    1   1.000000       11.252499954990       9.002000045010       6.751500000000
        52    1   1.000000       11.252499954990       9.002000045010      11.252499954990
        53    1   1.000000        0.000000000000       2.250500045010       2.250500045010
        54    1   1.000000        0.000000000000       2.250500045010       6.751500000000
        55    1   1.000000        0.000000000000       2.250500045010      11.252499954990
        56    1   1.000000        0.000000000000       6.751500000000       2.250500045010
        57    1   1.000000        0.000000000000       6.751500000000       6.751500000000
        58    1   1.000000        0.000000000000       6.751500000000      11.252499954990
        59    1   1.000000        0.000000000000      11.252499954990       2.250500045010
        60    1   1.000000        0.000000000000      11.252499954990       6.751500000000
        61    1   1.000000        0.000000000000      11.252499954990      11.252499954990
        62    1   1.000000        4.500999954990       2.250500045010       2.250500045010
        63    1   1.000000        4.500999954990       2.250500045010       6.751500000000
        64    1   1.000000        4.500999954990       2.250500045010      11.252499954990
        65    1   1.000000        4.500999954990       6.751500000000       2.250500045010
        66    1   1.000000        4.500999954990       6.751500000000       6.751500000000
        67    1   1.000000        4.500999954990       6.751500000000      11.252499954990
        68    1   1.000000        4.500999954990      11.252499954990       2.250500045010
        69    1   1.000000        4.500999954990      11.252499954990       6.751500000000
        70    1   1.000000        4.500999954990      11.252499954990      11.252499954990
        71    1   1.000000        9.002000045010       2.250500045010       2.250500045010
        72    1   1.000000        9.002000045010       2.250500045010       6.751500000000
        73    1   1.000000        9.002000045010       2.250500045010      11.252499954990
        74    1   1.000000        9.002000045010       6.751500000000       2.250500045010
        75    1   1.000000        9.002000045010       6.751500000000       6.751500000000
        76    1   1.000000        9.002000045010       6.751500000000      11.252499954990
        77    1   1.000000        9.002000045010      11.252499954990       6.751500000000
        78    1   1.000000        9.002000045010      11.252499954990      11.252499954990
        79    2  -2.000000        2.250500045010       2.250500045010       2.250500045010
        80    2  -2.000000        2.250500045010       2.250500045010       6.751500000000
        81    2  -2.000000        2.250500045010       2.250500045010      11.252499954990
        82    2  -2.000000        2.250500045010       6.751500000000       2.250500045010
        83    2  -2.000000        2.250500045010       6.751500000000       6.751500000000
        84    2  -2.000000        2.250500045010       6.751500000000      11.252499954990
        85    2  -2.000000        2.250500045010      11.252499954990       2.250500045010
        86    2  -2.000000        2.250500045010      11.252499954990       6.751500000000
        87    2  -2.000000        2.250500045010      11.252499954990      11.252499954990
        88    2  -2.000000        6.751500000000       2.250500045010       2.250500045010
        89    2  -2.000000        6.751500000000       2.250500045010       6.751500000000
        90    2  -2.000000        6.751500000000       2.250500045010      11.252499954990
        91    2  -2.000000        6.751500000000       6.751500000000       2.250500045010
        92    2  -2.000000        6.751500000000       6.751500000000       6.751500000000
        93    2  -2.000000        6.751500000000       6.751500000000      11.252499954990
        94    2  -2.000000        6.751500000000      11.252499954990       2.250500045010
        95    2  -2.000000        6.751500000000      11.252499954990       6.751500000000
        96    2  -2.000000        6.751500000000      11.252499954990      11.252499954990
        97    2  -2.000000       11.252499954990       2.250500045010       2.250500045010
        98    2  -2.000000       11.252499954990       2.250500045010       6.751500000000
        99    2  -2.000000       11.252499954990       2.250500045010      11.252499954990
       100    2  -2.000000       11.252499954990       6.751500000000       2.250500045010
       101    2  -2.000000       11.252499954990       6.751500000000       6.751500000000
       102    2  -2.000000       11.252499954990       6.751500000000      11.252499954990
       103    2  -2.000000       11.252499954990      11.252499954990       2.250500045010
       104    2  -2.000000       11.252499954990      11.252499954990       6.751500000000
       105    2  -2.000000       11.252499954990      11.252499954990      11.252499954990
       106    3  -1.000000        0.000000000000       0.000000000000       0.000000000000
       107    3  -1.000000        0.000000000000       0.000000000000       4.500999954990
       108    3  -1.000000        0.000000000000       0.000000000000       9.002000045010
       109    3  -1.000000        0.000000000000       4.500999954990       4.500999954990
       110    3  -1.000000        0.000000000000       4.500999954990       9.002000045010
       111    3  -1.000000        0.000000000000       9.002000045010       0.000000000000
       112    3  -1.000000        0.000000000000       9.002000045010       4.500999954990
       113    3  -1.000000        0.000000000000       9.002000045010       9.002000045010
       114    3  -1.000000        4.500999954990       0.000000000000       0.000000000000
       115    3  -1.000000        4.500999954990       0.000000000000       4.500999954990
       116    3  -1.000000        4.500999954990       0.000000000000       9.002000045010
       117    3  -1.000000        4.500999954990       4.500999954990       0.000000000000
       118    3  -1.000000        4.500999954990       4.500999954990       4.500999954990
       119    3  -1.000000        4.500999954990       4.500999954990       9.002000045010
       120    3  -1.000000        4.500999954990       9.002000045010       0.000000000000
       121    3  -1.000000        4.500999954990       9.002000045010       4.500999954990
       122    3  -1.000000        9.002000045010       0.000000000000       0.000000000000
       123    3  -1.000000        9.002000045010       0.000000000000       4.500999954990
       124    3  -1.000000        9.002000045010       0.000000000000       9.002000045010
       125    3  -1.000000        9.002000045010       4.500999954990       0.000000000000
       126    3  -1.000000        9.002000045010       4.500999954990       9.002000045010
       127    3  -1.000000        9.002000045010       9.002000045010       0.000000000000
       128    3  -1.000000        9.002000045010       9.002000045010       4.500999954990
       129    3  -1.000000        9.002000045010       9.002000045010       9.002000045010
