********************************************************************************
*                       GENERAL UTILITY LATTICE PROGRAM                        *
*                                 Julian Gale                                  *
*                       Curtin Institute for Computation                       *
*                    School of Molecular and Life Sciences                     *
*                    Curtin University, Western Australia                      *
********************************************************************************
* Version = 5.2.0 * Last modified =  10th September 2020                       *
********************************************************************************
*  optimise     - perform optimisation run                                     *
*  conp         - constant pressure calculation                                *
*  property     - calculate properties for final geometry                      *
*  defect       - perform defect calculation after bulk run                    *
*  compare      - compare initial and final structures                         *
********************************************************************************

  Job Started  at 17:29.09  4th February   2021                               

  Number of CPUs =     1


  Total number of configurations input =      1

********************************************************************************
*  Input for Configuration =   1                                               *
********************************************************************************

  Formula = O8Cl8Na24                                                   

  Number of irreducible atoms/shells =      56


  Total number atoms/shells =      56

  Dimensionality = 3               :  Bulk   



  Supercell dimensions :  x =   2  y =   2  z =   2

  Cartesian lattice vectors (Angstroms) :

        9.008000    0.000000    0.000000
        0.000000    9.008000    0.000000
        0.000000    0.000000    9.008000

  Cell parameters (Angstroms/Degrees):

  a =       9.0080    alpha =  90.0000
  b =       9.0080    beta  =  90.0000
  c =       9.0080    gamma =  90.0000

  Initial cell volume =         730.945729 Angs**3

  Temperature of configuration =   0.00     K 

  Pressure of configuration =         0.000 GPa 

  Fractional coordinates of asymmetric unit :

--------------------------------------------------------------------------------
   No.  Atomic       x           y          z         Charge      Occupancy
        Label      (Frac)      (Frac)     (Frac)        (e)         (Frac)  
--------------------------------------------------------------------------------
      1 O     c    0.000000    0.000000    0.000000     0.18300    1.000000    
      2 O     c    0.000000 *  0.000000 *  0.500000 *   0.18300    1.000000    
      3 O     c    0.000000 *  0.500000 *  0.000000 *   0.18300    1.000000    
      4 O     c    0.000000 *  0.500000 *  0.500000 *   0.18300    1.000000    
      5 O     c    0.500000 *  0.000000 *  0.000000 *   0.18300    1.000000    
      6 O     c    0.500000 *  0.000000 *  0.500000 *   0.18300    1.000000    
      7 O     c    0.500000 *  0.500000 *  0.000000 *   0.18300    1.000000    
      8 O     c    0.500000 *  0.500000 *  0.500000 *   0.18300    1.000000    
      9 Cl    c    0.250000 *  0.250000 *  0.250000 *   1.48500    1.000000    
     10 Cl    c    0.250000 *  0.250000 *  0.750000 *   1.48500    1.000000    
     11 Cl    c    0.250000 *  0.750000 *  0.250000 *   1.48500    1.000000    
     12 Cl    c    0.250000 *  0.750000 *  0.750000 *   1.48500    1.000000    
     13 Cl    c    0.750000 *  0.250000 *  0.250000 *   1.48500    1.000000    
     14 Cl    c    0.750000 *  0.250000 *  0.750000 *   1.48500    1.000000    
     15 Cl    c    0.750000 *  0.750000 *  0.250000 *   1.48500    1.000000    
     16 Cl    c    0.750000 *  0.750000 *  0.750000 *   1.48500    1.000000    
     17 Na    c    0.250000 *  0.000000 *  0.000000 *   1.00000    1.000000    
     18 Na    c    0.250000 *  0.000000 *  0.500000 *   1.00000    1.000000    
     19 Na    c    0.250000 *  0.500000 *  0.000000 *   1.00000    1.000000    
     20 Na    c    0.250000 *  0.500000 *  0.500000 *   1.00000    1.000000    
     21 Na    c    0.750000 *  0.000000 *  0.000000 *   1.00000    1.000000    
     22 Na    c    0.750000 *  0.000000 *  0.500000 *   1.00000    1.000000    
     23 Na    c    0.750000 *  0.500000 *  0.000000 *   1.00000    1.000000    
     24 Na    c    0.750000 *  0.500000 *  0.500000 *   1.00000    1.000000    
     25 Na    c    0.000000 *  0.250000 *  0.000000 *   1.00000    1.000000    
     26 Na    c    0.000000 *  0.250000 *  0.500000 *   1.00000    1.000000    
     27 Na    c    0.000000 *  0.750000 *  0.000000 *   1.00000    1.000000    
     28 Na    c    0.000000 *  0.750000 *  0.500000 *   1.00000    1.000000    
     29 Na    c    0.500000 *  0.250000 *  0.000000 *   1.00000    1.000000    
     30 Na    c    0.500000 *  0.250000 *  0.500000 *   1.00000    1.000000    
     31 Na    c    0.500000 *  0.750000 *  0.000000 *   1.00000    1.000000    
     32 Na    c    0.500000 *  0.750000 *  0.500000 *   1.00000    1.000000    
     33 Na    c    0.000000 *  0.000000 *  0.250000 *   1.00000    1.000000    
     34 Na    c    0.000000 *  0.000000 *  0.750000 *   1.00000    1.000000    
     35 Na    c    0.000000 *  0.500000 *  0.250000 *   1.00000    1.000000    
     36 Na    c    0.000000 *  0.500000 *  0.750000 *   1.00000    1.000000    
     37 Na    c    0.500000 *  0.000000 *  0.250000 *   1.00000    1.000000    
     38 Na    c    0.500000 *  0.000000 *  0.750000 *   1.00000    1.000000    
     39 Na    c    0.500000 *  0.500000 *  0.250000 *   1.00000    1.000000    
     40 Na    c    0.500000 *  0.500000 *  0.750000 *   1.00000    1.000000    
     41 O     s    0.000000 *  0.000000 *  0.000000 *  -2.18300    1.000000    
     42 O     s    0.000000 *  0.000000 *  0.500000 *  -2.18300    1.000000    
     43 O     s    0.000000 *  0.500000 *  0.000000 *  -2.18300    1.000000    
     44 O     s    0.000000 *  0.500000 *  0.500000 *  -2.18300    1.000000    
     45 O     s    0.500000 *  0.000000 *  0.000000 *  -2.18300    1.000000    
     46 O     s    0.500000 *  0.000000 *  0.500000 *  -2.18300    1.000000    
     47 O     s    0.500000 *  0.500000 *  0.000000 *  -2.18300    1.000000    
     48 O     s    0.500000 *  0.500000 *  0.500000 *  -2.18300    1.000000    
     49 Cl    s    0.250000 *  0.250000 *  0.250000 *  -2.48500    1.000000    
     50 Cl    s    0.250000 *  0.250000 *  0.750000 *  -2.48500    1.000000    
     51 Cl    s    0.250000 *  0.750000 *  0.250000 *  -2.48500    1.000000    
     52 Cl    s    0.250000 *  0.750000 *  0.750000 *  -2.48500    1.000000    
     53 Cl    s    0.750000 *  0.250000 *  0.250000 *  -2.48500    1.000000    
     54 Cl    s    0.750000 *  0.250000 *  0.750000 *  -2.48500    1.000000    
     55 Cl    s    0.750000 *  0.750000 *  0.250000 *  -2.48500    1.000000    
     56 Cl    s    0.750000 *  0.750000 *  0.750000 *  -2.48500    1.000000    
--------------------------------------------------------------------------------



********************************************************************************
*  General input information                                                   *
********************************************************************************

  Species output for all configurations : 

--------------------------------------------------------------------------------
  Species    Type    Atomic    Atomic    Charge       Radii (Angs)     Library
                     Number     Mass       (e)     Cova   Ionic  VDW   Symbol
--------------------------------------------------------------------------------
    Na       Core       11      22.99   1.000000   0.970  0.000  2.300          
    O        Core        8      16.00   0.183000   0.730  0.000  1.360          
    O        Shell       8       0.00  -2.183000   0.730  0.000  1.360          
    Cl       Core       17      35.45   1.485000   0.990  0.000  1.650          
    Cl       Shell      17       0.00  -2.485000   0.990  0.000  1.650          
    Mg       Core       12      24.31   0.415000   1.100  0.000  0.000          
    Mg       Shell      12       0.00   1.585000   1.100  0.000  0.000          
    Ca       Core       20      40.08  -1.135000   0.990  0.000  0.000          
    Ca       Shell      20       0.00   3.135000   0.990  0.000  0.000          
    Sr       Core       38      87.62  -1.251000   1.120  0.000  0.000          
    Sr       Shell      38       0.00   3.251000   1.120  0.000  0.000          
    Ba       Core       56     137.33  -7.203000   1.340  0.000  0.000          
    Ba       Shell      56       0.00   9.203000   1.340  0.000  0.000          
--------------------------------------------------------------------------------


  Lattice summation method               =    Ewald          (3-D)
                                         =    Parry          (2-D)
                                         =    Saunders et al (1-D)
  Accuracy factor for lattice sums       =   12.000


  Analytic derivatives to be used

  Time limit = Infinity

  Maximum range for interatomic potentials =    100000.000000 Angstroms

  General interatomic potentials :

--------------------------------------------------------------------------------
Atom  Types   Potential      Parameter       Value         Units   Cutoffs(Ang)
  1     2                                                            Min /  Max 
--------------------------------------------------------------------------------
O    c O    s Spring (c-s)  Spring k 2       593.71600    eV*Ang^-2 0.000  0.800
                            Spring k 4       0.0000000    eV*Ang^-4 
--------------------------------------------------------------------------------
Cl   c Cl   s Spring (c-s)  Spring k 2       29.380000    eV*Ang^-2 0.000  0.800
                            Spring k 4       0.0000000    eV*Ang^-4 
--------------------------------------------------------------------------------
Mg   c Mg   s Spring (c-s)  Spring k 2       361.60000    eV*Ang^-2 0.000  0.800
                            Spring k 4       0.0000000    eV*Ang^-4 
--------------------------------------------------------------------------------
Ca   c Ca   s Spring (c-s)  Spring k 2       110.20000    eV*Ang^-2 0.000  0.800
                            Spring k 4       0.0000000    eV*Ang^-4 
--------------------------------------------------------------------------------
Sr   c Sr   s Spring (c-s)  Spring k 2       71.700000    eV*Ang^-2 0.000  0.800
                            Spring k 4       0.0000000    eV*Ang^-4 
--------------------------------------------------------------------------------
Ba   c Ba   s Spring (c-s)  Spring k 2       495.20000    eV*Ang^-2 0.000  0.800
                            Spring k 4       0.0000000    eV*Ang^-4 
--------------------------------------------------------------------------------
Na   c Na   c Buckingham    Buckingham A     1788.1900    eV        0.000 12.000
                            Buckingham rho  0.15900000    Ang       
                            Buckingham C     0.0000000    eV*Ang^6  
--------------------------------------------------------------------------------
Na   c O    s Buckingham    Buckingham A     588.38000    eV        0.000 12.000
                            Buckingham rho  0.33800000    Ang       
                            Buckingham C     0.0000000    eV*Ang^6  
--------------------------------------------------------------------------------
Na   c Cl   s Buckingham    Buckingham A     1170.4100    eV        0.000 12.000
                            Buckingham rho  0.31500000    Ang       
                            Buckingham C     0.0000000    eV*Ang^6  
--------------------------------------------------------------------------------
O    s O    s Buckingham    Buckingham A     22764.300    eV        0.000 12.000
                            Buckingham rho  0.14900000    Ang       
                            Buckingham C     13.190000    eV*Ang^6  
--------------------------------------------------------------------------------
O    s Cl   s Buckingham    Buckingham A     8286.9100    eV        0.000 12.000
                            Buckingham rho  0.25900000    Ang       
                            Buckingham C     62.200000    eV*Ang^6  
--------------------------------------------------------------------------------
Cl   s Cl   s Buckingham    Buckingham A     1227.2000    eV        0.000 12.000
                            Buckingham rho  0.32100000    Ang       
                            Buckingham C     14.530000    eV*Ang^6  
--------------------------------------------------------------------------------
O    s Mg   s Buckingham    Buckingham A     1428.5000    eV        0.000 12.000
                            Buckingham rho  0.29450000    Ang       
                            Buckingham C     0.0000000    eV*Ang^6  
--------------------------------------------------------------------------------
Mg   s Cl   s Buckingham    Buckingham A     4914.5400    eV        0.000 12.000
                            Buckingham rho  0.25700000    Ang       
                            Buckingham C     0.0000000    eV*Ang^6  
--------------------------------------------------------------------------------
O    s Ca   s Buckingham    Buckingham A     1090.4000    eV        0.000 12.000
                            Buckingham rho  0.34370000    Ang       
                            Buckingham C     0.0000000    eV*Ang^6  
--------------------------------------------------------------------------------
Cl   s Ca   s Buckingham    Buckingham A     2302.0000    eV        0.000 12.000
                            Buckingham rho  0.34020000    Ang       
                            Buckingham C     0.0000000    eV*Ang^6  
--------------------------------------------------------------------------------
O    s Sr   s Buckingham    Buckingham A     959.10000    eV        0.000 12.000
                            Buckingham rho  0.37210000    Ang       
                            Buckingham C     0.0000000    eV*Ang^6  
--------------------------------------------------------------------------------
Cl   s Sr   s Buckingham    Buckingham A     2191.0900    eV        0.000 12.000
                            Buckingham rho  0.34570000    Ang       
                            Buckingham C     0.0000000    eV*Ang^6  
--------------------------------------------------------------------------------
O    s Ba   s Buckingham    Buckingham A     905.70000    eV        0.000 12.000
                            Buckingham rho  0.39760000    Ang       
                            Buckingham C     0.0000000    eV*Ang^6  
--------------------------------------------------------------------------------
Cl   s Ba   s Buckingham    Buckingham A     2704.5500    eV        0.000 12.000
                            Buckingham rho  0.35280000    Ang       
                            Buckingham C     0.0000000    eV*Ang^6  
--------------------------------------------------------------------------------

********************************************************************************
*  Output for configuration   1                                                *
********************************************************************************


  Components of energy : 

--------------------------------------------------------------------------------
  Interatomic potentials     =          39.54523045 eV    
  Monopole - monopole (real) =        -173.49412932 eV    
  Monopole - monopole (recip)=        -143.08233464 eV    
  Monopole - monopole (total)=        -316.57646396 eV    
--------------------------------------------------------------------------------
  Total lattice energy       =        -277.03123351 eV    
--------------------------------------------------------------------------------
  Total lattice energy       =          -26729.2792 kJ/(mole unit cells)
--------------------------------------------------------------------------------


  Number of variables =      171

  Maximum number of calculations  =          1000
  Maximum Hessian update interval =            10
  Maximum step size               =   1.000000000
  Maximum parameter tolerance     =   0.000010000
  Maximum function  tolerance     =   0.000010000
  Maximum gradient  tolerance     =   0.001000000
  Maximum gradient  component     =   0.010000000

  Cell parameters to be optimised using strains

  Newton-Raphson optimiser to be used

  BFGS hessian update to be used

  Lower half triangular hessian to be used

  Start of bulk optimisation :

  Cycle:      0 Energy:      -277.031234  Gnorm:      0.116908  CPU:    0.115
  ** Hessian calculated **
  Cycle:      1 Energy:      -277.421334  Gnorm:      0.001189  CPU:    0.226
  Cycle:      2 Energy:      -277.421371  Gnorm:      0.000099  CPU:    0.308


  **** Optimisation achieved ****


  Final energy =    -277.42137089 eV
  Final Gnorm  =       0.00000000

  Components of energy : 

--------------------------------------------------------------------------------
  Interatomic potentials     =          46.20368827 eV    
  Monopole - monopole (real) =        -177.35698719 eV    
  Monopole - monopole (recip)=        -146.26807197 eV    
  Monopole - monopole (total)=        -323.62505916 eV    
--------------------------------------------------------------------------------
  Total lattice energy       =        -277.42137089 eV    
--------------------------------------------------------------------------------
  Total lattice energy       =          -26766.9215 kJ/(mole unit cells)
--------------------------------------------------------------------------------

  Final fractional coordinates of atoms :

--------------------------------------------------------------------------------
   No.  Atomic        x           y          z          Radius
        Label       (Frac)      (Frac)     (Frac)       (Angs) 
--------------------------------------------------------------------------------
     1  O     c     0.000000    0.000000    0.000000    0.000000
     2  O     c     0.000000    0.000000    0.500000    0.000000
     3  O     c     1.000000    0.500000    1.000000    0.000000
     4  O     c     0.000000    0.500000    0.500000    0.000000
     5  O     c     0.500000    0.000000    1.000000    0.000000
     6  O     c     0.500000    0.000000    0.500000    0.000000
     7  O     c     0.500000    0.500000    1.000000    0.000000
     8  O     c     0.500000    0.500000    0.500000    0.000000
     9  Cl    c     0.250000    0.250000    0.250000    0.000000
    10  Cl    c     0.250000    0.250000    0.750000    0.000000
    11  Cl    c     0.250000    0.750000    0.250000    0.000000
    12  Cl    c     0.250000    0.750000    0.750000    0.000000
    13  Cl    c     0.750000    0.250000    0.250000    0.000000
    14  Cl    c     0.750000    0.250000    0.750000    0.000000
    15  Cl    c     0.750000    0.750000    0.250000    0.000000
    16  Cl    c     0.750000    0.750000    0.750000    0.000000
    17  Na    c     0.250000    0.000000    1.000000    0.000000
    18  Na    c     0.250000    0.000000    0.500000    0.000000
    19  Na    c     0.250000    0.500000    1.000000    0.000000
    20  Na    c     0.250000    0.500000    0.500000    0.000000
    21  Na    c     0.750000    1.000000    0.000000    0.000000
    22  Na    c     0.750000    1.000000    0.500000    0.000000
    23  Na    c     0.750000    0.500000    0.000000    0.000000
    24  Na    c     0.750000    0.500000    0.500000    0.000000
    25  Na    c     1.000000    0.250000    0.000000    0.000000
    26  Na    c     1.000000    0.250000    0.500000    0.000000
    27  Na    c     0.000000    0.750000    1.000000    0.000000
    28  Na    c     0.000000    0.750000    0.500000    0.000000
    29  Na    c     0.500000    0.250000    1.000000    0.000000
    30  Na    c     0.500000    0.250000    0.500000    0.000000
    31  Na    c     0.500000    0.750000    0.000000    0.000000
    32  Na    c     0.500000    0.750000    0.500000    0.000000
    33  Na    c     0.000000    1.000000    0.250000    0.000000
    34  Na    c     1.000000    0.000000    0.750000    0.000000
    35  Na    c     0.000000    0.500000    0.250000    0.000000
    36  Na    c     1.000000    0.500000    0.750000    0.000000
    37  Na    c     0.500000    0.000000    0.250000    0.000000
    38  Na    c     0.500000    1.000000    0.750000    0.000000
    39  Na    c     0.500000    0.500000    0.250000    0.000000
    40  Na    c     0.500000    0.500000    0.750000    0.000000
    41  O     s     0.000000    0.000000    0.000000    0.000000
    42  O     s     0.000000    0.000000    0.500000    0.000000
    43  O     s     1.000000    0.500000    1.000000    0.000000
    44  O     s     0.000000    0.500000    0.500000    0.000000
    45  O     s     0.500000    0.000000    1.000000    0.000000
    46  O     s     0.500000    0.000000    0.500000    0.000000
    47  O     s     0.500000    0.500000    1.000000    0.000000
    48  O     s     0.500000    0.500000    0.500000    0.000000
    49  Cl    s     0.250000    0.250000    0.250000    0.000000
    50  Cl    s     0.250000    0.250000    0.750000    0.000000
    51  Cl    s     0.250000    0.750000    0.250000    0.000000
    52  Cl    s     0.250000    0.750000    0.750000    0.000000
    53  Cl    s     0.750000    0.250000    0.250000    0.000000
    54  Cl    s     0.750000    0.250000    0.750000    0.000000
    55  Cl    s     0.750000    0.750000    0.250000    0.000000
    56  Cl    s     0.750000    0.750000    0.750000    0.000000
--------------------------------------------------------------------------------

  Final Cartesian lattice vectors (Angstroms) :

        8.811805   -0.000000    0.000000
       -0.000000    8.811805   -0.000000
        0.000000   -0.000000    8.811805


  Final cell parameters and derivatives :

--------------------------------------------------------------------------------
       a            8.811805 Angstrom     dE/de1(xx)     0.000000 eV/strain
       b            8.811805 Angstrom     dE/de2(yy)     0.000000 eV/strain
       c            8.811805 Angstrom     dE/de3(zz)     0.000000 eV/strain
       alpha       90.000000 Degrees      dE/de4(yz)    -0.000000 eV/strain
       beta        90.000000 Degrees      dE/de5(xz)     0.000000 eV/strain
       gamma       90.000000 Degrees      dE/de6(xy)    -0.000000 eV/strain
--------------------------------------------------------------------------------

  Primitive cell volume =           684.218127 Angs**3

  Density of cell =      2.338030 g/cm**3

  Non-primitive cell volume =           684.218127 Angs**3


  Final internal derivatives :

--------------------------------------------------------------------------------
   No.  Atomic          a             b             c           Radius
        Label          (eV)          (eV)          (eV)        (eV/Angs)
--------------------------------------------------------------------------------
      1 O     c       0.000000      0.000000      0.000000      0.000000
      2 O     c       0.000000     -0.000000     -0.000000      0.000000
      3 O     c      -0.000000      0.000000      0.000000      0.000000
      4 O     c       0.000000      0.000000      0.000000      0.000000
      5 O     c       0.000000     -0.000000     -0.000000      0.000000
      6 O     c      -0.000000     -0.000000     -0.000000      0.000000
      7 O     c       0.000000      0.000000     -0.000000      0.000000
      8 O     c      -0.000000      0.000000     -0.000000      0.000000
      9 Cl    c      -0.000000     -0.000000     -0.000000      0.000000
     10 Cl    c      -0.000000     -0.000000      0.000000      0.000000
     11 Cl    c      -0.000000      0.000000      0.000000      0.000000
     12 Cl    c      -0.000000      0.000000     -0.000000      0.000000
     13 Cl    c       0.000000      0.000000      0.000000      0.000000
     14 Cl    c       0.000000     -0.000000     -0.000000      0.000000
     15 Cl    c      -0.000000      0.000000     -0.000000      0.000000
     16 Cl    c      -0.000000      0.000000      0.000000      0.000000
     17 Na    c       0.000000     -0.000000      0.000000      0.000000
     18 Na    c      -0.000000     -0.000000     -0.000000      0.000000
     19 Na    c      -0.000000      0.000000      0.000000      0.000000
     20 Na    c      -0.000000      0.000000     -0.000000      0.000000
     21 Na    c      -0.000000      0.000000     -0.000000      0.000000
     22 Na    c      -0.000000      0.000000     -0.000000      0.000000
     23 Na    c      -0.000000     -0.000000      0.000000      0.000000
     24 Na    c       0.000000     -0.000000     -0.000000      0.000000
     25 Na    c       0.000000     -0.000000     -0.000000      0.000000
     26 Na    c       0.000000     -0.000000     -0.000000      0.000000
     27 Na    c      -0.000000     -0.000000      0.000000      0.000000
     28 Na    c      -0.000000      0.000000     -0.000000      0.000000
     29 Na    c      -0.000000     -0.000000     -0.000000      0.000000
     30 Na    c      -0.000000     -0.000000      0.000000      0.000000
     31 Na    c       0.000000      0.000000     -0.000000      0.000000
     32 Na    c       0.000000      0.000000     -0.000000      0.000000
     33 Na    c      -0.000000     -0.000000      0.000000      0.000000
     34 Na    c      -0.000000      0.000000     -0.000000      0.000000
     35 Na    c       0.000000      0.000000     -0.000000      0.000000
     36 Na    c       0.000000     -0.000000     -0.000000      0.000000
     37 Na    c      -0.000000     -0.000000      0.000000      0.000000
     38 Na    c       0.000000      0.000000     -0.000000      0.000000
     39 Na    c      -0.000000      0.000000      0.000000      0.000000
     40 Na    c      -0.000000     -0.000000     -0.000000      0.000000
     41 O     s      -0.000000      0.000000     -0.000000      0.000000
     42 O     s      -0.000000      0.000000      0.000000      0.000000
     43 O     s       0.000000     -0.000000     -0.000000      0.000000
     44 O     s      -0.000000      0.000000      0.000000      0.000000
     45 O     s       0.000000      0.000000     -0.000000      0.000000
     46 O     s       0.000000     -0.000000      0.000000      0.000000
     47 O     s       0.000000      0.000000     -0.000000      0.000000
     48 O     s       0.000000      0.000000     -0.000000      0.000000
     49 Cl    s       0.000000      0.000000     -0.000000      0.000000
     50 Cl    s      -0.000000     -0.000000     -0.000000      0.000000
     51 Cl    s       0.000000     -0.000000     -0.000000      0.000000
     52 Cl    s       0.000000     -0.000000      0.000000      0.000000
     53 Cl    s      -0.000000      0.000000     -0.000000      0.000000
     54 Cl    s      -0.000000      0.000000      0.000000      0.000000
     55 Cl    s      -0.000000     -0.000000      0.000000      0.000000
     56 Cl    s      -0.000000     -0.000000     -0.000000      0.000000
--------------------------------------------------------------------------------
  Maximum abs         0.000000      0.000000      0.000000      0.000000
--------------------------------------------------------------------------------

  Comparison of initial and final structures : 

--------------------------------------------------------------------------------
  Parameter   Initial value   Final value   Difference    Units      Percent
--------------------------------------------------------------------------------
    Volume       730.945729    684.218127   -46.727602    Angs**3     -6.39
    a              9.008000      8.811805    -0.196195    Angstroms   -2.18
    b              9.008000      8.811805    -0.196195    Angstroms   -2.18
    c              9.008000      8.811805    -0.196195    Angstroms   -2.18
    alpha         90.000000     90.000000     0.000000    Degrees      0.00
    beta          90.000000     90.000000     0.000000    Degrees      0.00
    gamma         90.000000     90.000000     0.000000    Degrees      0.00
      1 x          0.000000      0.000000     0.000000    Fractional   0.00
      1 y          0.000000      0.000000     0.000000    Fractional   0.00
      1 z          0.000000      0.000000     0.000000    Fractional   0.00
      2 x          0.000000      0.000000     0.000000    Fractional   0.00
      2 y          0.000000      0.000000     0.000000    Fractional   0.00
      2 z          0.500000      0.500000     0.000000    Fractional   0.00
      3 x          0.000000      1.000000     1.000000    Fractional   0.00
      3 y          0.500000      0.500000     0.000000    Fractional   0.00
      3 z          0.000000      1.000000     1.000000    Fractional   0.00
      4 x          0.000000      0.000000     0.000000    Fractional   0.00
      4 y          0.500000      0.500000     0.000000    Fractional   0.00
      4 z          0.500000      0.500000     0.000000    Fractional   0.00
      5 x          0.500000      0.500000     0.000000    Fractional   0.00
      5 y          0.000000      0.000000     0.000000    Fractional   0.00
      5 z          0.000000      1.000000     1.000000    Fractional   0.00
      6 x          0.500000      0.500000     0.000000    Fractional   0.00
      6 y          0.000000      0.000000     0.000000    Fractional   0.00
      6 z          0.500000      0.500000     0.000000    Fractional   0.00
      7 x          0.500000      0.500000     0.000000    Fractional   0.00
      7 y          0.500000      0.500000     0.000000    Fractional   0.00
      7 z          0.000000      1.000000     1.000000    Fractional   0.00
      8 x          0.500000      0.500000     0.000000    Fractional   0.00
      8 y          0.500000      0.500000     0.000000    Fractional   0.00
      8 z          0.500000      0.500000     0.000000    Fractional   0.00
      9 x          0.250000      0.250000     0.000000    Fractional   0.00
      9 y          0.250000      0.250000     0.000000    Fractional   0.00
      9 z          0.250000      0.250000     0.000000    Fractional   0.00
     10 x          0.250000      0.250000     0.000000    Fractional   0.00
     10 y          0.250000      0.250000     0.000000    Fractional   0.00
     10 z          0.750000      0.750000     0.000000    Fractional   0.00
     11 x          0.250000      0.250000     0.000000    Fractional   0.00
     11 y          0.750000      0.750000     0.000000    Fractional   0.00
     11 z          0.250000      0.250000     0.000000    Fractional   0.00
     12 x          0.250000      0.250000     0.000000    Fractional   0.00
     12 y          0.750000      0.750000     0.000000    Fractional   0.00
     12 z          0.750000      0.750000     0.000000    Fractional   0.00
     13 x          0.750000      0.750000     0.000000    Fractional   0.00
     13 y          0.250000      0.250000     0.000000    Fractional   0.00
     13 z          0.250000      0.250000     0.000000    Fractional   0.00
     14 x          0.750000      0.750000     0.000000    Fractional   0.00
     14 y          0.250000      0.250000     0.000000    Fractional   0.00
     14 z          0.750000      0.750000     0.000000    Fractional   0.00
     15 x          0.750000      0.750000     0.000000    Fractional   0.00
     15 y          0.750000      0.750000     0.000000    Fractional   0.00
     15 z          0.250000      0.250000     0.000000    Fractional   0.00
     16 x          0.750000      0.750000     0.000000    Fractional   0.00
     16 y          0.750000      0.750000     0.000000    Fractional   0.00
     16 z          0.750000      0.750000     0.000000    Fractional   0.00
     17 x          0.250000      0.250000     0.000000    Fractional   0.00
     17 y          0.000000      0.000000     0.000000    Fractional   0.00
     17 z          0.000000      1.000000     1.000000    Fractional   0.00
     18 x          0.250000      0.250000     0.000000    Fractional   0.00
     18 y          0.000000      0.000000     0.000000    Fractional   0.00
     18 z          0.500000      0.500000     0.000000    Fractional   0.00
     19 x          0.250000      0.250000     0.000000    Fractional   0.00
     19 y          0.500000      0.500000     0.000000    Fractional   0.00
     19 z          0.000000      1.000000     1.000000    Fractional   0.00
     20 x          0.250000      0.250000     0.000000    Fractional   0.00
     20 y          0.500000      0.500000     0.000000    Fractional   0.00
     20 z          0.500000      0.500000     0.000000    Fractional   0.00
     21 x          0.750000      0.750000     0.000000    Fractional   0.00
     21 y          0.000000      1.000000     1.000000    Fractional   0.00
     21 z          0.000000      0.000000     0.000000    Fractional   0.00
     22 x          0.750000      0.750000     0.000000    Fractional   0.00
     22 y          0.000000      1.000000     1.000000    Fractional   0.00
     22 z          0.500000      0.500000     0.000000    Fractional   0.00
     23 x          0.750000      0.750000     0.000000    Fractional   0.00
     23 y          0.500000      0.500000     0.000000    Fractional   0.00
     23 z          0.000000      0.000000     0.000000    Fractional   0.00
     24 x          0.750000      0.750000     0.000000    Fractional   0.00
     24 y          0.500000      0.500000     0.000000    Fractional   0.00
     24 z          0.500000      0.500000     0.000000    Fractional   0.00
     25 x          0.000000      1.000000     1.000000    Fractional   0.00
     25 y          0.250000      0.250000     0.000000    Fractional   0.00
     25 z          0.000000      0.000000     0.000000    Fractional   0.00
     26 x          0.000000      1.000000     1.000000    Fractional   0.00
     26 y          0.250000      0.250000     0.000000    Fractional   0.00
     26 z          0.500000      0.500000     0.000000    Fractional   0.00
     27 x          0.000000      0.000000     0.000000    Fractional   0.00
     27 y          0.750000      0.750000     0.000000    Fractional   0.00
     27 z          0.000000      1.000000     1.000000    Fractional   0.00
     28 x          0.000000      0.000000     0.000000    Fractional   0.00
     28 y          0.750000      0.750000     0.000000    Fractional   0.00
     28 z          0.500000      0.500000     0.000000    Fractional   0.00
     29 x          0.500000      0.500000     0.000000    Fractional   0.00
     29 y          0.250000      0.250000     0.000000    Fractional   0.00
     29 z          0.000000      1.000000     1.000000    Fractional   0.00
     30 x          0.500000      0.500000     0.000000    Fractional   0.00
     30 y          0.250000      0.250000     0.000000    Fractional   0.00
     30 z          0.500000      0.500000     0.000000    Fractional   0.00
     31 x          0.500000      0.500000     0.000000    Fractional   0.00
     31 y          0.750000      0.750000     0.000000    Fractional   0.00
     31 z          0.000000      0.000000     0.000000    Fractional   0.00
     32 x          0.500000      0.500000     0.000000    Fractional   0.00
     32 y          0.750000      0.750000     0.000000    Fractional   0.00
     32 z          0.500000      0.500000     0.000000    Fractional   0.00
     33 x          0.000000      0.000000     0.000000    Fractional   0.00
     33 y          0.000000      1.000000     1.000000    Fractional   0.00
     33 z          0.250000      0.250000     0.000000    Fractional   0.00
     34 x          0.000000      1.000000     1.000000    Fractional   0.00
     34 y          0.000000      0.000000     0.000000    Fractional   0.00
     34 z          0.750000      0.750000     0.000000    Fractional   0.00
     35 x          0.000000      0.000000     0.000000    Fractional   0.00
     35 y          0.500000      0.500000     0.000000    Fractional   0.00
     35 z          0.250000      0.250000     0.000000    Fractional   0.00
     36 x          0.000000      1.000000     1.000000    Fractional   0.00
     36 y          0.500000      0.500000     0.000000    Fractional   0.00
     36 z          0.750000      0.750000     0.000000    Fractional   0.00
     37 x          0.500000      0.500000     0.000000    Fractional   0.00
     37 y          0.000000      0.000000     0.000000    Fractional   0.00
     37 z          0.250000      0.250000     0.000000    Fractional   0.00
     38 x          0.500000      0.500000     0.000000    Fractional   0.00
     38 y          0.000000      1.000000     1.000000    Fractional   0.00
     38 z          0.750000      0.750000     0.000000    Fractional   0.00
     39 x          0.500000      0.500000     0.000000    Fractional   0.00
     39 y          0.500000      0.500000     0.000000    Fractional   0.00
     39 z          0.250000      0.250000     0.000000    Fractional   0.00
     40 x          0.500000      0.500000     0.000000    Fractional   0.00
     40 y          0.500000      0.500000     0.000000    Fractional   0.00
     40 z          0.750000      0.750000     0.000000    Fractional   0.00
     41 x          0.000000      0.000000     0.000000    Fractional   0.00
     41 y          0.000000      0.000000     0.000000    Fractional   0.00
     41 z          0.000000      0.000000     0.000000    Fractional   0.00
     42 x          0.000000      0.000000     0.000000    Fractional   0.00
     42 y          0.000000      0.000000     0.000000    Fractional   0.00
     42 z          0.500000      0.500000     0.000000    Fractional   0.00
     43 x          0.000000      1.000000     1.000000    Fractional   0.00
     43 y          0.500000      0.500000     0.000000    Fractional   0.00
     43 z          0.000000      1.000000     1.000000    Fractional   0.00
     44 x          0.000000      0.000000     0.000000    Fractional   0.00
     44 y          0.500000      0.500000     0.000000    Fractional   0.00
     44 z          0.500000      0.500000     0.000000    Fractional   0.00
     45 x          0.500000      0.500000     0.000000    Fractional   0.00
     45 y          0.000000      0.000000     0.000000    Fractional   0.00
     45 z          0.000000      1.000000     1.000000    Fractional   0.00
     46 x          0.500000      0.500000     0.000000    Fractional   0.00
     46 y          0.000000      0.000000     0.000000    Fractional   0.00
     46 z          0.500000      0.500000     0.000000    Fractional   0.00
     47 x          0.500000      0.500000     0.000000    Fractional   0.00
     47 y          0.500000      0.500000     0.000000    Fractional   0.00
     47 z          0.000000      1.000000     1.000000    Fractional   0.00
     48 x          0.500000      0.500000     0.000000    Fractional   0.00
     48 y          0.500000      0.500000     0.000000    Fractional   0.00
     48 z          0.500000      0.500000     0.000000    Fractional   0.00
     49 x          0.250000      0.250000     0.000000    Fractional   0.00
     49 y          0.250000      0.250000     0.000000    Fractional   0.00
     49 z          0.250000      0.250000     0.000000    Fractional   0.00
     50 x          0.250000      0.250000     0.000000    Fractional   0.00
     50 y          0.250000      0.250000     0.000000    Fractional   0.00
     50 z          0.750000      0.750000     0.000000    Fractional   0.00
     51 x          0.250000      0.250000     0.000000    Fractional   0.00
     51 y          0.750000      0.750000     0.000000    Fractional   0.00
     51 z          0.250000      0.250000     0.000000    Fractional   0.00
     52 x          0.250000      0.250000     0.000000    Fractional   0.00
     52 y          0.750000      0.750000     0.000000    Fractional   0.00
     52 z          0.750000      0.750000     0.000000    Fractional   0.00
     53 x          0.750000      0.750000     0.000000    Fractional   0.00
     53 y          0.250000      0.250000     0.000000    Fractional   0.00
     53 z          0.250000      0.250000     0.000000    Fractional   0.00
     54 x          0.750000      0.750000     0.000000    Fractional   0.00
     54 y          0.250000      0.250000     0.000000    Fractional   0.00
     54 z          0.750000      0.750000     0.000000    Fractional   0.00
     55 x          0.750000      0.750000     0.000000    Fractional   0.00
     55 y          0.750000      0.750000     0.000000    Fractional   0.00
     55 z          0.250000      0.250000     0.000000    Fractional   0.00
     56 x          0.750000      0.750000     0.000000    Fractional   0.00
     56 y          0.750000      0.750000     0.000000    Fractional   0.00
     56 z          0.750000      0.750000     0.000000    Fractional   0.00
--------------------------------------------------------------------------------


  Born effective charge tensors : 

-------------------------------------------------------------------------------
  Atom             x           y             z
-------------------------------------------------------------------------------
    1 O     x      -2.2939      0.0000     -0.0000
            y      -0.0000     -2.2939     -0.0000
            z      -0.0000     -0.0000     -2.2939
-------------------------------------------------------------------------------
    2 O     x      -2.2939      0.0000      0.0000
            y      -0.0000     -2.2939      0.0000
            z       0.0000      0.0000     -2.2939
-------------------------------------------------------------------------------
    3 O     x      -2.2939     -0.0000      0.0000
            y       0.0000     -2.2939      0.0000
            z       0.0000      0.0000     -2.2939
-------------------------------------------------------------------------------
    4 O     x      -2.2939     -0.0000      0.0000
            y       0.0000     -2.2939     -0.0000
            z       0.0000     -0.0000     -2.2939
-------------------------------------------------------------------------------
    5 O     x      -2.2939     -0.0000      0.0000
            y       0.0000     -2.2939     -0.0000
            z       0.0000     -0.0000     -2.2939
-------------------------------------------------------------------------------
    6 O     x      -2.2939     -0.0000      0.0000
            y       0.0000     -2.2939     -0.0000
            z       0.0000      0.0000     -2.2939
-------------------------------------------------------------------------------
    7 O     x      -2.2939      0.0000      0.0000
            y      -0.0000     -2.2939      0.0000
            z       0.0000     -0.0000     -2.2939
-------------------------------------------------------------------------------
    8 O     x      -2.2939      0.0000      0.0000
            y      -0.0000     -2.2939     -0.0000
            z       0.0000     -0.0000     -2.2939
-------------------------------------------------------------------------------
    9 Cl    x      -0.9918      0.0000     -0.0000
            y       0.0000     -0.9918     -0.0000
            z      -0.0000     -0.0000     -0.9918
-------------------------------------------------------------------------------
   10 Cl    x      -0.9918      0.0000      0.0000
            y       0.0000     -0.9918      0.0000
            z       0.0000      0.0000     -0.9918
-------------------------------------------------------------------------------
   11 Cl    x      -0.9918     -0.0000     -0.0000
            y      -0.0000     -0.9918     -0.0000
            z      -0.0000     -0.0000     -0.9918
-------------------------------------------------------------------------------
   12 Cl    x      -0.9918      0.0000      0.0000
            y       0.0000     -0.9918     -0.0000
            z       0.0000     -0.0000     -0.9918
-------------------------------------------------------------------------------
   13 Cl    x      -0.9918      0.0000     -0.0000
            y      -0.0000     -0.9918      0.0000
            z       0.0000      0.0000     -0.9918
-------------------------------------------------------------------------------
   14 Cl    x      -0.9918      0.0000     -0.0000
            y       0.0000     -0.9918      0.0000
            z      -0.0000      0.0000     -0.9918
-------------------------------------------------------------------------------
   15 Cl    x      -0.9918      0.0000     -0.0000
            y       0.0000     -0.9918     -0.0000
            z      -0.0000     -0.0000     -0.9918
-------------------------------------------------------------------------------
   16 Cl    x      -0.9918      0.0000      0.0000
            y       0.0000     -0.9918      0.0000
            z       0.0000      0.0000     -0.9918
-------------------------------------------------------------------------------
   17 Na    x       0.8372     -0.0000      0.0000
            y      -0.0000      1.2243      0.0000
            z       0.0000      0.0000      1.2243
-------------------------------------------------------------------------------
   18 Na    x       0.8372     -0.0000      0.0000
            y      -0.0000      1.2243     -0.0000
            z      -0.0000      0.0000      1.2243
-------------------------------------------------------------------------------
   19 Na    x       0.8372     -0.0000      0.0000
            y      -0.0000      1.2243     -0.0000
            z       0.0000     -0.0000      1.2243
-------------------------------------------------------------------------------
   20 Na    x       0.8372     -0.0000      0.0000
            y      -0.0000      1.2243      0.0000
            z       0.0000      0.0000      1.2243
-------------------------------------------------------------------------------
   21 Na    x       0.8372     -0.0000      0.0000
            y       0.0000      1.2243     -0.0000
            z       0.0000      0.0000      1.2243
-------------------------------------------------------------------------------
   22 Na    x       0.8372      0.0000      0.0000
            y       0.0000      1.2243      0.0000
            z       0.0000      0.0000      1.2243
-------------------------------------------------------------------------------
   23 Na    x       0.8372     -0.0000     -0.0000
            y      -0.0000      1.2243      0.0000
            z      -0.0000     -0.0000      1.2243
-------------------------------------------------------------------------------
   24 Na    x       0.8372     -0.0000      0.0000
            y      -0.0000      1.2243      0.0000
            z       0.0000      0.0000      1.2243
-------------------------------------------------------------------------------
   25 Na    x       1.2243     -0.0000     -0.0000
            y      -0.0000      0.8372     -0.0000
            z      -0.0000     -0.0000      1.2243
-------------------------------------------------------------------------------
   26 Na    x       1.2243     -0.0000     -0.0000
            y      -0.0000      0.8372     -0.0000
            z      -0.0000     -0.0000      1.2243
-------------------------------------------------------------------------------
   27 Na    x       1.2243      0.0000     -0.0000
            y       0.0000      0.8372      0.0000
            z      -0.0000      0.0000      1.2243
-------------------------------------------------------------------------------
   28 Na    x       1.2243      0.0000     -0.0000
            y       0.0000      0.8372     -0.0000
            z      -0.0000     -0.0000      1.2243
-------------------------------------------------------------------------------
   29 Na    x       1.2243      0.0000     -0.0000
            y      -0.0000      0.8372     -0.0000
            z      -0.0000     -0.0000      1.2243
-------------------------------------------------------------------------------
   30 Na    x       1.2243     -0.0000     -0.0000
            y      -0.0000      0.8372     -0.0000
            z      -0.0000     -0.0000      1.2243
-------------------------------------------------------------------------------
   31 Na    x       1.2243     -0.0000     -0.0000
            y      -0.0000      0.8372      0.0000
            z      -0.0000      0.0000      1.2243
-------------------------------------------------------------------------------
   32 Na    x       1.2243     -0.0000     -0.0000
            y      -0.0000      0.8372     -0.0000
            z      -0.0000     -0.0000      1.2243
-------------------------------------------------------------------------------
   33 Na    x       1.2243     -0.0000      0.0000
            y       0.0000      1.2243     -0.0000
            z       0.0000      0.0000      0.8372
-------------------------------------------------------------------------------
   34 Na    x       1.2243     -0.0000     -0.0000
            y       0.0000      1.2243     -0.0000
            z      -0.0000     -0.0000      0.8372
-------------------------------------------------------------------------------
   35 Na    x       1.2243      0.0000      0.0000
            y      -0.0000      1.2243     -0.0000
            z       0.0000      0.0000      0.8372
-------------------------------------------------------------------------------
   36 Na    x       1.2243      0.0000      0.0000
            y      -0.0000      1.2243      0.0000
            z       0.0000      0.0000      0.8372
-------------------------------------------------------------------------------
   37 Na    x       1.2243      0.0000      0.0000
            y      -0.0000      1.2243     -0.0000
            z       0.0000     -0.0000      0.8372
-------------------------------------------------------------------------------
   38 Na    x       1.2243      0.0000      0.0000
            y      -0.0000      1.2243     -0.0000
            z       0.0000     -0.0000      0.8372
-------------------------------------------------------------------------------
   39 Na    x       1.2243     -0.0000      0.0000
            y       0.0000      1.2243     -0.0000
            z       0.0000     -0.0000      0.8372
-------------------------------------------------------------------------------
   40 Na    x       1.2243     -0.0000      0.0000
            y       0.0000      1.2243      0.0000
            z       0.0000      0.0000      0.8372
-------------------------------------------------------------------------------




  Elastic Constant Matrix: (Units=GPa)

-------------------------------------------------------------------------------
  Indices      1         2         3         4         5         6    
-------------------------------------------------------------------------------
       1     82.7680   24.3534   24.3534   -0.0000    0.0000   -0.0000
       2     24.3534   82.7680   24.3534   -0.0000   -0.0000    0.0000
       3     24.3534   24.3534   82.7680   -0.0000    0.0000    0.0000
       4     -0.0000   -0.0000   -0.0000   24.3534    0.0000   -0.0000
       5      0.0000   -0.0000    0.0000    0.0000   24.3534   -0.0000
       6     -0.0000    0.0000    0.0000   -0.0000   -0.0000   24.3534
-------------------------------------------------------------------------------


  Elastic Compliance Matrix: (Units=1/GPa)

-------------------------------------------------------------------------------
  Indices      1         2         3         4         5         6    
-------------------------------------------------------------------------------
       1    0.013948 -0.003171 -0.003171 -0.000000 -0.000000  0.000000
       2   -0.003171  0.013948 -0.003171  0.000000  0.000000 -0.000000
       3   -0.003171 -0.003171  0.013948  0.000000 -0.000000 -0.000000
       4   -0.000000  0.000000  0.000000  0.041062 -0.000000  0.000000
       5   -0.000000  0.000000 -0.000000 -0.000000  0.041062  0.000000
       6    0.000000 -0.000000 -0.000000  0.000000  0.000000  0.041062
-------------------------------------------------------------------------------

  Mechanical properties :

-------------------------------------------------------------------------------
  Convention :                    Reuss         Voigt         Hill
-------------------------------------------------------------------------------
  Bulk  Modulus (GPa)     =      43.82493      43.82493      43.82493
  Shear Modulus (GPa)     =      26.08758      26.29496      26.19127
-------------------------------------------------------------------------------
  Velocity S-wave (km/s)  =       3.34035       3.35360       3.34698
  Velocity P-wave (km/s)  =       5.79842       5.80861       5.80351
-------------------------------------------------------------------------------
  Compressibility (1/GPa) =    0.02281806
-------------------------------------------------------------------------------
  Stress axis :                     x             y             z
-------------------------------------------------------------------------------
  Youngs Moduli (GPa)     =      71.69479      71.69479      71.69479
-------------------------------------------------------------------------------
  Poissons Ratio (x)      =                     0.22734       0.22734
  Poissons Ratio (y)      =       0.22734                     0.22734
  Poissons Ratio (z)      =       0.22734       0.22734
-------------------------------------------------------------------------------


  Piezoelectric Strain Matrix: (Units=C/m**2)

-------------------------------------------------------------------------------
  Indices      1         2         3         4         5         6    
-------------------------------------------------------------------------------
       x    -0.00000   0.00000   0.00000   0.00000   0.00000   0.00000
       y     0.00000   0.00000   0.00000   0.00000   0.00000   0.00000
       z     0.00000  -0.00000   0.00000   0.00000   0.00000   0.00000
-------------------------------------------------------------------------------


  Piezoelectric Stress Matrix: (Units=10**-11 C/N)

-------------------------------------------------------------------------------
  Indices      1         2         3         4         5         6    
-------------------------------------------------------------------------------
       x    -0.00000   0.00000   0.00000   0.00000   0.00000   0.00000
       y     0.00000   0.00000   0.00000   0.00000   0.00000   0.00000
       z     0.00000  -0.00000   0.00000   0.00000   0.00000   0.00000
-------------------------------------------------------------------------------


  Static dielectric constant tensor : 

-------------------------------------------------------------------------------
              x         y         z
-------------------------------------------------------------------------------
       x    11.08357  -0.00000  -0.00000
       y    -0.00000  11.08357  -0.00000
       z    -0.00000  -0.00000  11.08357
--------------------------------------------------------------------------------

  High frequency dielectric constant tensor : 

-------------------------------------------------------------------------------
              x         y         z
-------------------------------------------------------------------------------
       x     1.50771  -0.00000   0.00000
       y    -0.00000   1.50771  -0.00000
       z     0.00000  -0.00000   1.50771
-------------------------------------------------------------------------------

  Static refractive indices : 

-------------------------------------------------------------------------------
    1 =    3.32920      2 =    3.32920      3 =    3.32920
-------------------------------------------------------------------------------

  High frequency refractive indices : 

-------------------------------------------------------------------------------
    1 =    1.22789      2 =    1.22789      3 =    1.22789
-------------------------------------------------------------------------------


  Time to end of optimisation =       0.5575 seconds

********************************************************************************
*  Defect calculation for configuration   1 :                                  *
********************************************************************************

  Total number of defects =      2

  Total charge on defect  =  -0.00

  Defect centre is at   0.5000   0.2500   0.5000  Frac

  Region 1 radius =  12.0000      Number of ions =    589

  Region 2 radius =  16.0000      Number of ions =    782

  Region 2a mode = 4 : screened electrostatics due to region 1 
                       neglect correction to region 1 forces from 2a
                       region 2a displacements based on defects only

  Region 2a ions will only interact with defects in region 1

  **** Warning - radius of region 1 + 2a is too small for region 2b energy ****
  **** to be valid. Ideally r2 should be greater than  17.40 Angstroms     ****

  Vacancies:

--------------------------------------------------------------------------------
    Specification type     Symbol/Number         x          y          z
--------------------------------------------------------------------------------
    Fractional                               0.250000   0.000000   0.000000
--------------------------------------------------------------------------------

  Impurities:

--------------------------------------------------------------------------------
    Specification type     Symbol/Number         x          y          z
--------------------------------------------------------------------------------
    Frac/Symbol             Ca               0.750000   0.500000   1.000000
--------------------------------------------------------------------------------


  Components of defect energy : 

--------------------------------------------------------------------------------
  Region 1 - region 1                   =     -1.69980758 eV
  Region 1 - region 2a (unrelaxed)      =      0.00000263 eV
  Region 1 - 2a (relaxed - correction)  =     -0.19251644 eV
  Region 1 (Total)                      =     -1.89232139 eV
  Region 2a                             =      0.09625904 eV
  Region 2b                             =      0.00000000 eV
--------------------------------------------------------------------------------
  Total defect energy                   =     -1.79606235 eV
--------------------------------------------------------------------------------

  Largest displacement in region 2 =   0.0334 Angstroms


  Number of variables =     1761

  Maximum number of calculations  =        1000
  Maximum Hessian update interval =          10
  Maximum step size               =   1.0000000
  Maximum parameter tolerance     =   0.0000100
  Maximum function  tolerance     =   0.0000100
  Maximum gradient  tolerance     =   0.0010000

  Symmetry adapted optimisation

  Newton-Raphson optimiser to be used

  BFGS hessian update to be used

  Lower half triangular hessian to be used

  Start of defect optimisation :

  Cycle:      0 Defect Energy:  -1.796062  Gnorm:     0.009613  CPU:   68.423
  ** Hessian calculated **
  Cycle:      1 Defect Energy:  -3.485124  Gnorm:     0.006769  CPU:  137.960
  Cycle:      2 Defect Energy:  -4.960137  Gnorm:     0.004473  CPU:  143.864
  Cycle:      3 Defect Energy:  -5.762507  Gnorm:     0.002279  CPU:  148.668
  Cycle:      4 Defect Energy:  -5.988427  Gnorm:     0.001398  CPU:  152.600
  Cycle:      5 Defect Energy:  -6.024157  Gnorm:     0.001128  CPU:  153.915
  Cycle:      6 Defect Energy:  -6.056666  Gnorm:     0.000958  CPU:  155.323
  Cycle:      7 Defect Energy:  -6.093722  Gnorm:     0.000879  CPU:  156.625
  Cycle:      8 Defect Energy:  -6.129905  Gnorm:     0.000838  CPU:  157.884
  Cycle:      9 Defect Energy:  -6.168505  Gnorm:     0.000844  CPU:  159.156
  Cycle:     10 Defect Energy:  -6.206316  Gnorm:     0.000849  CPU:  160.562
  ** Hessian calculated **
  Cycle:     11 Defect Energy:  -6.341051  Gnorm:     0.000676  CPU:  221.878
  Cycle:     12 Defect Energy:  -6.459540  Gnorm:     0.000467  CPU:  222.968
  Cycle:     13 Defect Energy:  -6.515101  Gnorm:     0.000323  CPU:  224.073
  Cycle:     14 Defect Energy:  -6.541591  Gnorm:     0.000225  CPU:  225.177
  Cycle:     15 Defect Energy:  -6.554395  Gnorm:     0.000157  CPU:  226.282
  Cycle:     16 Defect Energy:  -6.560595  Gnorm:     0.000109  CPU:  227.394
  Cycle:     17 Defect Energy:  -6.563581  Gnorm:     0.000076  CPU:  228.498
  Cycle:     18 Defect Energy:  -6.565004  Gnorm:     0.000053  CPU:  229.620
  Cycle:     19 Defect Energy:  -6.565671  Gnorm:     0.000037  CPU:  230.731
  Cycle:     20 Defect Energy:  -6.565974  Gnorm:     0.000026  CPU:  231.836
  ** Hessian calculated **
  Cycle:     21 Defect Energy:  -6.566107  Gnorm:     0.000018  CPU:  289.995
  Cycle:     22 Defect Energy:  -6.566160  Gnorm:     0.000013  CPU:  290.856
  Cycle:     23 Defect Energy:  -6.566178  Gnorm:     0.000009  CPU:  291.734


  **** Optimisation achieved ****


  Final defect energy  =       -6.56618048
  Final defect Gnorm   =        0.00000625

  Components of defect energy : 

--------------------------------------------------------------------------------
  Region 1 - region 1                   =     -6.57319719 eV
  Region 1 - region 2a (unrelaxed)      =      0.02850177 eV
  Region 1 - 2a (relaxed - correction)  =     -0.04289813 eV
  Region 1 (Total)                      =     -6.58759355 eV
  Region 2a                             =      0.02141307 eV
  Region 2b                             =      0.00000000 eV
--------------------------------------------------------------------------------
  Total defect energy                   =     -6.56618048 eV
--------------------------------------------------------------------------------

  Largest displacement in region 2 =   0.0334 Angstroms

  Final coordinates of region 1 :

--------------------------------------------------------------------------------
   No.  Atomic        x           y           z          Radius      Charge
        Label       (Angs)      (Angs)      (Angs)       (Angs)       (e) 
--------------------------------------------------------------------------------
     1  Na    c     4.416369    2.193434    4.424002    0.000000    1.000000
     2  O     c     4.400969    0.002192    4.437750    0.000000    0.183000
     3  O     c     4.409839    4.414006    4.383811    0.000000    0.183000
     4  Na    c     2.207560   -0.014291    4.263001    0.000000    1.000000
     5  Na    c     2.186504    4.365955    4.282462    0.000000    1.000000
     6  Cl    c     6.733608    2.315529    6.561126    0.000000    1.485000
     7  Na    c     4.524767   -0.004250    2.219591    0.000000    1.000000
     8  Na    c     4.472342    4.376813    2.188406    0.000000    1.000000
     9  Cl    c     2.242641    2.361086    6.561899    0.000000    1.485000
    10  Cl    c     6.619257    2.221055    2.201171    0.000000    1.485000
    11  Cl    c     2.221989    2.214965    2.195409    0.000000    1.485000
    12  Na    c     4.158669   -0.057108    6.689219    0.000000    1.000000
    13  Na    c     4.201577    4.399827    6.543365    0.000000    1.000000
    14  Na    c     6.593686   -0.045614    4.574242    0.000000    1.000000
    15  Na    c     6.616404    4.403688    4.445170    0.000000    1.000000
    16  Na    c     8.775347    2.197785    4.357576    0.000000    1.000000
    17  Na    c     4.008672    2.017954    8.810021    0.000000    1.000000
    18  Na    c     4.387286   -2.209211    4.421327    0.000000    1.000000
    19  Na    c     4.389306    6.610723    4.355195    0.000000    1.000000
    20  Na    c     4.376536    2.197617   -0.007698    0.000000    1.000000
    21  Na    c    -0.036483    2.195862    4.452815    0.000000    1.000000
    22  O     c     0.027263    0.006182    4.444472    0.000000    0.183000
    23  O     c     4.575868   -0.013907    8.802939    0.000000    0.183000
    24  O     c     4.513011    4.412623    8.811644    0.000000    0.183000
    25  O     c    -0.007254    4.410146    4.391687    0.000000    0.183000
    26  O     c     8.835645    4.420127    4.367663    0.000000    0.183000
    27  O     c     8.811127    0.000711    4.409952    0.000000    0.183000
    28  O     c     4.411187    0.000869    0.009858    0.000000    0.183000
    29  O     c     4.408628    4.406688   -0.007747    0.000000    0.183000
    30  Na    c     2.185806    4.436225    8.825499    0.000000    1.000000
    31  Na    c     2.201411   -0.020531    0.110669    0.000000    1.000000
    32  Na    c     2.199973    4.413640    0.045066    0.000000    1.000000
    33  Na    c     9.001394    4.371407    6.526384    0.000000    1.000000
    34  Na    c     8.889744   -0.036101    6.602371    0.000000    1.000000
    35  Na    c     0.278182   -0.022527    6.708354    0.000000    1.000000
    36  Cl    c     6.623931    6.610735    6.645806    0.000000    1.485000
    37  Cl    c     6.710382   -2.245415    6.545868    0.000000    1.485000
    38  Na    c    -0.082349    4.376003    2.196462    0.000000    1.000000
    39  Na    c    -0.123697   -0.000537    2.230664    0.000000    1.000000
    40  Ca    c     6.608853    4.405902    8.811805    0.000000   -1.135000
    41  Na    c     0.004941    4.379036    6.604225    0.000000    1.000000
    42  Cl    c     6.621502    6.628492    2.211060    0.000000    1.485000
    43  Cl    c     2.218791   -2.293874    6.500074    0.000000    1.485000
    44  Cl    c     6.617200   -2.191014    2.195805    0.000000    1.485000
    45  Cl    c     2.220087   -2.188234    2.190283    0.000000    1.485000
    46  Cl    c     2.257113    6.595145    6.666057    0.000000    1.485000
    47  Cl    c     2.216551    6.626291    2.207069    0.000000    1.485000
    48  Na    c     8.704200   -0.029325    2.206348    0.000000    1.000000
    49  Na    c     8.743470    4.414006    2.175775    0.000000    1.000000
    50  Na    c     6.606281    4.381632   -0.078595    0.000000    1.000000
    51  Na    c     6.606119    0.000436   -0.082248    0.000000    1.000000
    52  Na    c     6.658695   -0.044717    8.770923    0.000000    1.000000
    53  Na    c     8.820384    2.197898    0.004140    0.000000    1.000000
    54  Na    c     0.002724   -2.201817    4.447888    0.000000    1.000000
    55  Na    c    -0.016022    6.601209    4.387054    0.000000    1.000000
    56  Na    c     8.995032    2.132722    8.811073    0.000000    1.000000
    57  Na    c     4.400097   -2.205322    0.019856    0.000000    1.000000
    58  Na    c     4.407653    6.606921   -0.000394    0.000000    1.000000
    59  Na    c     4.133350   -2.125014    8.816873    0.000000    1.000000
    60  Na    c     4.206478    6.678400    8.808123    0.000000    1.000000
    61  Na    c     0.012417    2.197332   -0.000503    0.000000    1.000000
    62  Na    c     8.795722   -2.216665    4.410719    0.000000    1.000000
    63  Na    c     8.819242    6.615570    4.365006    0.000000    1.000000
    64  Na    c     0.129685    2.112293    8.814156    0.000000    1.000000
    65  O     c     8.709579    4.417787    8.811229    0.000000    0.183000
    66  O     c     8.808630   -0.000026   -0.000342    0.000000    0.183000
    67  O     c    -0.153388   -0.005826    8.806129    0.000000    0.183000
    68  O     c     0.021263    4.384789    8.810149    0.000000    0.183000
    69  O     c     8.811605    4.407199   -0.013077    0.000000    0.183000
    70  O     c    -0.000791    0.000726    0.015385    0.000000    0.183000
    71  O     c     8.874576   -0.020157    8.809305    0.000000    0.183000
    72  O     c    -0.000982    4.406172   -0.001205    0.000000    0.183000
    73  O     c     4.415557   -4.412172    4.401928    0.000000    0.183000
    74  O     c     4.408189    8.814553    4.402013    0.000000    0.183000
    75  Na    c     6.611696   -4.404034    4.403096    0.000000    1.000000
    76  Na    c     6.606165    8.823552    4.356236    0.000000    1.000000
    77  Na    c    11.032382    4.391303    4.261346    0.000000    1.000000
    78  Na    c    11.008714   -0.019267    4.325597    0.000000    1.000000
    79  Na    c     4.220545   -0.056101   10.928972    0.000000    1.000000
    80  Cl    c     2.246751    2.364203   11.057141    0.000000    1.485000
    81  Na    c     4.222354    4.386081   11.077137    0.000000    1.000000
    82  Cl    c     6.726795    2.317039   11.061346    0.000000    1.485000
    83  Cl    c    -2.251846    2.287717    6.544733    0.000000    1.485000
    84  Na    c     4.408643   -4.379492    6.613590    0.000000    1.000000
    85  Cl    c     2.210407    2.211388   -2.204424    0.000000    1.485000
    86  Cl    c    11.031536    2.215887    2.206373    0.000000    1.485000
    87  Cl    c    11.006755    2.272525    6.667719    0.000000    1.485000
    88  Cl    c    -2.191306    2.218866    2.184787    0.000000    1.485000
    89  Na    c     4.408840    8.833048    6.599258    0.000000    1.000000
    90  Na    c     4.334111   -0.016877   -2.195734    0.000000    1.000000
    91  Na    c     4.356469    4.404886   -2.208073    0.000000    1.000000
    92  Cl    c     6.618056    2.210366   -2.205536    0.000000    1.485000
    93  Na    c     4.387797   -4.420245    2.208073    0.000000    1.000000
    94  Na    c     4.380631    8.821321    2.193108    0.000000    1.000000
    95  Na    c    -2.178845   -0.021074    4.604274    0.000000    1.000000
    96  Na    c    -2.215169    4.399589    4.441910    0.000000    1.000000
    97  Na    c     2.200286   -4.412101    4.441926    0.000000    1.000000
    98  Na    c     2.200297    8.821997    4.402235    0.000000    1.000000
    99  Na    c    -0.049061    6.596243    8.816255    0.000000    1.000000
   100  Na    c     0.241321   -2.122228    8.822194    0.000000    1.000000
   101  Na    c    -0.006053   -2.203577    0.023784    0.000000    1.000000
   102  Na    c    -0.017144    6.605900    0.004416    0.000000    1.000000
   103  Na    c     9.005361    6.674969    8.799266    0.000000    1.000000
   104  Na    c     8.829798   -2.221498    8.801090    0.000000    1.000000
   105  Na    c     8.800452    6.608945   -0.027561    0.000000    1.000000
   106  Na    c     8.801464   -2.206217   -0.002857    0.000000    1.000000
   107  O     c     4.386423   -4.378520    8.812019    0.000000    0.183000
   108  O     c    -0.005293   -4.409861    4.404404    0.000000    0.183000
   109  O     c     4.406597   -4.406524    0.000961    0.000000    0.183000
   110  O     c     0.005902    8.807686    4.408983    0.000000    0.183000
   111  O     c     8.822569   -4.418408    4.394826    0.000000    0.183000
   112  O     c     4.397721    8.833518    8.809728    0.000000    0.183000
   113  O     c     8.812417    8.814325    4.402727    0.000000    0.183000
   114  O     c     4.406264    8.813332   -0.003272    0.000000    0.183000
   115  Na    c     6.606370   -4.412558    0.011226    0.000000    1.000000
   116  Na    c     6.606798    8.811875   -0.001577    0.000000    1.000000
   117  Na    c     6.606066    8.791865    8.811799    0.000000    1.000000
   118  Na    c     6.580270   -4.278123    8.823284    0.000000    1.000000
   119  Na    c    11.035495    4.399046    8.809840    0.000000    1.000000
   120  Na    c    11.056563   -0.106499    8.839078    0.000000    1.000000
   121  Na    c    11.010095   -0.018298    0.047247    0.000000    1.000000
   122  Na    c    11.015478    4.407437    0.015699    0.000000    1.000000
   123  Na    c     0.002599   -4.407958    2.211685    0.000000    1.000000
   124  Na    c    -0.000310    8.808266    2.201446    0.000000    1.000000
   125  Na    c     8.842218    4.389065   -2.211959    0.000000    1.000000
   126  Na    c     8.854057   -0.003005   -2.203896    0.000000    1.000000
   127  Na    c     8.819548    8.812841    2.191093    0.000000    1.000000
   128  Na    c     8.816372   -4.420596    2.199521    0.000000    1.000000
   129  Na    c     0.050833   -0.015236   -2.193048    0.000000    1.000000
   130  Na    c    -0.030747    4.361058   11.016428    0.000000    1.000000
   131  Cl    c     6.628391    6.610729   10.983197    0.000000    1.485000
   132  Na    c     0.191702   -0.025270   10.924821    0.000000    1.000000
   133  Cl    c     2.222093   -2.288502   11.122839    0.000000    1.485000
   134  Cl    c     2.264419    6.595855   10.961277    0.000000    1.485000
   135  Cl    c     6.705317   -2.235616   11.076864    0.000000    1.485000
   136  Cl    c     2.210273   -2.197005   -2.206106    0.000000    1.485000
   137  Cl    c    11.050519   -2.180209    6.610853    0.000000    1.485000
   138  Cl    c    11.025882   -2.188471    2.204185    0.000000    1.485000
   139  Cl    c    11.027643    6.624809    2.210773    0.000000    1.485000
   140  Cl    c     2.210164    6.617418   -2.201744    0.000000    1.485000
   141  Na    c     0.023745    4.403294   -2.202990    0.000000    1.000000
   142  Cl    c    10.986688    6.573191    6.668860    0.000000    1.485000
   143  Cl    c    -2.269240   -2.262856    6.541983    0.000000    1.485000
   144  Cl    c    -2.177302    6.638289    6.603964    0.000000    1.485000
   145  Cl    c    -2.194247    6.628052    2.196248    0.000000    1.485000
   146  Cl    c    -2.190160   -2.195719    2.184366    0.000000    1.485000
   147  Cl    c     6.617278   -2.194999   -2.205705    0.000000    1.485000
   148  Cl    c     6.616181    6.616680   -2.201268    0.000000    1.485000
   149  Na    c     8.805146   -0.054614   11.015327    0.000000    1.000000
   150  Na    c     8.979426    4.375022   11.084277    0.000000    1.000000
   151  Na    c     8.774056   -4.424264    6.605532    0.000000    1.000000
   152  Na    c     8.786483    8.842119    6.598192    0.000000    1.000000
   153  Na    c    -0.035138    8.796834    6.608199    0.000000    1.000000
   154  Na    c    -0.029454   -4.375545    6.617673    0.000000    1.000000
   155  Na    c    -2.207236    4.382232   -0.034264    0.000000    1.000000
   156  Na    c    -2.202256   -0.000315   -0.047929    0.000000    1.000000
   157  Na    c    -2.238881   -0.064894    8.790824    0.000000    1.000000
   158  Na    c    -2.187126    4.292028    8.798489    0.000000    1.000000
   159  Na    c     2.197973   -4.521278    8.807471    0.000000    1.000000
   160  Na    c     2.178077    8.896910    8.800345    0.000000    1.000000
   161  Na    c     2.199743    8.800162   -0.017748    0.000000    1.000000
   162  Na    c     2.201193   -4.412194   -0.000549    0.000000    1.000000
   163  Na    c    -4.380785    2.201443    4.405784    0.000000    1.000000
   164  Na    c     4.417776    2.199478   -4.398819    0.000000    1.000000
   165  Na    c     4.407195    2.187981   13.207955    0.000000    1.000000
   166  Na    c     4.406217   -6.609468    4.423456    0.000000    1.000000
   167  Na    c     4.399469   11.019390    4.395259    0.000000    1.000000
   168  Na    c    13.232185    2.200241    4.400535    0.000000    1.000000
   169  O     c     4.398439   -0.001764   13.188028    0.000000    0.183000
   170  O     c     4.406532    4.409988   13.235861    0.000000    0.183000
   171  O     c    -4.394645    0.000682    4.417554    0.000000    0.183000
   172  O     c    13.224573    4.406670    4.392837    0.000000    0.183000
   173  O     c    13.215670    0.005491    4.404201    0.000000    0.183000
   174  O     c    -4.412985    4.415558    4.396943    0.000000    0.183000
   175  O     c     4.404237   -0.000850   -4.402508    0.000000    0.183000
   176  O     c     4.404907    4.405677   -4.407560    0.000000    0.183000
   177  O     c     8.807987   -4.403010    8.811761    0.000000    0.183000
   178  O     c     8.813365   -4.405550   -0.002081    0.000000    0.183000
   179  O     c     0.018963   -4.380760    8.813514    0.000000    0.183000
   180  O     c     8.824231    8.832486    8.809341    0.000000    0.183000
   181  O     c     8.812790    8.813964   -0.004752    0.000000    0.183000
   182  O     c    -0.007476    8.816768    8.810540    0.000000    0.183000
   183  O     c     0.000652    8.812778   -0.000848    0.000000    0.183000
   184  O     c     0.001643   -4.404974    0.002416    0.000000    0.183000
   185  Na    c    -2.207752   -4.397513    4.410276    0.000000    1.000000
   186  Na    c    -2.206148    8.793338    4.399909    0.000000    1.000000
   187  Na    c     2.201512    4.387920   -4.429859    0.000000    1.000000
   188  Na    c     2.203060    0.003847   -4.433787    0.000000    1.000000
   189  Na    c     2.205436   -0.036347   13.270531    0.000000    1.000000
   190  Na    c     2.184785    4.365907   13.286411    0.000000    1.000000
   191  Na    c    13.267483    4.386719    2.188579    0.000000    1.000000
   192  Na    c    -4.412076    4.376500    6.607878    0.000000    1.000000
   193  Na    c    13.240744   -0.002261    2.200107    0.000000    1.000000
   194  Na    c    -4.462481   -0.004545    6.613552    0.000000    1.000000
   195  Cl    c    11.008466    2.278725   10.966644    0.000000    1.485000
   196  Cl    c    -2.239121    2.282788   11.065524    0.000000    1.485000
   197  Cl    c    11.020109    2.210629   -2.199262    0.000000    1.485000
   198  Na    c     4.405392   -4.407038   -2.200491    0.000000    1.000000
   199  Na    c     4.406807    8.801716   -2.206711    0.000000    1.000000
   200  Na    c    -4.333944   -0.017224    2.217245    0.000000    1.000000
   201  Cl    c     6.618351   -6.615262    6.603157    0.000000    1.485000
   202  Cl    c    -2.197062    2.209648   -2.208633    0.000000    1.485000
   203  Na    c     4.385193   -4.390192   11.013790    0.000000    1.000000
   204  Cl    c     2.216233   -6.622363    6.605001    0.000000    1.485000
   205  Cl    c     6.620758   11.008943    6.615373    0.000000    1.485000
   206  Na    c    13.209166   -0.026686    6.603336    0.000000    1.000000
   207  Cl    c     6.622721   -6.609127    2.189923    0.000000    1.485000
   208  Na    c    -4.404464    4.408843    2.200630    0.000000    1.000000
   209  Cl    c     2.213322   -6.609561    2.189306    0.000000    1.485000
   210  Cl    c     2.216070   11.015933    6.613863    0.000000    1.485000
   211  Cl    c     6.618626   11.015288    2.214702    0.000000    1.485000
   212  Na    c     4.388889    8.832372   11.016451    0.000000    1.000000
   213  Cl    c     2.215238   11.018508    2.211603    0.000000    1.485000
   214  Na    c    13.209099    4.403693    6.596866    0.000000    1.000000
   215  Na    c     6.613473    4.385830   13.209269    0.000000    1.000000
   216  Na    c     6.592382   -0.045887   13.140135    0.000000    1.000000
   217  Na    c     6.607728   -0.014522   -4.371266    0.000000    1.000000
   218  Na    c     6.607987    4.410536   -4.391816    0.000000    1.000000
   219  Na    c    11.014217   -4.426168    4.410711    0.000000    1.000000
   220  Na    c    11.014182    8.826130    4.392892    0.000000    1.000000
   221  Na    c    -4.411001    2.192309    8.824752    0.000000    1.000000
   222  Na    c    -4.418360    2.198755    0.023197    0.000000    1.000000
   223  Na    c    13.204642   -2.207720    4.402758    0.000000    1.000000
   224  Na    c    13.229546    6.605398    4.379315    0.000000    1.000000
[...]
    508 y          0.000000     -0.004690    -0.004690    Cartesian *******
    508 z          8.811805      8.809175    -0.002629    Cartesian   -0.03
    509 x         -4.405902     -4.400541     0.005361    Cartesian   -0.12
    509 y          4.405902      4.398101    -0.007801    Cartesian   -0.18
    509 z          8.811805      8.810247    -0.001558    Cartesian   -0.02
    510 x         -4.405902     -4.401257     0.004645    Cartesian   -0.11
    510 y          0.000000      0.000506     0.000506    Cartesian *******
    510 z         -0.000000     -0.001395    -0.001395    Cartesian *******
    511 x          0.000000     -0.004044    -0.004044    Cartesian *******
    511 y          4.405902      4.407975     0.002073    Cartesian    0.05
    511 z         13.217707     13.226742     0.009035    Cartesian    0.07
    512 x          0.000000      0.028670     0.028670    Cartesian *******
    512 y          0.000000      0.004334     0.004334    Cartesian *******
    512 z         13.217707     13.191726    -0.025980    Cartesian   -0.20
    513 x          0.000000      0.006473     0.006473    Cartesian *******
    513 y          0.000000      0.000314     0.000314    Cartesian *******
    513 z         -4.405902     -4.403724     0.002178    Cartesian   -0.05
    514 x          8.811805      8.838313     0.026508    Cartesian    0.30
    514 y          4.405902      4.417092     0.011189    Cartesian    0.25
    514 z         13.217707     13.240913     0.023206    Cartesian    0.18
    515 x         13.217707     13.218122     0.000415    Cartesian    0.00
    515 y          4.405902      4.410615     0.004713    Cartesian    0.11
    515 z          8.811805      8.809608    -0.002197    Cartesian   -0.02
    516 x         13.217707     13.233650     0.015943    Cartesian    0.12
    516 y          0.000000     -0.006490    -0.006490    Cartesian *******
    516 z          8.811805      8.812637     0.000832    Cartesian    0.01
    517 x         -4.405902     -4.406078    -0.000175    Cartesian    0.00
    517 y          4.405902      4.406304     0.000402    Cartesian    0.01
    517 z         -0.000000     -0.005180    -0.005180    Cartesian *******
    518 x          8.811805      8.816297     0.004492    Cartesian    0.05
    518 y          0.000000      0.000328     0.000328    Cartesian *******
    518 z         -4.405902     -4.405001     0.000901    Cartesian   -0.02
    519 x          8.811805      8.815648     0.003844    Cartesian    0.04
    519 y          4.405902      4.406151     0.000249    Cartesian    0.01
    519 z         -4.405902     -4.408184    -0.002282    Cartesian    0.05
    520 x          0.000000      0.002721     0.002721    Cartesian *******
    520 y          4.405902      4.405956     0.000053    Cartesian    0.00
    520 z         -4.405902     -4.406754    -0.000852    Cartesian    0.02
    521 x          8.811805      8.813796     0.001992    Cartesian    0.02
    521 y          0.000000     -0.000141    -0.000141    Cartesian *******
    521 z         13.217707     13.213319    -0.004388    Cartesian   -0.03
    522 x         13.217707     13.218620     0.000913    Cartesian    0.01
    522 y          0.000000      0.000282     0.000282    Cartesian *******
    522 z         -0.000000      0.004132     0.004132    Cartesian *******
    523 x         13.217707     13.221086     0.003379    Cartesian    0.03
    523 y          4.405902      4.406952     0.001049    Cartesian    0.02
    523 z         -0.000000     -0.001570    -0.001570    Cartesian *******
    524 x         11.014756     10.982135    -0.032621    Cartesian   -0.30
    524 y          6.608853      6.572231    -0.036622    Cartesian   -0.55
    524 z         11.014756     10.966618    -0.048138    Cartesian   -0.44
    525 x         11.014756     11.059193     0.044437    Cartesian    0.40
    525 y         -2.202951     -2.167954     0.034997    Cartesian   -1.59
    525 z         11.014756     11.013839    -0.000917    Cartesian   -0.01
    526 x         11.014756     11.021114     0.006358    Cartesian    0.06
    526 y         -2.202951     -2.193783     0.009169    Cartesian   -0.42
    526 z         -2.202951     -2.202697     0.000254    Cartesian   -0.01
    527 x         11.014756     11.020122     0.005366    Cartesian    0.05
    527 y          6.608853      6.617158     0.008305    Cartesian    0.13
    527 z         -2.202951     -2.195582     0.007369    Cartesian   -0.33
    528 x         -2.202951     -2.166666     0.036285    Cartesian   -1.65
    528 y          6.608853      6.651771     0.042918    Cartesian    0.65
    528 z         11.014756     11.014658    -0.000098    Cartesian   -0.00
    529 x         -2.202951     -2.266145    -0.063194    Cartesian    2.87
    529 y         -2.202951     -2.251631    -0.048680    Cartesian    2.21
    529 z         11.014756     11.072450     0.057695    Cartesian    0.52
    530 x         -2.202951     -2.196779     0.006172    Cartesian   -0.28
    530 y         -2.202951     -2.193099     0.009852    Cartesian   -0.45
    530 z         -2.202951     -2.211874    -0.008923    Cartesian    0.41
    531 x         -2.202951     -2.196485     0.006466    Cartesian   -0.29
    531 y          6.608853      6.618223     0.009369    Cartesian    0.14
    531 z         -2.202951     -2.204059    -0.001107    Cartesian    0.05
    532 x          4.405902      4.416509     0.010607    Cartesian    0.24
    532 y         -4.405902     -4.412960    -0.007058    Cartesian    0.16
    532 z         13.217707     13.221633     0.003926    Cartesian    0.03
    533 x         13.217707     13.218801     0.001094    Cartesian    0.01
    533 y         -4.405902     -4.405841     0.000061    Cartesian   -0.00
    533 z          4.405902      4.404751    -0.001152    Cartesian   -0.03
    534 x         -4.405902     -4.410918    -0.005016    Cartesian    0.11
    534 y         -4.405902     -4.415581    -0.009679    Cartesian    0.22
    534 z          4.405902      4.393626    -0.012277    Cartesian   -0.28
    535 x          4.405902      4.410635     0.004733    Cartesian    0.11
    535 y          8.811805      8.809674    -0.002130    Cartesian   -0.02
    535 z         13.217707     13.217791     0.000084    Cartesian    0.00
    536 x         -4.405902     -4.406601    -0.000699    Cartesian    0.02
    536 y          8.811805      8.812746     0.000942    Cartesian    0.01
    536 z          4.405902      4.406063     0.000160    Cartesian    0.00
    537 x         13.217707     13.215441    -0.002266    Cartesian   -0.02
    537 y          8.811805      8.807163    -0.004642    Cartesian   -0.05
    537 z          4.405902      4.412210     0.006308    Cartesian    0.14
    538 x          4.405902      4.407525     0.001623    Cartesian    0.04
    538 y         -4.405902     -4.405442     0.000461    Cartesian   -0.01
    538 z         -4.405902     -4.405721     0.000181    Cartesian   -0.00
    539 x          4.405902      4.407035     0.001132    Cartesian    0.03
    539 y          8.811805      8.811622    -0.000182    Cartesian   -0.00
    539 z         -4.405902     -4.407169    -0.001266    Cartesian    0.03
    540 x          4.405902      4.407922     0.002020    Cartesian    0.05
    540 y         -8.811805     -8.812636    -0.000832    Cartesian    0.01
    540 z          4.405902      4.404776    -0.001126    Cartesian   -0.03
    541 x          4.405902      4.407765     0.001862    Cartesian    0.04
    541 y         13.217707     13.219131     0.001424    Cartesian    0.01
    541 z          4.405902      4.406859     0.000957    Cartesian    0.02
    542 x          6.608853      6.618635     0.009782    Cartesian    0.15
    542 y          2.202951      2.214991     0.012040    Cartesian    0.55
    542 z         15.420658     15.418147    -0.002511    Cartesian   -0.02
    543 x         15.420658     15.415506    -0.005152    Cartesian   -0.03
    543 y          2.202951      2.211899     0.008948    Cartesian    0.41
    543 z          6.608853      6.606919    -0.001935    Cartesian   -0.03
    544 x         -6.608853     -6.617420    -0.008566    Cartesian    0.13
    544 y          2.202951      2.208464     0.005513    Cartesian    0.25
    544 z          6.608853      6.604687    -0.004166    Cartesian   -0.06
    545 x         15.420658     15.422320     0.001662    Cartesian    0.01
    545 y          2.202951      2.210832     0.007880    Cartesian    0.36
    545 z          2.202951      2.209586     0.006635    Cartesian    0.30
    546 x         -6.608853     -6.611106    -0.002252    Cartesian    0.03
    546 y          2.202951      2.211169     0.008217    Cartesian    0.37
    546 z          2.202951      2.193695    -0.009256    Cartesian   -0.42
    547 x          2.202951      2.220823     0.017872    Cartesian    0.81
    547 y          2.202951      2.209567     0.006616    Cartesian    0.30
    547 z         15.420658     15.429119     0.008461    Cartesian    0.05
    548 x          6.608853      6.612274     0.003420    Cartesian    0.05
    548 y          2.202951      2.206797     0.003846    Cartesian    0.17
    548 z         -6.608853     -6.608909    -0.000055    Cartesian    0.00
    549 x          2.202951      2.207055     0.004104    Cartesian    0.19
    549 y          2.202951      2.205780     0.002829    Cartesian    0.13
    549 z         -6.608853     -6.609835    -0.000981    Cartesian    0.01
    550 x          2.202951      2.216792     0.013841    Cartesian    0.63
    550 y         -6.608853     -6.621933    -0.013080    Cartesian    0.20
    550 z         11.014756     11.001965    -0.012791    Cartesian   -0.12
    551 x          6.608853      6.619192     0.010339    Cartesian    0.16
    551 y         -6.608853     -6.614752    -0.005898    Cartesian    0.09
    551 z         11.014756     11.009175    -0.005581    Cartesian   -0.05
    552 x         -2.202951     -2.187382     0.015569    Cartesian   -0.71
    552 y         -6.608853     -6.629390    -0.020537    Cartesian    0.31
    552 z          6.608853      6.596525    -0.012329    Cartesian   -0.19
    553 x          2.202951      2.209250     0.006299    Cartesian    0.29
    553 y         -6.608853     -6.605477     0.003377    Cartesian   -0.05
    553 z         -2.202951     -2.209973    -0.007021    Cartesian    0.32
    554 x          2.202951      2.218234     0.015283    Cartesian    0.69
    554 y         11.014756     11.013212    -0.001544    Cartesian   -0.01
    554 z         11.014756     11.016464     0.001708    Cartesian    0.02
    555 x          6.608853      6.621939     0.013086    Cartesian    0.20
    555 y         11.014756     11.006210    -0.008545    Cartesian   -0.08
    555 z         11.014756     11.022228     0.007472    Cartesian    0.07
    556 x         11.014756     11.026582     0.011826    Cartesian    0.11
    556 y         -6.608853     -6.605933     0.002921    Cartesian   -0.04
    556 z          2.202951      2.194900    -0.008051    Cartesian   -0.37
    557 x         -2.202951     -2.201113     0.001838    Cartesian   -0.08
    557 y         -6.608853     -6.613346    -0.004493    Cartesian    0.07
    557 z          2.202951      2.184805    -0.018147    Cartesian   -0.82
    558 x         11.014756     11.034212     0.019457    Cartesian    0.18
    558 y         -6.608853     -6.598762     0.010092    Cartesian   -0.15
    558 z          6.608853      6.602901    -0.005952    Cartesian   -0.09
    559 x          2.202951      2.210414     0.007463    Cartesian    0.34
    559 y         11.014756     11.020606     0.005850    Cartesian    0.05
    559 z         -2.202951     -2.198364     0.004587    Cartesian   -0.21
    560 x         -2.202951     -2.187523     0.015428    Cartesian   -0.70
    560 y         11.014756     11.026655     0.011899    Cartesian    0.11
    560 z          6.608853      6.614519     0.005665    Cartesian    0.09
    561 x         11.014756     11.025739     0.010983    Cartesian    0.10
    561 y         11.014756     11.003773    -0.010982    Cartesian   -0.10
    561 z          6.608853      6.622057     0.013204    Cartesian    0.20
    562 x         11.014756     11.017152     0.002397    Cartesian    0.02
    562 y         11.014756     11.013026    -0.001729    Cartesian   -0.02
    562 z          2.202951      2.218998     0.016047    Cartesian    0.73
    563 x         -2.202951     -2.192316     0.010635    Cartesian   -0.48
    563 y         11.014756     11.019801     0.005045    Cartesian    0.05
    563 z          2.202951      2.208169     0.005218    Cartesian    0.24
    564 x          6.608853      6.616890     0.008036    Cartesian    0.12
    564 y         -6.608853     -6.604066     0.004787    Cartesian   -0.07
    564 z         -2.202951     -2.208767    -0.005816    Cartesian    0.26
    565 x          6.608853      6.614963     0.006110    Cartesian    0.09
    565 y         11.014756     11.018751     0.003996    Cartesian    0.04
    565 z         -2.202951     -2.196619     0.006332    Cartesian   -0.29
    566 x         -4.405902     -4.408533    -0.002631    Cartesian    0.06
    566 y         -4.405902     -4.402128     0.003774    Cartesian   -0.09
    566 z          8.811805      8.809790    -0.002015    Cartesian   -0.02
    567 x         -4.405902     -4.405079     0.000824    Cartesian   -0.02
    567 y          8.811805      8.810787    -0.001018    Cartesian   -0.01
    567 z          8.811805      8.811163    -0.000641    Cartesian   -0.01
    568 x          0.000000     -0.002841    -0.002841    Cartesian *******
    568 y         -4.405902     -4.411772    -0.005869    Cartesian    0.13
    568 z         13.217707     13.222846     0.005139    Cartesian    0.04
    569 x         13.217707     13.219830     0.002123    Cartesian    0.02
    569 y         -4.405902     -4.409548    -0.003646    Cartesian    0.08
    569 z          8.811805      8.811740    -0.000065    Cartesian   -0.00
    570 x         -4.405902     -4.407107    -0.001204    Cartesian    0.03
    570 y         -4.405902     -4.404718     0.001184    Cartesian   -0.03
    570 z         -0.000000     -0.001956    -0.001956    Cartesian *******
    571 x          0.000000      0.006863     0.006863    Cartesian *******
    571 y          8.811805      8.809687    -0.002117    Cartesian   -0.02
    571 z         13.217707     13.214628    -0.003078    Cartesian   -0.02
    572 x          8.811805      8.812710     0.000905    Cartesian    0.01
    572 y         -4.405902     -4.404987     0.000916    Cartesian   -0.02
    572 z         -4.405902     -4.406794    -0.000891    Cartesian    0.02
    573 x          0.000000     -0.000227    -0.000227    Cartesian *******
    573 y         -4.405902     -4.405986    -0.000084    Cartesian    0.00
    573 z         -4.405902     -4.404949     0.000954    Cartesian   -0.02
    574 x         -4.405902     -4.405748     0.000154    Cartesian   -0.00
    574 y          8.811805      8.812983     0.001178    Cartesian    0.01
    574 z         -0.000000      0.000472     0.000472    Cartesian *******
    575 x         13.217707     13.217889     0.000182    Cartesian    0.00
    575 y         -4.405902     -4.405047     0.000856    Cartesian   -0.02
    575 z         -0.000000     -0.001725    -0.001725    Cartesian *******
    576 x          8.811805      8.821517     0.009712    Cartesian    0.11
    576 y         -4.405902     -4.412400    -0.006498    Cartesian    0.15
    576 z         13.217707     13.224359     0.006652    Cartesian    0.05
    577 x          0.000000      0.001014     0.001014    Cartesian *******
    577 y          8.811805      8.812766     0.000961    Cartesian    0.01
    577 z         -4.405902     -4.405654     0.000249    Cartesian   -0.01
    578 x         13.217707     13.217250    -0.000456    Cartesian   -0.00
    578 y          8.811805      8.816727     0.004923    Cartesian    0.06
    578 z          8.811805      8.812803     0.000998    Cartesian    0.01
    579 x          8.811805      8.811741    -0.000063    Cartesian   -0.00
    579 y          8.811805      8.809728    -0.002076    Cartesian   -0.02
    579 z         13.217707     13.214979    -0.002728    Cartesian   -0.02
    580 x          8.811805      8.811690    -0.000115    Cartesian   -0.00
    580 y          8.811805      8.811867     0.000063    Cartesian    0.00
    580 z         -4.405902     -4.407066    -0.001164    Cartesian    0.03
    581 x         13.217707     13.217427    -0.000279    Cartesian   -0.00
    581 y          8.811805      8.813404     0.001599    Cartesian    0.02
    581 z         -0.000000      0.000725     0.000725    Cartesian *******
    582 x          4.405902      4.413254     0.007352    Cartesian    0.17
    582 y         -8.811805     -8.809646     0.002158    Cartesian   -0.02
    582 z          8.811805      8.811042    -0.000763    Cartesian   -0.01
    583 x          0.000000      0.001692     0.001692    Cartesian *******
    583 y         -8.811805     -8.813322    -0.001518    Cartesian    0.02
    583 z          4.405902      4.403048    -0.002854    Cartesian   -0.06
    584 x          4.405902      4.407382     0.001479    Cartesian    0.03
    584 y         -8.811805     -8.812142    -0.000337    Cartesian    0.00
    584 z         -0.000000     -0.002620    -0.002620    Cartesian *******
    585 x          8.811805      8.814767     0.002963    Cartesian    0.03
    585 y         -8.811805     -8.813490    -0.001686    Cartesian    0.02
    585 z          4.405902      4.404992    -0.000910    Cartesian   -0.02
    586 x          0.000000      0.002495     0.002495    Cartesian *******
    586 y         13.217707     13.217144    -0.000563    Cartesian   -0.00
    586 z          4.405902      4.406746     0.000843    Cartesian    0.02
    587 x          8.811805      8.813229     0.001424    Cartesian    0.02
    587 y         13.217707     13.217065    -0.000642    Cartesian   -0.00
    587 z          4.405902      4.408089     0.002187    Cartesian    0.05
    588 x          4.405902      4.410613     0.004710    Cartesian    0.11
    588 y         13.217707     13.219978     0.002271    Cartesian    0.02
    588 z          8.811805      8.812127     0.000322    Cartesian    0.00
    589 x          4.405902      4.407241     0.001339    Cartesian    0.03
    589 y         13.217707     13.217483    -0.000224    Cartesian   -0.00
    589 z         -0.000000      0.001311     0.001311    Cartesian *******
--------------------------------------------------------------------------------


  Time to end of optimisation  =      292.6300 seconds


  Peak dynamic memory used =     152.81 MB 


  Timing analysis for GULP :

--------------------------------------------------------------------------------
  Task / Subroutine                                          Time (Seconds)
--------------------------------------------------------------------------------
  Calculation of reciprocal space energy and derivatives          0.0496
  Calculation of real space energy and derivatives                0.4789
  Calculation for region 1 energy and derivatives (2-b)          32.5147
  Calculation for region 2a energy                               17.8469
  Calculation and manipulation of Hessian matrix                166.2087
  Calculation of matrix inversion                                12.7059
  Symmetry generation of equivalent positions                     0.0035
--------------------------------------------------------------------------------
  Total CPU time                                                292.6301
--------------------------------------------------------------------------------


  Dump file written as Na3OCl.grs



  **** GULP has completed with 1 warning - beware! ****

  Job Finished at 17:34.05  4th February   2021                               

