********************************************************************************
*                       GENERAL UTILITY LATTICE PROGRAM                        *
*                                 Julian Gale                                  *
*                       Curtin Institute for Computation                       *
*                    School of Molecular and Life Sciences                     *
*                    Curtin University, Western Australia                      *
********************************************************************************
* Version = 5.2.0 * Last modified =  10th September 2020                       *
********************************************************************************
*  optimise     - perform optimisation run                                     *
*  conp         - constant pressure calculation                                *
*  property     - calculate properties for final geometry                      *
*  defect       - perform defect calculation after bulk run                    *
*  compare      - compare initial and final structures                         *
********************************************************************************

  Job Started  at 13:01.27 26th September  2021                               

  Number of CPUs =     1


  Total number of configurations input =      1

********************************************************************************
*  Input for Configuration =   1                                               *
********************************************************************************

  Formula = ClONa3                                                      

  Number of irreducible atoms/shells =       5


  Total number atoms/shells =       7

  Dimensionality = 3               :  Bulk   


  Symmetry :

  Crystal family                   :  Cubic       
  Crystal class  (Groth - 1921)    :  Cubic Hexakisoctahedral              

  Space group (centrosymmetric)    :  P M 3 M         

  Patterson group                  :  P m -3 m 

  Cartesian lattice vectors (Angstroms) :

        4.504000    0.000000    0.000000
        0.000000    4.504000    0.000000
        0.000000    0.000000    4.504000

  Cell parameters (Angstroms/Degrees):

  a =       4.5040    alpha =  90.0000
  b =       4.5040    beta  =  90.0000
  c =       4.5040    gamma =  90.0000

  Initial cell volume =          91.368216 Angs**3

  Temperature of configuration =   0.00     K 

  Pressure of configuration =         0.000 GPa 

  Fractional coordinates of asymmetric unit :

--------------------------------------------------------------------------------
   No.  Atomic       x           y          z         Charge      Occupancy
        Label      (Frac)      (Frac)     (Frac)        (e)         (Frac)  
--------------------------------------------------------------------------------
      1 Cl    c    0.000000    0.000000    0.000000     1.48500    1.000000    
      2 O     c    0.500000    0.500000    0.500000     0.18300    1.000000    
      3 Na    c    0.500000    0.500000    0.000000     1.00000    1.000000    
      4 Cl    s    0.000000    0.000000    0.000000    -2.48500    1.000000    
      5 O     s    0.500000    0.500000    0.500000    -2.18300    1.000000    
--------------------------------------------------------------------------------


  Constraints : 

--------------------------------------------------------------------------------
  Constraint no.      Unconstrained     Constrained    Coefficient    Offset
                         Variable         Variable
--------------------------------------------------------------------------------
           1              Strain 1        Strain 2       1.00000      0.0000
           2              Strain 1        Strain 3       1.00000      0.0000
--------------------------------------------------------------------------------


********************************************************************************
*  General input information                                                   *
********************************************************************************

  Species output for all configurations : 

--------------------------------------------------------------------------------
  Species    Type    Atomic    Atomic    Charge       Radii (Angs)     Library
                     Number     Mass       (e)     Cova   Ionic  VDW   Symbol
--------------------------------------------------------------------------------
    Na       Core       11      22.99   1.000000   0.970  0.000  2.300          
    O        Core        8      16.00   0.183000   0.730  0.000  1.360          
    O        Shell       8       0.00  -2.183000   0.730  0.000  1.360          
    Cl       Core       17      35.45   1.485000   0.990  0.000  1.650          
    Cl       Shell      17       0.00  -2.485000   0.990  0.000  1.650          
    Mg       Core       12      24.31   0.415000   1.100  0.000  0.000          
    Mg       Shell      12       0.00   1.585000   1.100  0.000  0.000          
    Ca       Core       20      40.08  -1.135000   0.990  0.000  0.000          
    Ca       Shell      20       0.00   3.135000   0.990  0.000  0.000          
    Sr       Core       38      87.62  -1.251000   1.120  0.000  0.000          
    Sr       Shell      38       0.00   3.251000   1.120  0.000  0.000          
    Ba       Core       56     137.33  -7.203000   1.340  0.000  0.000          
    Ba       Shell      56       0.00   9.203000   1.340  0.000  0.000          
    Al       Core       13      26.98   3.000000   1.350  0.000  0.000          
    Ga       Core       31      69.72   3.000000   1.220  0.000  0.000          
--------------------------------------------------------------------------------


  Lattice summation method               =    Ewald          (3-D)
                                         =    Parry          (2-D)
                                         =    Saunders et al (1-D)
  Accuracy factor for lattice sums       =   12.000


  Analytic derivatives to be used

  Time limit = Infinity

  Maximum range for interatomic potentials =    100000.000000 Angstroms

  General interatomic potentials :

--------------------------------------------------------------------------------
Atom  Types   Potential      Parameter       Value         Units   Cutoffs(Ang)
  1     2                                                            Min /  Max 
--------------------------------------------------------------------------------
O    c O    s Spring (c-s)  Spring k 2       593.71600    eV*Ang^-2 0.000  0.800
                            Spring k 4       0.0000000    eV*Ang^-4 
--------------------------------------------------------------------------------
Cl   c Cl   s Spring (c-s)  Spring k 2       29.380000    eV*Ang^-2 0.000  0.800
                            Spring k 4       0.0000000    eV*Ang^-4 
--------------------------------------------------------------------------------
Mg   c Mg   s Spring (c-s)  Spring k 2       361.60000    eV*Ang^-2 0.000  0.800
                            Spring k 4       0.0000000    eV*Ang^-4 
--------------------------------------------------------------------------------
Ca   c Ca   s Spring (c-s)  Spring k 2       110.20000    eV*Ang^-2 0.000  0.800
                            Spring k 4       0.0000000    eV*Ang^-4 
--------------------------------------------------------------------------------
Sr   c Sr   s Spring (c-s)  Spring k 2       71.700000    eV*Ang^-2 0.000  0.800
                            Spring k 4       0.0000000    eV*Ang^-4 
--------------------------------------------------------------------------------
Ba   c Ba   s Spring (c-s)  Spring k 2       495.20000    eV*Ang^-2 0.000  0.800
                            Spring k 4       0.0000000    eV*Ang^-4 
--------------------------------------------------------------------------------
Na   c Na   c Buckingham    Buckingham A     1788.1900    eV        0.000 12.000
                            Buckingham rho  0.15900000    Ang       
                            Buckingham C     0.0000000    eV*Ang^6  
--------------------------------------------------------------------------------
Na   c O    s Buckingham    Buckingham A     588.38000    eV        0.000 12.000
                            Buckingham rho  0.33800000    Ang       
                            Buckingham C     0.0000000    eV*Ang^6  
--------------------------------------------------------------------------------
Na   c Cl   s Buckingham    Buckingham A     1170.4100    eV        0.000 12.000
                            Buckingham rho  0.31500000    Ang       
                            Buckingham C     0.0000000    eV*Ang^6  
--------------------------------------------------------------------------------
O    s O    s Buckingham    Buckingham A     22764.300    eV        0.000 12.000
                            Buckingham rho  0.14900000    Ang       
                            Buckingham C     13.190000    eV*Ang^6  
--------------------------------------------------------------------------------
O    s Cl   s Buckingham    Buckingham A     8286.9100    eV        0.000 12.000
                            Buckingham rho  0.25900000    Ang       
                            Buckingham C     62.200000    eV*Ang^6  
--------------------------------------------------------------------------------
Cl   s Cl   s Buckingham    Buckingham A     1227.2000    eV        0.000 12.000
                            Buckingham rho  0.32100000    Ang       
                            Buckingham C     14.530000    eV*Ang^6  
--------------------------------------------------------------------------------
O    s Mg   s Buckingham    Buckingham A     1428.5000    eV        0.000 12.000
                            Buckingham rho  0.29450000    Ang       
                            Buckingham C     0.0000000    eV*Ang^6  
--------------------------------------------------------------------------------
Mg   s Cl   s Buckingham    Buckingham A     4914.5400    eV        0.000 12.000
                            Buckingham rho  0.25700000    Ang       
                            Buckingham C     0.0000000    eV*Ang^6  
--------------------------------------------------------------------------------
O    s Ca   s Buckingham    Buckingham A     1090.4000    eV        0.000 12.000
                            Buckingham rho  0.34370000    Ang       
                            Buckingham C     0.0000000    eV*Ang^6  
--------------------------------------------------------------------------------
Cl   s Ca   s Buckingham    Buckingham A     2302.0000    eV        0.000 12.000
                            Buckingham rho  0.34020000    Ang       
                            Buckingham C     0.0000000    eV*Ang^6  
--------------------------------------------------------------------------------
O    s Sr   s Buckingham    Buckingham A     959.10000    eV        0.000 12.000
                            Buckingham rho  0.37210000    Ang       
                            Buckingham C     0.0000000    eV*Ang^6  
--------------------------------------------------------------------------------
Cl   s Sr   s Buckingham    Buckingham A     2191.0900    eV        0.000 12.000
                            Buckingham rho  0.34570000    Ang       
                            Buckingham C     0.0000000    eV*Ang^6  
--------------------------------------------------------------------------------
O    s Ba   s Buckingham    Buckingham A     905.70000    eV        0.000 12.000
                            Buckingham rho  0.39760000    Ang       
                            Buckingham C     0.0000000    eV*Ang^6  
--------------------------------------------------------------------------------
Cl   s Ba   s Buckingham    Buckingham A     2704.5500    eV        0.000 12.000
                            Buckingham rho  0.35280000    Ang       
                            Buckingham C     0.0000000    eV*Ang^6  
--------------------------------------------------------------------------------
Al   c O    s Buckingham    Buckingham A     1725.0000    eV        0.000 12.000
                            Buckingham rho  0.28970000    Ang       
                            Buckingham C     0.0000000    eV*Ang^6  
--------------------------------------------------------------------------------
Al   c Cl   s Buckingham    Buckingham A     1736.1200    eV        0.000 12.000
                            Buckingham rho  0.29170000    Ang       
                            Buckingham C     0.0000000    eV*Ang^6  
--------------------------------------------------------------------------------
Ga   c O    s Buckingham    Buckingham A     2901.1200    eV        0.000 12.000
                            Buckingham rho  0.27420000    Ang       
                            Buckingham C     0.0000000    eV*Ang^6  
--------------------------------------------------------------------------------
Ga   c Cl   s Buckingham    Buckingham A     924.20000    eV        0.000 12.000
                            Buckingham rho  0.34280000    Ang       
                            Buckingham C     0.0000000    eV*Ang^6  
--------------------------------------------------------------------------------

********************************************************************************
*  Output for configuration   1                                                *
********************************************************************************


  Components of energy : 

--------------------------------------------------------------------------------
  Interatomic potentials     =           4.94315381 eV    
  Monopole - monopole (real) =         -10.03624526 eV    
  Monopole - monopole (recip)=         -29.53581274 eV    
  Monopole - monopole (total)=         -39.57205800 eV    
--------------------------------------------------------------------------------
  Total lattice energy       =         -34.62890419 eV    
--------------------------------------------------------------------------------
  Total lattice energy       =           -3341.1599 kJ/(mole unit cells)
--------------------------------------------------------------------------------


  Number of variables =        1

  Maximum number of calculations  =          1000
  Maximum Hessian update interval =            10
  Maximum step size               =   1.000000000
  Maximum parameter tolerance     =   0.000010000
  Maximum function  tolerance     =   0.000010000
  Maximum gradient  tolerance     =   0.001000000
  Maximum gradient  component     =   0.010000000

  Symmetry constrained optimisation

  Symmetry used for second derivatives

  Cell parameters to be optimised using strains

  Newton-Raphson optimiser to be used

  BFGS hessian update to be used

  Lower half triangular hessian to be used

  Start of bulk optimisation :

  Cycle:      0 Energy:       -34.628904  Gnorm:      4.328237  CPU:    0.009
  ** Hessian calculated **
  Cycle:      1 Energy:       -34.677667  Gnorm:      0.044008  CPU:    0.011
  Cycle:      2 Energy:       -34.677671  Gnorm:      0.003653  CPU:    0.013


  **** Optimisation achieved ****


  Final energy =     -34.67767136 eV
  Final Gnorm  =       0.00000010

  Components of energy : 

--------------------------------------------------------------------------------
  Interatomic potentials     =           5.77546103 eV    
  Monopole - monopole (real) =         -10.25970290 eV    
  Monopole - monopole (recip)=         -30.19342950 eV    
  Monopole - monopole (total)=         -40.45313239 eV    
--------------------------------------------------------------------------------
  Total lattice energy       =         -34.67767136 eV    
--------------------------------------------------------------------------------
  Total lattice energy       =           -3345.8652 kJ/(mole unit cells)
--------------------------------------------------------------------------------

  Final asymmetric unit coordinates :

--------------------------------------------------------------------------------
   No.  Atomic        x           y           z         Radius
        Label       (Frac)      (Frac)      (Frac)       (Angs) 
--------------------------------------------------------------------------------
     1  Cl    c     0.000000    0.000000    0.000000    0.000000
     2  O     c     0.500000    0.500000    0.500000    0.000000
     3  Na    c     0.500000    0.500000    0.000000    0.000000
     4  Cl    s     0.000000    0.000000    0.000000    0.000000
     5  O     s     0.500000    0.500000    0.500000    0.000000
--------------------------------------------------------------------------------

  Final Cartesian lattice vectors (Angstroms) :

        4.405902    0.000000    0.000000
        0.000000    4.405902    0.000000
        0.000000    0.000000    4.405902


  Final cell parameters and derivatives :

--------------------------------------------------------------------------------
       a            4.405902 Angstrom     dE/de1(xx)     0.000000 eV/strain
       b            4.405902 Angstrom     dE/de2(yy)     0.000000 eV/strain
       c            4.405902 Angstrom     dE/de3(zz)     0.000000 eV/strain
       alpha       90.000000 Degrees      dE/de4(yz)     0.000000 eV/strain
       beta        90.000000 Degrees      dE/de5(xz)     0.000000 eV/strain
       gamma       90.000000 Degrees      dE/de6(xy)     0.000000 eV/strain
--------------------------------------------------------------------------------

  Primitive cell volume =            85.527266 Angs**3

  Density of cell =      2.338030 g/cm**3

  Non-primitive cell volume =            85.527266 Angs**3


  Final internal derivatives :

--------------------------------------------------------------------------------
   No.  Atomic          a             b             c           Radius
        Label          (eV)          (eV)          (eV)        (eV/Angs)
--------------------------------------------------------------------------------
      1 Cl    c       0.000000      0.000000      0.000000      0.000000
      2 O     c       0.000000      0.000000      0.000000      0.000000
      3 Na    c       0.000000      0.000000      0.000000      0.000000
      4 Cl    s       0.000000      0.000000      0.000000      0.000000
      5 O     s       0.000000      0.000000      0.000000      0.000000
--------------------------------------------------------------------------------
  Maximum abs         0.000000      0.000000      0.000000      0.000000
--------------------------------------------------------------------------------

  Comparison of initial and final structures : 

--------------------------------------------------------------------------------
  Parameter   Initial value   Final value   Difference    Units      Percent
--------------------------------------------------------------------------------
    Volume        91.368216     85.527266    -5.840950    Angs**3     -6.39
    a              4.504000      4.405902    -0.098098    Angstroms   -2.18
    b              4.504000      4.405902    -0.098098    Angstroms   -2.18
    c              4.504000      4.405902    -0.098098    Angstroms   -2.18
    alpha         90.000000     90.000000     0.000000    Degrees      0.00
    beta          90.000000     90.000000     0.000000    Degrees      0.00
    gamma         90.000000     90.000000     0.000000    Degrees      0.00
      1 x          0.000000      0.000000     0.000000    Fractional   0.00
      1 y          0.000000      0.000000     0.000000    Fractional   0.00
      1 z          0.000000      0.000000     0.000000    Fractional   0.00
      2 x          0.500000      0.500000     0.000000    Fractional   0.00
      2 y          0.500000      0.500000     0.000000    Fractional   0.00
      2 z          0.500000      0.500000     0.000000    Fractional   0.00
      3 x          0.500000      0.500000     0.000000    Fractional   0.00
      3 y          0.500000      0.500000     0.000000    Fractional   0.00
      3 z          0.000000      0.000000     0.000000    Fractional   0.00
      4 x          0.000000      0.000000     0.000000    Fractional   0.00
      4 y          0.000000      0.000000     0.000000    Fractional   0.00
      4 z          0.000000      0.000000     0.000000    Fractional   0.00
      5 x          0.500000      0.500000     0.000000    Fractional   0.00
      5 y          0.500000      0.500000     0.000000    Fractional   0.00
      5 z          0.500000      0.500000     0.000000    Fractional   0.00
--------------------------------------------------------------------------------


  Born effective charge tensors : 

-------------------------------------------------------------------------------
  Atom             x           y             z
-------------------------------------------------------------------------------
    1 Cl    x      -0.9918     -0.0000     -0.0000
            y      -0.0000     -0.9918     -0.0000
            z      -0.0000     -0.0000     -0.9918
-------------------------------------------------------------------------------
    2 O     x      -2.2939      0.0000      0.0000
            y       0.0000     -2.2939      0.0000
            z       0.0000      0.0000     -2.2939
-------------------------------------------------------------------------------
    3 Na    x       1.2243      0.0000      0.0000
            y       0.0000      1.2243     -0.0000
            z       0.0000      0.0000      0.8372
-------------------------------------------------------------------------------




  Elastic Constant Matrix: (Units=GPa)

-------------------------------------------------------------------------------
  Indices      1         2         3         4         5         6    
-------------------------------------------------------------------------------
       1     82.7680   24.3534   24.3534   -0.0000    0.0000   -0.0000
       2     24.3534   82.7680   24.3534    0.0000   -0.0000   -0.0000
       3     24.3534   24.3534   82.7680    0.0000   -0.0000    0.0000
       4     -0.0000    0.0000    0.0000   24.3534   -0.0000    0.0000
       5      0.0000   -0.0000   -0.0000   -0.0000   24.3534    0.0000
       6     -0.0000   -0.0000    0.0000    0.0000    0.0000   24.3534
-------------------------------------------------------------------------------


  Elastic Compliance Matrix: (Units=1/GPa)

-------------------------------------------------------------------------------
  Indices      1         2         3         4         5         6    
-------------------------------------------------------------------------------
       1    0.013948 -0.003171 -0.003171  0.000000 -0.000000  0.000000
       2   -0.003171  0.013948 -0.003171 -0.000000  0.000000 -0.000000
       3   -0.003171 -0.003171  0.013948 -0.000000  0.000000 -0.000000
       4    0.000000 -0.000000 -0.000000  0.041062  0.000000 -0.000000
       5   -0.000000  0.000000  0.000000  0.000000  0.041062 -0.000000
       6    0.000000 -0.000000 -0.000000 -0.000000 -0.000000  0.041062
-------------------------------------------------------------------------------

  Mechanical properties :

-------------------------------------------------------------------------------
  Convention :                    Reuss         Voigt         Hill
-------------------------------------------------------------------------------
  Bulk  Modulus (GPa)     =      43.82493      43.82493      43.82493
  Shear Modulus (GPa)     =      26.08758      26.29496      26.19127
-------------------------------------------------------------------------------
  Velocity S-wave (km/s)  =       3.34035       3.35360       3.34698
  Velocity P-wave (km/s)  =       5.79842       5.80861       5.80351
-------------------------------------------------------------------------------
  Compressibility (1/GPa) =    0.02281806
-------------------------------------------------------------------------------
  Stress axis :                     x             y             z
-------------------------------------------------------------------------------
  Youngs Moduli (GPa)     =      71.69479      71.69479      71.69479
-------------------------------------------------------------------------------
  Poissons Ratio (x)      =                     0.22734       0.22734
  Poissons Ratio (y)      =       0.22734                     0.22734
  Poissons Ratio (z)      =       0.22734       0.22734
-------------------------------------------------------------------------------


  Piezoelectric Strain Matrix: (Units=C/m**2)

-------------------------------------------------------------------------------
  Indices      1         2         3         4         5         6    
-------------------------------------------------------------------------------
       x    -0.00000  -0.00000  -0.00000  -0.00000   0.00000  -0.00000
       y     0.00000  -0.00000   0.00000   0.00000  -0.00000   0.00000
       z    -0.00000  -0.00000   0.00000  -0.00000   0.00000  -0.00000
-------------------------------------------------------------------------------


  Piezoelectric Stress Matrix: (Units=10**-11 C/N)

-------------------------------------------------------------------------------
  Indices      1         2         3         4         5         6    
-------------------------------------------------------------------------------
       x     0.00000  -0.00000  -0.00000  -0.00000   0.00000  -0.00000
       y     0.00000  -0.00000   0.00000   0.00000  -0.00000   0.00000
       z    -0.00000  -0.00000   0.00000  -0.00000   0.00000  -0.00000
-------------------------------------------------------------------------------


  Static dielectric constant tensor : 

-------------------------------------------------------------------------------
              x         y         z
-------------------------------------------------------------------------------
       x    11.08357   0.00000   0.00000
       y     0.00000  11.08357   0.00000
       z     0.00000   0.00000  11.08357
--------------------------------------------------------------------------------

  High frequency dielectric constant tensor : 

-------------------------------------------------------------------------------
              x         y         z
-------------------------------------------------------------------------------
       x     1.50771   0.00000   0.00000
       y     0.00000   1.50771   0.00000
       z     0.00000   0.00000   1.50771
-------------------------------------------------------------------------------

  Static refractive indices : 

-------------------------------------------------------------------------------
    1 =    3.32920      2 =    3.32920      3 =    3.32920
-------------------------------------------------------------------------------

  High frequency refractive indices : 

-------------------------------------------------------------------------------
    1 =    1.22789      2 =    1.22789      3 =    1.22789
-------------------------------------------------------------------------------


  Time to end of optimisation =       0.0179 seconds

********************************************************************************
*  Defect calculation for configuration   1 :                                  *
********************************************************************************

  Total number of defects =      3

  Total charge on defect  =  -1.00

  Defect centre is at   0.5000   0.2500   0.2500  Frac

  Region 1 radius =  12.0000      Number of ions =    593

  Number of symmetry inequivalent region 1 ions  =    195

  Region 2 radius =  16.0000      Number of ions =    832

  Number of symmetry inequivalent region 2a ions =    242

  Region 2a mode = 4 : screened electrostatics due to region 1 
                       neglect correction to region 1 forces from 2a
                       region 2a displacements based on defects only

  Region 2a ions will only interact with defects in region 1

  Vacancies:

--------------------------------------------------------------------------------
    Specification type     Symbol/Number         x          y          z
--------------------------------------------------------------------------------
    Fractional                               0.500000   0.500000   0.000000
    Fractional                               0.500000   0.000000   0.500000
--------------------------------------------------------------------------------

  Interstitials:

--------------------------------------------------------------------------------
    Specification type     Symbol/Number         x          y          z
--------------------------------------------------------------------------------
    Atom/Fractional         Na               0.500000   0.180000   0.180000
--------------------------------------------------------------------------------


  Symmetry reduced region 1 (Relative to defect centre) :

--------------------------------------------------------------------------------
   No.   Atomic       x            y             z       Radius  Multiplicity   
         Label      (Angs)       (Angs)        (Angs)    (Angs)     
--------------------------------------------------------------------------------
     1  Na    c      0.0000      -0.3084      -0.3084    0.0000     1    Defect
     2  O     c      0.0000       1.1015 *     1.1015    0.0000     1          
     3  Cl    c      2.2030 *    -1.1015 *    -1.1015    0.0000     2          
     4  Na    c      2.2030 *     1.1015 *     1.1015    0.0000     2          
     5  O     c      0.0000       1.1015 *    -3.3044 *  0.0000     2          
     6  Na    c      0.0000       1.1015 *     3.3044 *  0.0000     2          
     7  Na    c      0.0000      -3.3044 *    -1.1015 *  0.0000     2          
     8  Cl    c      2.2030 *    -1.1015 *     3.3044 *  0.0000     4          
     9  Na    c      2.2030 *     1.1015 *    -3.3044 *  0.0000     4          
    10  O     c      0.0000      -3.3044 *    -3.3044    0.0000     1          
    11  Na    c      0.0000      -3.3044 *     3.3044 *  0.0000     2          
    12  O     c      4.4059 *     1.1015 *     1.1015    0.0000     2          
    13  Na    c      4.4059 *     1.1015 *    -1.1015 *  0.0000     4          
    14  Cl    c      2.2030 *     3.3044 *     3.3044    0.0000     2          
    15  Na    c      2.2030 *    -3.3044 *    -3.3044    0.0000     2          
    16  O     c      0.0000       1.1015 *     5.5074 *  0.0000     2          
    17  O     c      4.4059 *     1.1015 *    -3.3044 *  0.0000     4          
    18  Na    c      0.0000       1.1015 *    -5.5074 *  0.0000     2          
    19  Na    c      0.0000       5.5074 *    -1.1015 *  0.0000     2          
    20  Na    c      4.4059 *     1.1015 *     3.3044 *  0.0000     4          
    21  Na    c      4.4059 *    -1.1015 *    -3.3044 *  0.0000     4          
    22  Cl    c      2.2030 *    -1.1015 *    -5.5074 *  0.0000     4          
    23  Na    c      2.2030 *     1.1015 *     5.5074 *  0.0000     4          
    24  O     c      0.0000       5.5074 *    -3.3044 *  0.0000     2          
    25  Na    c      0.0000       5.5074 *     3.3044 *  0.0000     2          
    26  Na    c      0.0000      -3.3044 *    -5.5074 *  0.0000     2          
    27  O     c      4.4059 *    -3.3044 *    -3.3044    0.0000     2          
    28  Na    c      4.4059 *    -3.3044 *     3.3044 *  0.0000     4          
    29  Cl    c      6.6089 *    -1.1015 *    -1.1015    0.0000     2          
    30  Na    c      6.6089 *     1.1015 *     1.1015    0.0000     2          
    31  Cl    c      2.2030 *     3.3044 *    -5.5074 *  0.0000     4          
    32  Na    c      2.2030 *     5.5074 *    -3.3044 *  0.0000     4          
    33  O     c      4.4059 *     1.1015 *     5.5074 *  0.0000     4          
    34  Na    c      4.4059 *     1.1015 *    -5.5074 *  0.0000     4          
    35  Na    c      4.4059 *     5.5074 *    -1.1015 *  0.0000     4          
    36  Cl    c      6.6089 *    -1.1015 *     3.3044 *  0.0000     4          
    37  Na    c      6.6089 *     1.1015 *    -3.3044 *  0.0000     4          
    38  O     c      0.0000       1.1015 *    -7.7103 *  0.0000     2          
    39  O     c      0.0000       5.5074 *     5.5074    0.0000     1          
    40  Na    c      0.0000       1.1015 *     7.7103 *  0.0000     2          
    41  Na    c      0.0000       5.5074 *    -5.5074 *  0.0000     2          
    42  Na    c      0.0000      -7.7103 *    -1.1015 *  0.0000     2          
    43  O     c      4.4059 *     5.5074 *    -3.3044 *  0.0000     4          
    44  Na    c      4.4059 *     5.5074 *     3.3044 *  0.0000     4          
    45  Na    c      4.4059 *    -3.3044 *    -5.5074 *  0.0000     4          
    46  Cl    c      2.2030 *    -1.1015 *     7.7103 *  0.0000     4          
    47  Cl    c      2.2030 *    -5.5074 *    -5.5074    0.0000     2          
    48  Cl    c      6.6089 *     3.3044 *     3.3044    0.0000     2          
    49  Na    c      2.2030 *     1.1015 *    -7.7103 *  0.0000     4          
    50  Na    c      2.2030 *     5.5074 *     5.5074    0.0000     2          
    51  Na    c      6.6089 *    -3.3044 *    -3.3044    0.0000     2          
    52  O     c      0.0000      -3.3044 *    -7.7103 *  0.0000     2          
    53  Na    c      0.0000      -3.3044 *     7.7103 *  0.0000     2          
    54  Na    c      0.0000      -7.7103 *     3.3044 *  0.0000     2          
    55  Cl    c      2.2030 *     3.3044 *     7.7103 *  0.0000     4          
    56  Cl    c      6.6089 *    -1.1015 *    -5.5074 *  0.0000     4          
    57  Na    c      2.2030 *    -3.3044 *    -7.7103 *  0.0000     4          
    58  Na    c      6.6089 *     1.1015 *     5.5074 *  0.0000     4          
    59  O     c      4.4059 *     1.1015 *    -7.7103 *  0.0000     4          
    60  O     c      4.4059 *     5.5074 *     5.5074    0.0000     2          
    61  Na    c      4.4059 *     1.1015 *     7.7103 *  0.0000     4          
    62  Na    c      4.4059 *     5.5074 *    -5.5074 *  0.0000     4          
    63  Na    c      4.4059 *    -1.1015 *    -7.7103 *  0.0000     4          
    64  O     c      8.8118 *     1.1015 *     1.1015    0.0000     2          
    65  Na    c      8.8118 *     1.1015 *    -1.1015 *  0.0000     4          
    66  Cl    c      6.6089 *     3.3044 *    -5.5074 *  0.0000     4          
    67  Na    c      6.6089 *     5.5074 *    -3.3044 *  0.0000     4          
    68  O     c      0.0000       5.5074 *    -7.7103 *  0.0000     2          
    69  O     c      4.4059 *    -3.3044 *    -7.7103 *  0.0000     4          
    70  Na    c      0.0000       5.5074 *     7.7103 *  0.0000     2          
    71  Na    c      0.0000      -7.7103 *    -5.5074 *  0.0000     2          
    72  Na    c      4.4059 *    -3.3044 *     7.7103 *  0.0000     4          
    73  Na    c      4.4059 *     3.3044 *    -7.7103 *  0.0000     4          
    74  O     c      8.8118 *     1.1015 *    -3.3044 *  0.0000     4          
    75  Na    c      8.8118 *     1.1015 *     3.3044 *  0.0000     4          
    76  Na    c      8.8118 *    -3.3044 *    -1.1015 *  0.0000     4          
    77  Cl    c      2.2030 *     7.7103 *    -5.5074 *  0.0000     4          
    78  Na    c      2.2030 *     5.5074 *    -7.7103 *  0.0000     4          
    79  O     c      0.0000       1.1015 *     9.9133 *  0.0000     2          
    80  O     c      8.8118 *    -3.3044 *    -3.3044    0.0000     2          
    81  Na    c      0.0000       1.1015 *    -9.9133 *  0.0000     2          
    82  Na    c      0.0000       9.9133 *    -1.1015 *  0.0000     2          
    83  Na    c      8.8118 *    -3.3044 *     3.3044 *  0.0000     4          
    84  Cl    c      2.2030 *    -1.1015 *    -9.9133 *  0.0000     4          
    85  Cl    c      6.6089 *    -1.1015 *     7.7103 *  0.0000     4          
    86  Cl    c      6.6089 *    -5.5074 *    -5.5074    0.0000     2          
    87  Na    c      2.2030 *     1.1015 *     9.9133 *  0.0000     4          
    88  Na    c      6.6089 *     1.1015 *    -7.7103 *  0.0000     4          
    89  Na    c      6.6089 *     5.5074 *     5.5074    0.0000     2          
    90  O     c      0.0000       9.9133 *    -3.3044 *  0.0000     2          
    91  O     c      4.4059 *     5.5074 *    -7.7103 *  0.0000     4          
    92  O     c      8.8118 *     1.1015 *     5.5074 *  0.0000     4          
    93  Na    c      0.0000       9.9133 *     3.3044 *  0.0000     2          
    94  Na    c      0.0000      -3.3044 *    -9.9133 *  0.0000     2          
    95  Na    c      4.4059 *     5.5074 *     7.7103 *  0.0000     4          
    96  Na    c      4.4059 *    -7.7103 *    -5.5074 *  0.0000     4          
    97  Na    c      8.8118 *     1.1015 *    -5.5074 *  0.0000     4          
    98  Na    c      8.8118 *     5.5074 *    -1.1015 *  0.0000     4          
    99  Cl    c      6.6089 *     7.7103 *     3.3044 *  0.0000     4          
   100  Na    c      6.6089 *    -7.7103 *    -3.3044 *  0.0000     4          
   101  Cl    c      2.2030 *     3.3044 *    -9.9133 *  0.0000     4          
   102  Na    c      2.2030 *     9.9133 *    -3.3044 *  0.0000     4          
   103  O     c      0.0000      -7.7103 *    -7.7103    0.0000     1          
   104  O     c      4.4059 *     1.1015 *     9.9133 *  0.0000     4          
   105  O     c      8.8118 *     5.5074 *    -3.3044 *  0.0000     4          
   106  Na    c      0.0000      -7.7103 *     7.7103 *  0.0000     2          
   107  Na    c      4.4059 *     1.1015 *    -9.9133 *  0.0000     4          
   108  Na    c      4.4059 *     9.9133 *    -1.1015 *  0.0000     4          
   109  Na    c      8.8118 *     5.5074 *     3.3044 *  0.0000     4          
   110  Na    c      8.8118 *    -3.3044 *    -5.5074 *  0.0000     4          
   111  Cl    c      2.2030 *     7.7103 *     7.7103    0.0000     2          
   112  Cl    c     11.0148 *    -1.1015 *    -1.1015    0.0000     2          
   113  Na    c      2.2030 *    -7.7103 *    -7.7103    0.0000     2          
   114  Na    c     11.0148 *     1.1015 *     1.1015    0.0000     2          
   115  O     c      4.4059 *     9.9133 *    -3.3044 *  0.0000     4          
   116  Na    c      4.4059 *     9.9133 *     3.3044 *  0.0000     4          
   117  Na    c      4.4059 *    -9.9133 *    -3.3044 *  0.0000     4          
   118  O     c      0.0000       5.5074 *     9.9133 *  0.0000     2          
   119  Na    c      0.0000       5.5074 *    -9.9133 *  0.0000     2          
   120  Na    c      0.0000       9.9133 *    -5.5074 *  0.0000     2          
   121  Cl    c      2.2030 *    -5.5074 *    -9.9133 *  0.0000     4          
   122  Cl    c      6.6089 *     7.7103 *    -5.5074 *  0.0000     4          
   123  Cl    c     11.0148 *    -1.1015 *     3.3044 *  0.0000     4          
   124  Na    c      2.2030 *     5.5074 *     9.9133 *  0.0000     4          
   125  Na    c      6.6089 *     5.5074 *    -7.7103 *  0.0000     4          
   126  Na    c     11.0148 *     1.1015 *    -3.3044 *  0.0000     4          
   127  O     c      4.4059 *    -7.7103 *    -7.7103    0.0000     2          
   128  O     c      8.8118 *     1.1015 *    -7.7103 *  0.0000     4          
   129  O     c      8.8118 *     5.5074 *     5.5074    0.0000     2          
   130  Na    c      4.4059 *    -7.7103 *     7.7103 *  0.0000     4          
   131  Na    c      8.8118 *     1.1015 *     7.7103 *  0.0000     4          
   132  Na    c      8.8118 *     5.5074 *    -5.5074 *  0.0000     4          
   133  Na    c      8.8118 *    -1.1015 *    -7.7103 *  0.0000     4          
   134  Cl    c     11.0148 *     3.3044 *     3.3044    0.0000     2          
   135  Na    c     11.0148 *    -3.3044 *    -3.3044    0.0000     2          
   136  Cl    c      6.6089 *    -1.1015 *    -9.9133 *  0.0000     4          
   137  Na    c      6.6089 *     1.1015 *     9.9133 *  0.0000     4          
   138  O     s      0.0000       1.1015 *     1.1015    0.0000     1          
   139  Cl    s      2.2030 *    -1.1015 *    -1.1015    0.0000     2          
   140  O     s      0.0000       1.1015 *    -3.3044 *  0.0000     2          
   141  Cl    s      2.2030 *    -1.1015 *     3.3044 *  0.0000     4          
   142  O     s      0.0000      -3.3044 *    -3.3044    0.0000     1          
   143  O     s      4.4059 *     1.1015 *     1.1015    0.0000     2          
   144  Cl    s      2.2030 *     3.3044 *     3.3044    0.0000     2          
   145  O     s      0.0000       1.1015 *     5.5074 *  0.0000     2          
   146  O     s      4.4059 *     1.1015 *    -3.3044 *  0.0000     4          
   147  Cl    s      2.2030 *    -1.1015 *    -5.5074 *  0.0000     4          
   148  O     s      0.0000       5.5074 *    -3.3044 *  0.0000     2          
   149  O     s      4.4059 *    -3.3044 *    -3.3044    0.0000     2          
   150  Cl    s      6.6089 *    -1.1015 *    -1.1015    0.0000     2          
   151  Cl    s      2.2030 *     3.3044 *    -5.5074 *  0.0000     4          
   152  O     s      4.4059 *     1.1015 *     5.5074 *  0.0000     4          
   153  Cl    s      6.6089 *    -1.1015 *     3.3044 *  0.0000     4          
   154  O     s      0.0000       1.1015 *    -7.7103 *  0.0000     2          
   155  O     s      0.0000       5.5074 *     5.5074    0.0000     1          
   156  O     s      4.4059 *     5.5074 *    -3.3044 *  0.0000     4          
   157  Cl    s      2.2030 *    -1.1015 *     7.7103 *  0.0000     4          
   158  Cl    s      2.2030 *    -5.5074 *    -5.5074    0.0000     2          
   159  Cl    s      6.6089 *     3.3044 *     3.3044    0.0000     2          
   160  O     s      0.0000      -3.3044 *    -7.7103 *  0.0000     2          
   161  Cl    s      2.2030 *     3.3044 *     7.7103 *  0.0000     4          
   162  Cl    s      6.6089 *    -1.1015 *    -5.5074 *  0.0000     4          
   163  O     s      4.4059 *     1.1015 *    -7.7103 *  0.0000     4          
   164  O     s      4.4059 *     5.5074 *     5.5074    0.0000     2          
   165  O     s      8.8118 *     1.1015 *     1.1015    0.0000     2          
   166  Cl    s      6.6089 *     3.3044 *    -5.5074 *  0.0000     4          
   167  O     s      0.0000       5.5074 *    -7.7103 *  0.0000     2          
   168  O     s      4.4059 *    -3.3044 *    -7.7103 *  0.0000     4          
   169  O     s      8.8118 *     1.1015 *    -3.3044 *  0.0000     4          
   170  Cl    s      2.2030 *     7.7103 *    -5.5074 *  0.0000     4          
   171  O     s      0.0000       1.1015 *     9.9133 *  0.0000     2          
   172  O     s      8.8118 *    -3.3044 *    -3.3044    0.0000     2          
   173  Cl    s      2.2030 *    -1.1015 *    -9.9133 *  0.0000     4          
   174  Cl    s      6.6089 *    -1.1015 *     7.7103 *  0.0000     4          
   175  Cl    s      6.6089 *    -5.5074 *    -5.5074    0.0000     2          
   176  O     s      0.0000       9.9133 *    -3.3044 *  0.0000     2          
   177  O     s      4.4059 *     5.5074 *    -7.7103 *  0.0000     4          
   178  O     s      8.8118 *     1.1015 *     5.5074 *  0.0000     4          
   179  Cl    s      6.6089 *     7.7103 *     3.3044 *  0.0000     4          
   180  Cl    s      2.2030 *     3.3044 *    -9.9133 *  0.0000     4          
   181  O     s      0.0000      -7.7103 *    -7.7103    0.0000     1          
   182  O     s      4.4059 *     1.1015 *     9.9133 *  0.0000     4          
   183  O     s      8.8118 *     5.5074 *    -3.3044 *  0.0000     4          
   184  Cl    s      2.2030 *     7.7103 *     7.7103    0.0000     2          
   185  Cl    s     11.0148 *    -1.1015 *    -1.1015    0.0000     2          
   186  O     s      4.4059 *     9.9133 *    -3.3044 *  0.0000     4          
   187  O     s      0.0000       5.5074 *     9.9133 *  0.0000     2          
   188  Cl    s      2.2030 *    -5.5074 *    -9.9133 *  0.0000     4          
   189  Cl    s      6.6089 *     7.7103 *    -5.5074 *  0.0000     4          
   190  Cl    s     11.0148 *    -1.1015 *     3.3044 *  0.0000     4          
   191  O     s      4.4059 *    -7.7103 *    -7.7103    0.0000     2          
   192  O     s      8.8118 *     1.1015 *    -7.7103 *  0.0000     4          
   193  O     s      8.8118 *     5.5074 *     5.5074    0.0000     2          
   194  Cl    s     11.0148 *     3.3044 *     3.3044    0.0000     2          
   195  Cl    s      6.6089 *    -1.1015 *    -9.9133 *  0.0000     4          
--------------------------------------------------------------------------------


  Constraints on symmetry reduced coordinates :

--------------------------------------------------------------------------------
  Constraint no.      Unconstrained     Constrained    Coefficient    
                         Variable         Variable
--------------------------------------------------------------------------------
           1                 2 y             2 z         1.00000
           2                 3 y             3 z         1.00000
           3                 4 y             4 z         1.00000
           4                10 y            10 z         1.00000
           5                12 y            12 z         1.00000
           6                14 y            14 z         1.00000
           7                15 y            15 z         1.00000
           8                27 y            27 z         1.00000
           9                29 y            29 z         1.00000
          10                30 y            30 z         1.00000
          11                39 y            39 z         1.00000
          12                47 y            47 z         1.00000
          13                48 y            48 z         1.00000
          14                50 y            50 z         1.00000
          15                51 y            51 z         1.00000
          16                60 y            60 z         1.00000
          17                64 y            64 z         1.00000
          18                80 y            80 z         1.00000
          19                86 y            86 z         1.00000
          20                89 y            89 z         1.00000
          21               103 y           103 z         1.00000
          22               111 y           111 z         1.00000
          23               112 y           112 z         1.00000
          24               113 y           113 z         1.00000
          25               114 y           114 z         1.00000
          26               127 y           127 z         1.00000
          27               129 y           129 z         1.00000
          28               134 y           134 z         1.00000
          29               135 y           135 z         1.00000
          30               138 y           138 z         1.00000
          31               139 y           139 z         1.00000
          32               142 y           142 z         1.00000
          33               143 y           143 z         1.00000
          34               144 y           144 z         1.00000
          35               149 y           149 z         1.00000
          36               150 y           150 z         1.00000
          37               155 y           155 z         1.00000
          38               158 y           158 z         1.00000
          39               159 y           159 z         1.00000
          40               164 y           164 z         1.00000
          41               165 y           165 z         1.00000
          42               172 y           172 z         1.00000
          43               175 y           175 z         1.00000
          44               181 y           181 z         1.00000
          45               184 y           184 z         1.00000
          46               185 y           185 z         1.00000
          47               191 y           191 z         1.00000
          48               193 y           193 z         1.00000
          49               194 y           194 z         1.00000
--------------------------------------------------------------------------------


  Components of defect energy : 

--------------------------------------------------------------------------------
  Region 1 - region 1                   =      8.31409922 eV
  Region 1 - region 2a (unrelaxed)      =     -0.03299084 eV
  Region 1 - 2a (relaxed - correction)  =     -0.27625000 eV
  Region 1 (Total)                      =      8.00485838 eV
  Region 2a                             =      0.13807450 eV
  Region 2b                             =     -0.40769481 eV
--------------------------------------------------------------------------------
  Total defect energy                   =      7.73523807 eV
--------------------------------------------------------------------------------

  Largest displacement in region 2 =   0.0166 Angstroms


  Number of variables =      486

  Maximum number of calculations  =        1000
  Maximum Hessian update interval =          10
  Maximum step size               =   1.0000000
  Maximum parameter tolerance     =   0.0000100
  Maximum function  tolerance     =   0.0000100
  Maximum gradient  tolerance     =   0.0010000

  Symmetry adapted optimisation

  Symmetry to be used for second derivatives

  Newton-Raphson optimiser to be used

  BFGS hessian update to be used

  Lower half triangular hessian to be used

  Start of defect optimisation :

  Cycle:      0 Defect Energy:   7.735238  Gnorm:     0.045165  CPU:    1.975
  ** Hessian calculated **
  Cycle:      1 Defect Energy:   5.893911  Gnorm:     0.024525  CPU:    6.045
  Cycle:      2 Defect Energy:   5.141428  Gnorm:     0.002482  CPU:    7.812
  Cycle:      3 Defect Energy:   5.132381  Gnorm:     0.001643  CPU:    8.438
  Cycle:      4 Defect Energy:   5.128425  Gnorm:     0.000965  CPU:    9.075
  Cycle:      5 Defect Energy:   5.126832  Gnorm:     0.000654  CPU:    9.700
  Cycle:      6 Defect Energy:   5.126075  Gnorm:     0.000447  CPU:   10.325
  Cycle:      7 Defect Energy:   5.125715  Gnorm:     0.000309  CPU:   10.951
  Cycle:      8 Defect Energy:   5.125547  Gnorm:     0.000214  CPU:   11.576
  Cycle:      9 Defect Energy:   5.125471  Gnorm:     0.000148  CPU:   12.188
  Cycle:     10 Defect Energy:   5.125438  Gnorm:     0.000103  CPU:   12.922
  ** Hessian calculated **
  Cycle:     11 Defect Energy:   5.125424  Gnorm:     0.000072  CPU:   15.113
  Cycle:     12 Defect Energy:   5.125420  Gnorm:     0.000050  CPU:   15.734


  **** Optimisation achieved ****


  Final defect energy  =        5.12541873
  Final defect Gnorm   =        0.00003533

  Components of defect energy : 

--------------------------------------------------------------------------------
  Region 1 - region 1                   =      6.56403693 eV
  Region 1 - region 2a (unrelaxed)      =     -0.92180492 eV
  Region 1 - 2a (relaxed - correction)  =     -0.21877928 eV
  Region 1 (Total)                      =      5.42345274 eV
  Region 2a                             =      0.10940893 eV
  Region 2b                             =     -0.40744294 eV
--------------------------------------------------------------------------------
  Total defect energy                   =      5.12541873 eV
--------------------------------------------------------------------------------

  Largest displacement in region 2 =   0.0166 Angstroms

  Final coordinates of region 1 :

--------------------------------------------------------------------------------
   No.  Atomic        x           y           z          Radius      Charge
        Label       (Angs)      (Angs)      (Angs)       (Angs)       (e) 
--------------------------------------------------------------------------------
     1  Na    c     2.202951    0.793062    0.793062    0.000000    1.000000
     2  O     c     2.202951    2.275834    2.275834    0.000000    0.183000
     3  Cl    c     4.565294   -0.079607   -0.079607    0.000000    1.485000
     4  Cl    c    -0.159392   -0.079607   -0.079607    0.000000    1.485000
     5  Na    c     4.361641    2.235154    2.235154    0.000000    1.000000
     6  Na    c     0.044261    2.235154    2.235154    0.000000    1.000000
     7  O     c     2.202951    2.150654   -2.286553    0.000000    0.183000
     8  O     c     2.202951   -2.286553    2.150654    0.000000    0.183000
     9  Na    c     2.202951    1.952543    4.369008    0.000000    1.000000
    10  Na    c     2.202951    4.369008    1.952543    0.000000    1.000000
    11  Na    c     2.202951   -2.366190    0.003812    0.000000    1.000000
    12  Na    c     2.202951    0.003812   -2.366190    0.000000    1.000000
    13  Cl    c     4.521693   -0.000420    4.507828    0.000000    1.485000
    14  Cl    c    -0.115791   -0.000420    4.507828    0.000000    1.485000
    15  Cl    c     4.521693    4.507828   -0.000420    0.000000    1.485000
    16  Cl    c    -0.115791    4.507828   -0.000420    0.000000    1.485000
    17  Na    c     4.334792    2.173767   -1.985261    0.000000    1.000000
    18  Na    c     0.071111    2.173767   -1.985261    0.000000    1.000000
    19  Na    c     4.334792   -1.985261    2.173767    0.000000    1.000000
    20  Na    c     0.071111   -1.985261    2.173767    0.000000    1.000000
    21  O     c     2.202951   -2.215253   -2.215253    0.000000    0.183000
    22  Na    c     2.202951   -1.836480    4.284752    0.000000    1.000000
    23  Na    c     2.202951    4.284752   -1.836480    0.000000    1.000000
    24  O     c     6.602338    2.213772    2.213772    0.000000    0.183000
    25  O     c    -2.196436    2.213772    2.213772    0.000000    0.183000
    26  Na    c     6.629443    2.207212    0.014716    0.000000    1.000000
    27  Na    c    -2.223540    2.207212    0.014716    0.000000    1.000000
    28  Na    c     6.629443    0.014716    2.207212    0.000000    1.000000
    29  Na    c    -2.223540    0.014716    2.207212    0.000000    1.000000
    30  Cl    c     4.496159    4.460378    4.460378    0.000000    1.485000
    31  Cl    c    -0.090257    4.460378    4.460378    0.000000    1.485000
    32  Na    c     4.408405   -2.193257   -2.193257    0.000000    1.000000
    33  Na    c    -0.002503   -2.193257   -2.193257    0.000000    1.000000
    34  O     c     2.202951    2.181326    6.611557    0.000000    0.183000
    35  O     c     2.202951    6.611557    2.181326    0.000000    0.183000
    36  O     c     6.586084    2.203998   -2.186627    0.000000    0.183000
    37  O     c    -2.180181    2.203998   -2.186627    0.000000    0.183000
    38  O     c     6.586084   -2.186627    2.203998    0.000000    0.183000
    39  O     c    -2.180181   -2.186627    2.203998    0.000000    0.183000
    40  Na    c     2.202951    2.358517   -4.408815    0.000000    1.000000
    41  Na    c     2.202951   -4.408815    2.358517    0.000000    1.000000
    42  Na    c     2.202951    6.760960   -0.001263    0.000000    1.000000
    43  Na    c     2.202951   -0.001263    6.760960    0.000000    1.000000
    44  Na    c     6.585984    2.203413    4.414845    0.000000    1.000000
    45  Na    c    -2.180082    2.203413    4.414845    0.000000    1.000000
    46  Na    c     6.585984    4.414845    2.203413    0.000000    1.000000
    47  Na    c    -2.180082    4.414845    2.203413    0.000000    1.000000
    48  Na    c     6.594874   -0.001053   -2.205492    0.000000    1.000000
    49  Na    c    -2.188971   -0.001053   -2.205492    0.000000    1.000000
    50  Na    c     6.594874   -2.205492   -0.001053    0.000000    1.000000
    51  Na    c    -2.188971   -2.205492   -0.001053    0.000000    1.000000
    52  Cl    c     4.433540   -0.069070   -4.465344    0.000000    1.485000
    53  Cl    c     4.433540   -4.465344   -0.069070    0.000000    1.485000
    54  Cl    c    -0.027637   -0.069070   -4.465344    0.000000    1.485000
    55  Cl    c    -0.027637   -4.465344   -0.069070    0.000000    1.485000
    56  Na    c     4.406829    2.197026    6.583128    0.000000    1.000000
    57  Na    c     4.406829    6.583128    2.197026    0.000000    1.000000
    58  Na    c    -0.000927    2.197026    6.583128    0.000000    1.000000
    59  Na    c    -0.000927    6.583128    2.197026    0.000000    1.000000
    60  O     c     2.202951    6.561726   -2.176845    0.000000    0.183000
    61  O     c     2.202951   -2.176845    6.561726    0.000000    0.183000
    62  Na    c     2.202951    6.496207    4.371932    0.000000    1.000000
    63  Na    c     2.202951    4.371932    6.496207    0.000000    1.000000
    64  Na    c     2.202951   -2.252012   -4.418288    0.000000    1.000000
    65  Na    c     2.202951   -4.418288   -2.252012    0.000000    1.000000
    66  O     c     6.618471   -2.215501   -2.215501    0.000000    0.183000
    67  O     c    -2.212568   -2.215501   -2.215501    0.000000    0.183000
    68  Na    c     6.577862   -2.189430    4.401726    0.000000    1.000000
    69  Na    c    -2.171960   -2.189430    4.401726    0.000000    1.000000
    70  Na    c     6.577862    4.401726   -2.189430    0.000000    1.000000
    71  Na    c    -2.171960    4.401726   -2.189430    0.000000    1.000000
    72  Cl    c     8.836605    0.005628    0.005628    0.000000    1.485000
    73  Cl    c    -4.430703    0.005628    0.005628    0.000000    1.485000
    74  Na    c     8.805482    2.232931    2.232931    0.000000    1.000000
    75  Na    c    -4.399580    2.232931    2.232931    0.000000    1.000000
    76  Cl    c     4.454336    4.439855   -4.470740    0.000000    1.485000
    77  Cl    c     4.454336   -4.470740    4.439855    0.000000    1.485000
    78  Cl    c    -0.048434    4.439855   -4.470740    0.000000    1.485000
    79  Cl    c    -0.048434   -4.470740    4.439855    0.000000    1.485000
    80  Na    c     4.400427    6.548329   -2.199375    0.000000    1.000000
    81  Na    c     4.400427   -2.199375    6.548329    0.000000    1.000000
    82  Na    c     0.005476    6.548329   -2.199375    0.000000    1.000000
    83  Na    c     0.005476   -2.199375    6.548329    0.000000    1.000000
    84  O     c     6.617949    2.208934    6.621914    0.000000    0.183000
    85  O     c     6.617949    6.621914    2.208934    0.000000    0.183000
    86  O     c    -2.212047    2.208934    6.621914    0.000000    0.183000
    87  O     c    -2.212047    6.621914    2.208934    0.000000    0.183000
    88  Na    c     6.482823    2.213017   -4.382446    0.000000    1.000000
    89  Na    c    -2.076921    2.213017   -4.382446    0.000000    1.000000
    90  Na    c     6.482823   -4.382446    2.213017    0.000000    1.000000
    91  Na    c    -2.076921   -4.382446    2.213017    0.000000    1.000000
    92  Na    c     6.591569    6.602286   -0.001930    0.000000    1.000000
    93  Na    c    -2.185667    6.602286   -0.001930    0.000000    1.000000
    94  Na    c     6.591569   -0.001930    6.602286    0.000000    1.000000
    95  Na    c    -2.185667   -0.001930    6.602286    0.000000    1.000000
    96  Cl    c     8.838030    0.005852    4.408178    0.000000    1.485000
    97  Cl    c     8.838030    4.408178    0.005852    0.000000    1.485000
    98  Cl    c    -4.432127    0.005852    4.408178    0.000000    1.485000
    99  Cl    c    -4.432127    4.408178    0.005852    0.000000    1.485000
   100  Na    c     8.790841    2.208534   -2.240366    0.000000    1.000000
   101  Na    c     8.790841   -2.240366    2.208534    0.000000    1.000000
   102  Na    c    -4.384939    2.208534   -2.240366    0.000000    1.000000
   103  Na    c    -4.384939   -2.240366    2.208534    0.000000    1.000000
   104  O     c     2.202951    2.208822   -6.626093    0.000000    0.183000
   105  O     c     2.202951   -6.626093    2.208822    0.000000    0.183000
   106  O     c     2.202951    6.585553    6.585553    0.000000    0.183000
   107  Na    c     2.202951    2.280925    8.811200    0.000000    1.000000
   108  Na    c     2.202951    8.811200    2.280925    0.000000    1.000000
   109  Na    c     2.202951    6.396887   -4.376052    0.000000    1.000000
   110  Na    c     2.202951   -4.376052    6.396887    0.000000    1.000000
   111  Na    c     2.202951   -6.532190    0.003181    0.000000    1.000000
   112  Na    c     2.202951    0.003181   -6.532190    0.000000    1.000000
   113  O     c     6.615060    6.613281   -2.212463    0.000000    0.183000
   114  O     c     6.615060   -2.212463    6.613281    0.000000    0.183000
   115  O     c    -2.209158    6.613281   -2.212463    0.000000    0.183000
   116  O     c    -2.209158   -2.212463    6.613281    0.000000    0.183000
   117  Na    c     6.600893    6.597433    4.409705    0.000000    1.000000
   118  Na    c    -2.194991    6.597433    4.409705    0.000000    1.000000
   119  Na    c     6.600893    4.409705    6.597433    0.000000    1.000000
   120  Na    c    -2.194991    4.409705    6.597433    0.000000    1.000000
   121  Na    c     6.592308   -2.203466   -4.410459    0.000000    1.000000
   122  Na    c    -2.186405   -2.203466   -4.410459    0.000000    1.000000
   123  Na    c     6.592308   -4.410459   -2.203466    0.000000    1.000000
   124  Na    c    -2.186405   -4.410459   -2.203466    0.000000    1.000000
   125  Cl    c     4.407689   -0.003682    8.838294    0.000000    1.485000
   126  Cl    c    -0.001786   -0.003682    8.838294    0.000000    1.485000
   127  Cl    c     4.407689    8.838294   -0.003682    0.000000    1.485000
   128  Cl    c    -0.001786    8.838294   -0.003682    0.000000    1.485000
   129  Cl    c     4.400954   -4.428054   -4.428054    0.000000    1.485000
   130  Cl    c     0.004948   -4.428054   -4.428054    0.000000    1.485000
   131  Cl    c     8.842240    4.412075    4.412075    0.000000    1.485000
   132  Cl    c    -4.436338    4.412075    4.412075    0.000000    1.485000
   133  Na    c     4.399066    2.191061   -6.622863    0.000000    1.000000
   134  Na    c     0.006837    2.191061   -6.622863    0.000000    1.000000
   135  Na    c     4.399066   -6.622863    2.191061    0.000000    1.000000
   136  Na    c     0.006837   -6.622863    2.191061    0.000000    1.000000
   137  Na    c     4.407886    6.586909    6.586909    0.000000    1.000000
   138  Na    c    -0.001984    6.586909    6.586909    0.000000    1.000000
   139  Na    c     8.807069   -2.209350   -2.209350    0.000000    1.000000
   140  Na    c    -4.401167   -2.209350   -2.209350    0.000000    1.000000
   141  O     c     2.202951   -2.210377   -6.616558    0.000000    0.183000
   142  O     c     2.202951   -6.616558   -2.210377    0.000000    0.183000
   143  Na    c     2.202951   -2.306447    8.782044    0.000000    1.000000
   144  Na    c     2.202951    8.782044   -2.306447    0.000000    1.000000
   145  Na    c     2.202951   -6.709436    4.402890    0.000000    1.000000
   146  Na    c     2.202951    4.402890   -6.709436    0.000000    1.000000
   147  Cl    c     4.407698    4.410131    8.832113    0.000000    1.485000
   148  Cl    c    -0.001796    4.410131    8.832113    0.000000    1.485000
   149  Cl    c     4.407698    8.832113    4.410131    0.000000    1.485000
   150  Cl    c    -0.001796    8.832113    4.410131    0.000000    1.485000
   151  Cl    c     8.827129   -0.002443   -4.411965    0.000000    1.485000
   152  Cl    c    -4.421226   -0.002443   -4.411965    0.000000    1.485000
   153  Cl    c     8.827129   -4.411965   -0.002443    0.000000    1.485000
   154  Cl    c    -4.421226   -4.411965   -0.002443    0.000000    1.485000
   155  Na    c     4.407751   -2.187167   -6.604536    0.000000    1.000000
   156  Na    c    -0.001848   -2.187167   -6.604536    0.000000    1.000000
   157  Na    c     4.407751   -6.604536   -2.187167    0.000000    1.000000
   158  Na    c    -0.001848   -6.604536   -2.187167    0.000000    1.000000
   159  Na    c     8.811096    2.200626    6.603454    0.000000    1.000000
   160  Na    c    -4.405194    2.200626    6.603454    0.000000    1.000000
   161  Na    c     8.811096    6.603454    2.200626    0.000000    1.000000
   162  Na    c    -4.405194    6.603454    2.200626    0.000000    1.000000
   163  O     c     6.599846    2.198574   -6.601606    0.000000    0.183000
   164  O     c    -2.193944    2.198574   -6.601606    0.000000    0.183000
   165  O     c     6.599846   -6.601606    2.198574    0.000000    0.183000
   166  O     c    -2.193944   -6.601606    2.198574    0.000000    0.183000
   167  O     c     6.619391    6.617371    6.617371    0.000000    0.183000
   168  O     c    -2.213488    6.617371    6.617371    0.000000    0.183000
   169  Na    c     6.599000    2.204637    8.811359    0.000000    1.000000
   170  Na    c    -2.193097    2.204637    8.811359    0.000000    1.000000
   171  Na    c     6.599000    8.811359    2.204637    0.000000    1.000000
   172  Na    c    -2.193097    8.811359    2.204637    0.000000    1.000000
   173  Na    c     6.604053    6.591659   -4.407357    0.000000    1.000000
   174  Na    c    -2.198151    6.591659   -4.407357    0.000000    1.000000
   175  Na    c     6.604053   -4.407357    6.591659    0.000000    1.000000
   176  Na    c    -2.198151   -4.407357    6.591659    0.000000    1.000000
   177  Na    c     6.613577   -0.002044   -6.581122    0.000000    1.000000
   178  Na    c    -2.207675   -0.002044   -6.581122    0.000000    1.000000
   179  Na    c     6.613577   -6.581122   -0.002044    0.000000    1.000000
   180  Na    c    -2.207675   -6.581122   -0.002044    0.000000    1.000000
   181  O     c    11.012929    2.205500    2.205500    0.000000    0.183000
   182  O     c    -6.607027    2.205500    2.205500    0.000000    0.183000
   183  Na    c    10.968262    2.200765    0.000198    0.000000    1.000000
   184  Na    c    -6.562359    2.200765    0.000198    0.000000    1.000000
   185  Na    c    10.968262    0.000198    2.200765    0.000000    1.000000
   186  Na    c    -6.562359    0.000198    2.200765    0.000000    1.000000
   187  Cl    c     8.831165    4.411832   -4.408189    0.000000    1.485000
   188  Cl    c     8.831165   -4.408189    4.411832    0.000000    1.485000
   189  Cl    c    -4.425262    4.411832   -4.408189    0.000000    1.485000
   190  Cl    c    -4.425262   -4.408189    4.411832    0.000000    1.485000
   191  Na    c     8.808386    6.606215   -2.197892    0.000000    1.000000
   192  Na    c     8.808386   -2.197892    6.606215    0.000000    1.000000
   193  Na    c    -4.402484    6.606215   -2.197892    0.000000    1.000000
   194  Na    c    -4.402484   -2.197892    6.606215    0.000000    1.000000
   195  O     c     2.202951    6.593176   -6.602153    0.000000    0.183000
   196  O     c     2.202951   -6.602153    6.593176    0.000000    0.183000
   197  O     c     6.615480   -2.209694   -6.616680    0.000000    0.183000
   198  O     c    -2.209577   -2.209694   -6.616680    0.000000    0.183000
   199  O     c     6.615480   -6.616680   -2.209694    0.000000    0.183000
   200  O     c    -2.209577   -6.616680   -2.209694    0.000000    0.183000
   201  Na    c     2.202951    6.569712    8.792058    0.000000    1.000000
   202  Na    c     2.202951    8.792058    6.569712    0.000000    1.000000
   203  Na    c     2.202951   -6.626818   -4.410260    0.000000    1.000000
   204  Na    c     2.202951   -4.410260   -6.626818    0.000000    1.000000
   205  Na    c     6.591376   -2.212709    8.808348    0.000000    1.000000
   206  Na    c    -2.185473   -2.212709    8.808348    0.000000    1.000000
   207  Na    c     6.591376    8.808348   -2.212709    0.000000    1.000000
   208  Na    c    -2.185473    8.808348   -2.212709    0.000000    1.000000
   209  Na    c     6.587371    4.405072   -6.597816    0.000000    1.000000
   210  Na    c    -2.181469    4.405072   -6.597816    0.000000    1.000000
   211  Na    c     6.587371   -6.597816    4.405072    0.000000    1.000000
   212  Na    c    -2.181469   -6.597816    4.405072    0.000000    1.000000
   213  O     c    11.006826    2.203985   -2.203381    0.000000    0.183000
   214  O     c    11.006826   -2.203381    2.203985    0.000000    0.183000
   215  O     c    -6.600924    2.203985   -2.203381    0.000000    0.183000
   216  O     c    -6.600924   -2.203381    2.203985    0.000000    0.183000
   217  Na    c    11.016757    2.200458    4.406944    0.000000    1.000000
   218  Na    c    -6.610854    2.200458    4.406944    0.000000    1.000000
   219  Na    c    11.016757    4.406944    2.200458    0.000000    1.000000
   220  Na    c    -6.610854    4.406944    2.200458    0.000000    1.000000
   221  Na    c    10.990666   -2.200333    0.002306    0.000000    1.000000
   222  Na    c    -6.584764   -2.200333    0.002306    0.000000    1.000000
   223  Na    c    10.990666    0.002306   -2.200333    0.000000    1.000000
   224  Na    c    -6.584764    0.002306   -2.200333    0.000000    1.000000
   225  Cl    c     4.410538    8.829575   -4.405722    0.000000    1.485000
   226  Cl    c     4.410538   -4.405722    8.829575    0.000000    1.485000
   227  Cl    c    -0.004635    8.829575   -4.405722    0.000000    1.485000
   228  Cl    c    -0.004635   -4.405722    8.829575    0.000000    1.485000
   229  Na    c     4.405173    6.604801   -6.582012    0.000000    1.000000
   230  Na    c     4.405173   -6.582012    6.604801    0.000000    1.000000
   231  Na    c     0.000730    6.604801   -6.582012    0.000000    1.000000
   232  Na    c     0.000730   -6.582012    6.604801    0.000000    1.000000
   233  O     c     2.202951    2.208740   11.015659    0.000000    0.183000
   234  O     c     2.202951   11.015659    2.208740    0.000000    0.183000
   235  O     c    11.012290   -2.201725   -2.201725    0.000000    0.183000
   236  O     c    -6.606387   -2.201725   -2.201725    0.000000    0.183000
   237  Na    c     2.202951    2.160123   -8.819642    0.000000    1.000000
   238  Na    c     2.202951   -8.819642    2.160123    0.000000    1.000000
   239  Na    c     2.202951   10.961591   -0.005080    0.000000    1.000000
   240  Na    c     2.202951   -0.005080   10.961591    0.000000    1.000000
   241  Na    c    11.002718   -2.197876    4.405771    0.000000    1.000000
   242  Na    c    -6.596816   -2.197876    4.405771    0.000000    1.000000
   243  Na    c    11.002718    4.405771   -2.197876    0.000000    1.000000
   244  Na    c    -6.596816    4.405771   -2.197876    0.000000    1.000000
   245  Cl    c     4.408430   -0.002047   -8.836612    0.000000    1.485000
   246  Cl    c    -0.002528   -0.002047   -8.836612    0.000000    1.485000
   247  Cl    c     4.408430   -8.836612   -0.002047    0.000000    1.485000
   248  Cl    c    -0.002528   -8.836612   -0.002047    0.000000    1.485000
   249  Cl    c     8.825324    0.001648    8.824308    0.000000    1.485000
   250  Cl    c     8.825324    8.824308    0.001648    0.000000    1.485000
   251  Cl    c    -4.419421    0.001648    8.824308    0.000000    1.485000
   252  Cl    c    -4.419421    8.824308    0.001648    0.000000    1.485000
   253  Cl    c     8.825261   -4.419930   -4.419930    0.000000    1.485000
   254  Cl    c    -4.419359   -4.419930   -4.419930    0.000000    1.485000
   255  Na    c     4.403853    2.189427   11.011090    0.000000    1.000000
   256  Na    c     0.002050    2.189427   11.011090    0.000000    1.000000
   257  Na    c     4.403853   11.011090    2.189427    0.000000    1.000000
   258  Na    c     0.002050   11.011090    2.189427    0.000000    1.000000
   259  Na    c     8.801100    2.218693   -6.559518    0.000000    1.000000
   260  Na    c     8.801100   -6.559518    2.218693    0.000000    1.000000
   261  Na    c    -4.395198    2.218693   -6.559518    0.000000    1.000000
   262  Na    c    -4.395198   -6.559518    2.218693    0.000000    1.000000
   263  Na    c     8.814685    6.609842    6.609842    0.000000    1.000000
   264  Na    c    -4.408782    6.609842    6.609842    0.000000    1.000000
   265  O     c     2.202951   11.005609   -2.214653    0.000000    0.183000
   266  O     c     2.202951   -2.214653   11.005609    0.000000    0.183000
   267  O     c     6.614249    6.614103   -6.612902    0.000000    0.183000
   268  O     c     6.614249   -6.612902    6.614103    0.000000    0.183000
   269  O     c    -2.208347    6.614103   -6.612902    0.000000    0.183000
   270  O     c    -2.208347   -6.612902    6.614103    0.000000    0.183000
   271  O     c    11.019232    2.203679    6.609594    0.000000    0.183000
   272  O     c    11.019232    6.609594    2.203679    0.000000    0.183000
   273  O     c    -6.613330    2.203679    6.609594    0.000000    0.183000
   274  O     c    -6.613330    6.609594    2.203679    0.000000    0.183000
   275  Na    c     2.202951   11.029820    4.408704    0.000000    1.000000
   276  Na    c     2.202951    4.408704   11.029820    0.000000    1.000000
   277  Na    c     2.202951   -2.177859   -8.809086    0.000000    1.000000
   278  Na    c     2.202951   -8.809086   -2.177859    0.000000    1.000000
   279  Na    c     6.609232    6.609603    8.810245    0.000000    1.000000
   280  Na    c    -2.203329    6.609603    8.810245    0.000000    1.000000
   281  Na    c     6.609232    8.810245    6.609603    0.000000    1.000000
   282  Na    c    -2.203329    8.810245    6.609603    0.000000    1.000000
   283  Na    c     6.605633   -6.612253   -4.408216    0.000000    1.000000
   284  Na    c    -2.199730   -6.612253   -4.408216    0.000000    1.000000
   285  Na    c     6.605633   -4.408216   -6.612253    0.000000    1.000000
   286  Na    c    -2.199730   -4.408216   -6.612253    0.000000    1.000000
   287  Na    c    11.024324    2.205479   -4.403218    0.000000    1.000000
   288  Na    c    -6.618422    2.205479   -4.403218    0.000000    1.000000
   289  Na    c    11.024324   -4.403218    2.205479    0.000000    1.000000
   290  Na    c    -6.618422   -4.403218    2.205479    0.000000    1.000000
   291  Na    c    11.008742    6.608590    0.000585    0.000000    1.000000
   292  Na    c    -6.602840    6.608590    0.000585    0.000000    1.000000
   293  Na    c    11.008742    0.000585    6.608590    0.000000    1.000000
   294  Na    c    -6.602840    0.000585    6.608590    0.000000    1.000000
   295  Cl    c     8.829073    8.826457    4.412211    0.000000    1.485000
   296  Cl    c    -4.423171    8.826457    4.412211    0.000000    1.485000
   297  Cl    c     8.829073    4.412211    8.826457    0.000000    1.485000
   298  Cl    c    -4.423171    4.412211    8.826457    0.000000    1.485000
   299  Na    c     8.811186   -6.602919   -2.213399    0.000000    1.000000
   300  Na    c    -4.405284   -6.602919   -2.213399    0.000000    1.000000
   301  Na    c     8.811186   -2.213399   -6.602919    0.000000    1.000000
   302  Na    c    -4.405284   -2.213399   -6.602919    0.000000    1.000000
   303  Cl    c     4.408381    4.407025   -8.834516    0.000000    1.485000
   304  Cl    c     4.408381   -8.834516    4.407025    0.000000    1.485000
   305  Cl    c    -0.002478    4.407025   -8.834516    0.000000    1.485000
   306  Cl    c    -0.002478   -8.834516    4.407025    0.000000    1.485000
   307  Na    c     4.403800   10.999148   -2.194807    0.000000    1.000000
   308  Na    c     4.403800   -2.194807   10.999148    0.000000    1.000000
   309  Na    c     0.002102   10.999148   -2.194807    0.000000    1.000000
   310  Na    c     0.002102   -2.194807   10.999148    0.000000    1.000000
   311  O     c     2.202951   -6.615361   -6.615361    0.000000    0.183000
   312  O     c     6.609427    2.201937   11.017855    0.000000    0.183000
   313  O     c     6.609427   11.017855    2.201937    0.000000    0.183000
   314  O     c    -2.203524    2.201937   11.017855    0.000000    0.183000
   315  O     c    -2.203524   11.017855    2.201937    0.000000    0.183000
   316  O     c    11.017031    6.611360   -2.201812    0.000000    0.183000
   317  O     c    11.017031   -2.201812    6.611360    0.000000    0.183000
   318  O     c    -6.611129    6.611360   -2.201812    0.000000    0.183000
   319  O     c    -6.611129   -2.201812    6.611360    0.000000    0.183000
   320  Na    c     2.202951   -6.536215    8.794994    0.000000    1.000000
   321  Na    c     2.202951    8.794994   -6.536215    0.000000    1.000000
   322  Na    c     6.616271    2.198835   -8.804134    0.000000    1.000000
   323  Na    c    -2.210369    2.198835   -8.804134    0.000000    1.000000
   324  Na    c     6.616271   -8.804134    2.198835    0.000000    1.000000
   325  Na    c    -2.210369   -8.804134    2.198835    0.000000    1.000000
   326  Na    c     6.609335   11.004189   -0.001791    0.000000    1.000000
   327  Na    c    -2.203432   11.004189   -0.001791    0.000000    1.000000
   328  Na    c     6.609335   -0.001791   11.004189    0.000000    1.000000
   329  Na    c    -2.203432   -0.001791   11.004189    0.000000    1.000000
   330  Na    c    11.008385    6.606098    4.406453    0.000000    1.000000
   331  Na    c    -6.602483    6.606098    4.406453    0.000000    1.000000
   332  Na    c    11.008385    4.406453    6.606098    0.000000    1.000000
   333  Na    c    -6.602483    4.406453    6.606098    0.000000    1.000000
   334  Na    c    11.009791   -2.197242   -4.403519    0.000000    1.000000
   335  Na    c    -6.603888   -2.197242   -4.403519    0.000000    1.000000
   336  Na    c    11.009791   -4.403519   -2.197242    0.000000    1.000000
   337  Na    c    -6.603888   -4.403519   -2.197242    0.000000    1.000000
   338  Cl    c     4.412468    8.821285    8.821285    0.000000    1.485000
   339  Cl    c    -0.006566    8.821285    8.821285    0.000000    1.485000
   340  Cl    c    13.238764   -0.001547   -0.001547    0.000000    1.485000
   341  Cl    c    -8.832862   -0.001547   -0.001547    0.000000    1.485000
   342  Na    c     4.406259   -6.605070   -6.605070    0.000000    1.000000
   343  Na    c    -0.000357   -6.605070   -6.605070    0.000000    1.000000
   344  Na    c    13.211999    2.190405    2.190405    0.000000    1.000000
   345  Na    c    -8.806096    2.190405    2.190405    0.000000    1.000000
   346  O     c     6.612086   11.019761   -2.205271    0.000000    0.183000
   347  O     c    -2.206183   11.019761   -2.205271    0.000000    0.183000
   348  O     c     6.612086   -2.205271   11.019761    0.000000    0.183000
   349  O     c    -2.206183   -2.205271   11.019761    0.000000    0.183000
   350  Na    c     6.597158   11.004540    4.404149    0.000000    1.000000
   351  Na    c    -2.191256   11.004540    4.404149    0.000000    1.000000
   352  Na    c     6.597158    4.404149   11.004540    0.000000    1.000000
   353  Na    c    -2.191256    4.404149   11.004540    0.000000    1.000000
   354  Na    c     6.608148   -8.810671   -2.194107    0.000000    1.000000
   355  Na    c    -2.202245   -8.810671   -2.194107    0.000000    1.000000
   356  Na    c     6.608148   -2.194107   -8.810671    0.000000    1.000000
   357  Na    c    -2.202245   -2.194107   -8.810671    0.000000    1.000000
   358  O     c     2.202951    6.610218   11.014403    0.000000    0.183000
   359  O     c     2.202951   11.014403    6.610218    0.000000    0.183000
[...]
    115 y         11.014756     11.019761     0.005006    Cartesian    0.05
    115 z         -2.202951     -2.205271    -0.002320    Cartesian    0.11
    116 x          6.608853      6.597158    -0.011695    Cartesian   -0.18
    116 y         11.014756     11.004540    -0.010216    Cartesian   -0.09
    116 z          4.405902      4.404149    -0.001753    Cartesian   -0.04
    117 x          6.608853      6.608148    -0.000706    Cartesian   -0.01
    117 y         -8.811805     -8.810671     0.001133    Cartesian   -0.01
    117 z         -2.202951     -2.194107     0.008844    Cartesian   -0.40
    118 x          2.202951      2.202951     0.000000    Cartesian    0.00
    118 y          6.608853      6.610218     0.001365    Cartesian    0.02
    118 z         11.014756     11.014403    -0.000353    Cartesian   -0.00
    119 x          2.202951      2.202951     0.000000    Cartesian    0.00
    119 y          6.608853      6.642043     0.033190    Cartesian    0.50
    119 z         -8.811805     -8.804741     0.007064    Cartesian   -0.08
    120 x          2.202951      2.202951     0.000000    Cartesian    0.00
    120 y         11.014756     11.026617     0.011862    Cartesian    0.11
    120 z         -4.405902     -4.407437    -0.001534    Cartesian    0.03
    121 x          4.405902      4.411023     0.005120    Cartesian    0.12
    121 y         -4.405902     -4.420970    -0.015068    Cartesian    0.34
    121 z         -8.811805     -8.830809    -0.019004    Cartesian    0.22
    122 x          8.811805      8.827672     0.015868    Cartesian    0.18
    122 y          8.811805      8.828941     0.017137    Cartesian    0.19
    122 z         -4.405902     -4.416265    -0.010362    Cartesian    0.24
    123 x         13.217707     13.238726     0.021019    Cartesian    0.16
    123 y          0.000000     -0.002312    -0.002312    Cartesian    0.00
    123 z          4.405902      4.410142     0.004239    Cartesian    0.10
    124 x          4.405902      4.403890    -0.002012    Cartesian   -0.05
    124 y          6.608853      6.606146    -0.002708    Cartesian   -0.04
    124 z         11.014756     10.991749    -0.023006    Cartesian   -0.21
    125 x          8.811805      8.809113    -0.002692    Cartesian   -0.03
    125 y          6.608853      6.601589    -0.007265    Cartesian   -0.11
    125 z         -6.608853     -6.603907     0.004947    Cartesian   -0.07
    126 x         13.217707     13.209163    -0.008544    Cartesian   -0.06
    126 y          2.202951      2.200101    -0.002850    Cartesian   -0.13
    126 z         -2.202951     -2.183836     0.019115    Cartesian   -0.87
    127 x          6.608853      6.612290     0.003437    Cartesian    0.05
    127 y         -6.608853     -6.614934    -0.006080    Cartesian    0.09
    127 z         -6.608853     -6.614934    -0.006080    Cartesian    0.09
    128 x         11.014756     11.018336     0.003580    Cartesian    0.03
    128 y          2.202951      2.205885     0.002934    Cartesian    0.13
    128 z         -6.608853     -6.609627    -0.000773    Cartesian    0.01
    129 x         11.014756     11.021326     0.006570    Cartesian    0.06
    129 y          6.608853      6.613279     0.004426    Cartesian    0.07
    129 z          6.608853      6.613279     0.004426    Cartesian    0.07
    130 x          6.608853      6.604461    -0.004393    Cartesian   -0.07
    130 y         -6.608853     -6.598475     0.010379    Cartesian   -0.16
    130 z          8.811805      8.809213    -0.002592    Cartesian   -0.03
    131 x         11.014756     11.002376    -0.012379    Cartesian   -0.11
    131 y          2.202951      2.202826    -0.000125    Cartesian   -0.01
    131 z          8.811805      8.809071    -0.002733    Cartesian   -0.03
    132 x         11.014756     10.998833    -0.015923    Cartesian   -0.14
    132 y          6.608853      6.600477    -0.008377    Cartesian   -0.13
    132 z         -4.405902     -4.403215     0.002688    Cartesian   -0.06
    133 x         11.014756     10.992915    -0.021841    Cartesian   -0.20
    133 y          0.000000      0.002658     0.002658    Cartesian    0.00
    133 z         -6.608853     -6.601946     0.006908    Cartesian   -0.10
    134 x         13.217707     13.238693     0.020986    Cartesian    0.16
    134 y          4.405902      4.412823     0.006921    Cartesian    0.16
    134 z          4.405902      4.412823     0.006921    Cartesian    0.16
    135 x         13.217707     13.210300    -0.007406    Cartesian   -0.06
    135 y         -2.202951     -2.191884     0.011067    Cartesian   -0.50
    135 z         -2.202951     -2.191884     0.011067    Cartesian   -0.50
    136 x          8.811805      8.823960     0.012155    Cartesian    0.14
    136 y          0.000000     -0.003915    -0.003915    Cartesian    0.00
    136 z         -8.811805     -8.833395    -0.021591    Cartesian    0.25
    137 x          8.811805      8.808604    -0.003200    Cartesian   -0.04
    137 y          2.202951      2.203591     0.000639    Cartesian    0.03
    137 z         11.014756     10.999538    -0.015217    Cartesian   -0.14
    138 x          2.202951      2.202951     0.000000    Cartesian    0.00
    138 y          2.202951      2.275859     0.072908    Cartesian    3.31
    138 z          2.202951      2.275859     0.072908    Cartesian    3.31
    139 x          4.405902      4.554636     0.148734    Cartesian    3.38
    139 y          0.000000     -0.077452    -0.077452    Cartesian    0.00
    139 z          0.000000     -0.077452    -0.077452    Cartesian    0.00
    140 x          2.202951      2.202951     0.000000    Cartesian    0.00
    140 y          2.202951      2.150655    -0.052296    Cartesian   -2.37
    140 z         -2.202951     -2.286829    -0.083878    Cartesian    3.81
    141 x          4.405902      4.530747     0.124845    Cartesian    2.83
    141 y          0.000000     -0.005711    -0.005711    Cartesian    0.00
    141 z          4.405902      4.520516     0.114614    Cartesian    2.60
    142 x          2.202951      2.202951     0.000000    Cartesian    0.00
    142 y         -2.202951     -2.215301    -0.012350    Cartesian    0.56
    142 z         -2.202951     -2.215301    -0.012350    Cartesian    0.56
    143 x          6.608853      6.602383    -0.006470    Cartesian   -0.10
    143 y          2.202951      2.213774     0.010822    Cartesian    0.49
    143 z          2.202951      2.213774     0.010822    Cartesian    0.49
    144 x          4.405902      4.508798     0.102896    Cartesian    2.34
    144 y          4.405902      4.470191     0.064289    Cartesian    1.46
    144 z          4.405902      4.470191     0.064289    Cartesian    1.46
    145 x          2.202951      2.202951     0.000000    Cartesian    0.00
    145 y          2.202951      2.181308    -0.021643    Cartesian   -0.98
    145 z          6.608853      6.611611     0.002758    Cartesian    0.04
    146 x          6.608853      6.586133    -0.022721    Cartesian   -0.34
    146 y          2.202951      2.204005     0.001054    Cartesian    0.05
    146 z         -2.202951     -2.186615     0.016337    Cartesian   -0.74
    147 x          4.405902      4.437530     0.031627    Cartesian    0.72
    147 y          0.000000     -0.078431    -0.078431    Cartesian    0.00
    147 z         -4.405902     -4.473215    -0.067312    Cartesian    1.53
    148 x          2.202951      2.202951     0.000000    Cartesian    0.00
    148 y          6.608853      6.561809    -0.047044    Cartesian   -0.71
    148 z         -2.202951     -2.176806     0.026145    Cartesian   -1.19
    149 x          6.608853      6.618479     0.009625    Cartesian    0.15
    149 y         -2.202951     -2.215515    -0.012563    Cartesian    0.57
    149 z         -2.202951     -2.215515    -0.012563    Cartesian    0.57
    150 x          8.811805      8.841585     0.029781    Cartesian    0.34
    150 y          0.000000      0.006506     0.006506    Cartesian    0.00
    150 z          0.000000      0.006506     0.006506    Cartesian    0.00
    151 x          4.405902      4.461000     0.055098    Cartesian    1.25
    151 y          4.405902      4.447054     0.041152    Cartesian    0.93
    151 z         -4.405902     -4.481318    -0.075416    Cartesian    1.71
    152 x          6.608853      6.617954     0.009100    Cartesian    0.14
    152 y          2.202951      2.208940     0.005989    Cartesian    0.27
    152 z          6.608853      6.621917     0.013064    Cartesian    0.20
    153 x          8.811805      8.842111     0.030307    Cartesian    0.34
    153 y          0.000000      0.006701     0.006701    Cartesian    0.00
    153 z          4.405902      4.407953     0.002050    Cartesian    0.05
    154 x          2.202951      2.202951     0.000000    Cartesian    0.00
    154 y          2.202951      2.208846     0.005895    Cartesian    0.27
    154 z         -6.608853     -6.626124    -0.017270    Cartesian    0.26
    155 x          2.202951      2.202951     0.000000    Cartesian    0.00
    155 y          6.608853      6.585546    -0.023308    Cartesian   -0.35
    155 z          6.608853      6.585546    -0.023308    Cartesian   -0.35
    156 x          6.608853      6.615070     0.006216    Cartesian    0.09
    156 y          6.608853      6.613282     0.004429    Cartesian    0.07
    156 z         -2.202951     -2.212472    -0.009521    Cartesian    0.43
    157 x          4.405902      4.407143     0.001240    Cartesian    0.03
    157 y          0.000000     -0.003362    -0.003362    Cartesian    0.00
    157 z          8.811805      8.841180     0.029375    Cartesian    0.33
    158 x          4.405902      4.399738    -0.006164    Cartesian   -0.14
    158 y         -4.405902     -4.429521    -0.023619    Cartesian    0.54
    158 z         -4.405902     -4.429521    -0.023619    Cartesian    0.54
    159 x          8.811805      8.846047     0.034242    Cartesian    0.39
    159 y          4.405902      4.412318     0.006416    Cartesian    0.15
    159 z          4.405902      4.412318     0.006416    Cartesian    0.15
    160 x          2.202951      2.202951     0.000000    Cartesian    0.00
    160 y         -2.202951     -2.210388    -0.007437    Cartesian    0.34
    160 z         -6.608853     -6.616548    -0.007695    Cartesian    0.12
    161 x          4.405902      4.408068     0.002165    Cartesian    0.05
    161 y          4.405902      4.410748     0.004845    Cartesian    0.11
    161 z          8.811805      8.836478     0.024673    Cartesian    0.28
    162 x          8.811805      8.831038     0.019234    Cartesian    0.22
    162 y          0.000000     -0.003498    -0.003498    Cartesian    0.00
    162 z         -4.405902     -4.413303    -0.007401    Cartesian    0.17
    163 x          6.608853      6.599829    -0.009025    Cartesian   -0.14
    163 y          2.202951      2.198572    -0.004379    Cartesian   -0.20
    163 z         -6.608853     -6.601621     0.007232    Cartesian   -0.11
    164 x          6.608853      6.619400     0.010546    Cartesian    0.16
    164 y          6.608853      6.617377     0.008523    Cartesian    0.13
    164 z          6.608853      6.617377     0.008523    Cartesian    0.13
    165 x         11.014756     11.012924    -0.001831    Cartesian   -0.02
    165 y          2.202951      2.205505     0.002554    Cartesian    0.12
    165 z          2.202951      2.205505     0.002554    Cartesian    0.12
    166 x          8.811805      8.835522     0.023717    Cartesian    0.27
    166 y          4.405902      4.413142     0.007239    Cartesian    0.16
    166 z         -4.405902     -4.409353    -0.003450    Cartesian    0.08
    167 x          2.202951      2.202951     0.000000    Cartesian    0.00
    167 y          6.608853      6.593146    -0.015708    Cartesian   -0.24
    167 z         -6.608853     -6.602191     0.006663    Cartesian   -0.10
    168 x          6.608853      6.615486     0.006633    Cartesian    0.10
    168 y         -2.202951     -2.209698    -0.006747    Cartesian    0.31
    168 z         -6.608853     -6.616682    -0.007829    Cartesian    0.12
    169 x         11.014756     11.006835    -0.007921    Cartesian   -0.07
    169 y          2.202951      2.203984     0.001033    Cartesian    0.05
    169 z         -2.202951     -2.203387    -0.000436    Cartesian    0.02
    170 x          4.405902      4.411089     0.005187    Cartesian    0.12
    170 y          8.811805      8.834329     0.022525    Cartesian    0.26
    170 z         -4.405902     -4.406062    -0.000160    Cartesian    0.00
    171 x          2.202951      2.202951     0.000000    Cartesian    0.00
    171 y          2.202951      2.208762     0.005811    Cartesian    0.26
    171 z         11.014756     11.015655     0.000899    Cartesian    0.01
    172 x         11.014756     11.012289    -0.002466    Cartesian   -0.02
    172 y         -2.202951     -2.201726     0.001225    Cartesian   -0.06
    172 z         -2.202951     -2.201726     0.001225    Cartesian   -0.06
    173 x          4.405902      4.408220     0.002318    Cartesian    0.05
    173 y          0.000000     -0.001936    -0.001936    Cartesian    0.00
    173 z         -8.811805     -8.840099    -0.028295    Cartesian    0.32
    174 x          8.811805      8.827777     0.015972    Cartesian    0.18
    174 y          0.000000      0.002490     0.002490    Cartesian    0.00
    174 z          8.811805      8.826293     0.014488    Cartesian    0.16
    175 x          8.811805      8.827304     0.015499    Cartesian    0.18
    175 y         -4.405902     -4.421436    -0.015533    Cartesian    0.35
    175 z         -4.405902     -4.421436    -0.015533    Cartesian    0.35
    176 x          2.202951      2.202951     0.000000    Cartesian    0.00
    176 y         11.014756     11.005618    -0.009138    Cartesian   -0.08
    176 z         -2.202951     -2.214679    -0.011728    Cartesian    0.53
    177 x          6.608853      6.614257     0.005403    Cartesian    0.08
    177 y          6.608853      6.614110     0.005257    Cartesian    0.08
    177 z         -6.608853     -6.612897    -0.004044    Cartesian    0.06
    178 x         11.014756     11.019236     0.004480    Cartesian    0.04
    178 y          2.202951      2.203678     0.000727    Cartesian    0.03
    178 z          6.608853      6.609595     0.000742    Cartesian    0.01
    179 x          8.811805      8.831584     0.019780    Cartesian    0.22
    179 y          8.811805      8.828542     0.016738    Cartesian    0.19
    179 z          4.405902      4.412641     0.006739    Cartesian    0.15
    180 x          4.405902      4.407928     0.002026    Cartesian    0.05
    180 y          4.405902      4.406988     0.001086    Cartesian    0.02
    180 z         -8.811805     -8.835454    -0.023649    Cartesian    0.27
    181 x          2.202951      2.202951     0.000000    Cartesian    0.00
    181 y         -6.608853     -6.615368    -0.006515    Cartesian    0.10
    181 z         -6.608853     -6.615368    -0.006515    Cartesian    0.10
    182 x          6.608853      6.609430     0.000577    Cartesian    0.01
    182 y          2.202951      2.201937    -0.001014    Cartesian   -0.05
    182 z         11.014756     11.017854     0.003098    Cartesian    0.03
    183 x         11.014756     11.017033     0.002277    Cartesian    0.02
    183 y          6.608853      6.611363     0.002509    Cartesian    0.04
    183 z         -2.202951     -2.201812     0.001139    Cartesian   -0.05
    184 x          4.405902      4.414506     0.008603    Cartesian    0.20
    184 y          8.811805      8.823358     0.011554    Cartesian    0.13
    184 z          8.811805      8.823358     0.011554    Cartesian    0.13
    185 x         13.217707     13.242724     0.025017    Cartesian    0.19
    185 y          0.000000     -0.001971    -0.001971    Cartesian    0.00
    185 z          0.000000     -0.001971    -0.001971    Cartesian    0.00
    186 x          6.608853      6.612091     0.003237    Cartesian    0.05
    186 y         11.014756     11.019769     0.005013    Cartesian    0.05
    186 z         -2.202951     -2.205273    -0.002322    Cartesian    0.11
    187 x          2.202951      2.202951     0.000000    Cartesian    0.00
    187 y          6.608853      6.610210     0.001356    Cartesian    0.02
    187 z         11.014756     11.014420    -0.000336    Cartesian   -0.00
    188 x          4.405902      4.411656     0.005754    Cartesian    0.13
    188 y         -4.405902     -4.423367    -0.017465    Cartesian    0.40
    188 z         -8.811805     -8.832780    -0.020976    Cartesian    0.24
    189 x          8.811805      8.829761     0.017956    Cartesian    0.20
    189 y          8.811805      8.831067     0.019263    Cartesian    0.22
    189 z         -4.405902     -4.417676    -0.011774    Cartesian    0.27
    190 x         13.217707     13.241699     0.023992    Cartesian    0.18
    190 y          0.000000     -0.002634    -0.002634    Cartesian    0.00
    190 z          4.405902      4.410941     0.005039    Cartesian    0.11
    191 x          6.608853      6.612294     0.003441    Cartesian    0.05
    191 y         -6.608853     -6.614941    -0.006088    Cartesian    0.09
    191 z         -6.608853     -6.614941    -0.006088    Cartesian    0.09
    192 x         11.014756     11.018352     0.003597    Cartesian    0.03
    192 y          2.202951      2.205890     0.002939    Cartesian    0.13
    192 z         -6.608853     -6.609621    -0.000768    Cartesian    0.01
    193 x         11.014756     11.021331     0.006575    Cartesian    0.06
    193 y          6.608853      6.613286     0.004432    Cartesian    0.07
    193 z          6.608853      6.613286     0.004432    Cartesian    0.07
    194 x         13.217707     13.241044     0.023338    Cartesian    0.18
    194 y          4.405902      4.413899     0.007997    Cartesian    0.18
    194 z          4.405902      4.413899     0.007997    Cartesian    0.18
    195 x          8.811805      8.825504     0.013699    Cartesian    0.16
    195 y          0.000000     -0.005006    -0.005006    Cartesian    0.00
    195 z         -8.811805     -8.836880    -0.025075    Cartesian    0.28
--------------------------------------------------------------------------------


  Time to end of optimisation  =       16.3844 seconds


  Peak dynamic memory used =      82.62 MB 


  Timing analysis for GULP :

--------------------------------------------------------------------------------
  Task / Subroutine                                          Time (Seconds)
--------------------------------------------------------------------------------
  Calculation of reciprocal space energy and derivatives          0.0004
  Calculation of reciprocal space energy using symmetry           0.0007
  Calculation of real space energy and derivatives                0.0021
  Calculation of real space energy using symmetry                 0.0066
  Calculation for region 1 energy and derivatives (2-b)           8.3411
  Calculation for region 2a energy                                6.2355
  Calculation for region 2b energy                                0.0033
  Calculation and manipulation of Hessian matrix                  1.5717
  Calculation of matrix inversion                                 0.1278
  Symmetry generation of equivalent positions                     0.0025
--------------------------------------------------------------------------------
  Total CPU time                                                 16.3845
--------------------------------------------------------------------------------


  Dump file written as Na3OCl.grs


  Job Finished at 13:01.44 26th September  2021                               

