********************************************************************************
*                       GENERAL UTILITY LATTICE PROGRAM                        *
*                                 Julian Gale                                  *
*                       Curtin Institute for Computation                       *
*                    School of Molecular and Life Sciences                     *
*                    Curtin University, Western Australia                      *
********************************************************************************
* Version = 5.2.0 * Last modified =  10th September 2020                       *
********************************************************************************
*  optimise     - perform optimisation run                                     *
*  conp         - constant pressure calculation                                *
*  property     - calculate properties for final geometry                      *
*  defect       - perform defect calculation after bulk run                    *
*  compare      - compare initial and final structures                         *
********************************************************************************

  Job Started  at 13:01.44 26th September  2021                               

  Number of CPUs =     1


  Total number of configurations input =      1

********************************************************************************
*  Input for Configuration =   1                                               *
********************************************************************************

  Formula = ClONa3                                                      

  Number of irreducible atoms/shells =       5


  Total number atoms/shells =       7

  Dimensionality = 3               :  Bulk   


  Symmetry :

  Crystal family                   :  Cubic       
  Crystal class  (Groth - 1921)    :  Cubic Hexakisoctahedral              

  Space group (centrosymmetric)    :  P M 3 M         

  Patterson group                  :  P m -3 m 

  Cartesian lattice vectors (Angstroms) :

        4.504000    0.000000    0.000000
        0.000000    4.504000    0.000000
        0.000000    0.000000    4.504000

  Cell parameters (Angstroms/Degrees):

  a =       4.5040    alpha =  90.0000
  b =       4.5040    beta  =  90.0000
  c =       4.5040    gamma =  90.0000

  Initial cell volume =          91.368216 Angs**3

  Temperature of configuration =   0.00     K 

  Pressure of configuration =         0.000 GPa 

  Fractional coordinates of asymmetric unit :

--------------------------------------------------------------------------------
   No.  Atomic       x           y          z         Charge      Occupancy
        Label      (Frac)      (Frac)     (Frac)        (e)         (Frac)  
--------------------------------------------------------------------------------
      1 Cl    c    0.000000    0.000000    0.000000     1.48500    1.000000    
      2 O     c    0.500000    0.500000    0.500000     0.18300    1.000000    
      3 Na    c    0.500000    0.500000    0.000000     1.00000    1.000000    
      4 Cl    s    0.000000    0.000000    0.000000    -2.48500    1.000000    
      5 O     s    0.500000    0.500000    0.500000    -2.18300    1.000000    
--------------------------------------------------------------------------------


  Constraints : 

--------------------------------------------------------------------------------
  Constraint no.      Unconstrained     Constrained    Coefficient    Offset
                         Variable         Variable
--------------------------------------------------------------------------------
           1              Strain 1        Strain 2       1.00000      0.0000
           2              Strain 1        Strain 3       1.00000      0.0000
--------------------------------------------------------------------------------


********************************************************************************
*  General input information                                                   *
********************************************************************************

  Species output for all configurations : 

--------------------------------------------------------------------------------
  Species    Type    Atomic    Atomic    Charge       Radii (Angs)     Library
                     Number     Mass       (e)     Cova   Ionic  VDW   Symbol
--------------------------------------------------------------------------------
    Na       Core       11      22.99   1.000000   0.970  0.000  2.300          
    O        Core        8      16.00   0.183000   0.730  0.000  1.360          
    O        Shell       8       0.00  -2.183000   0.730  0.000  1.360          
    Cl       Core       17      35.45   1.485000   0.990  0.000  1.650          
    Cl       Shell      17       0.00  -2.485000   0.990  0.000  1.650          
    Mg       Core       12      24.31   0.415000   1.100  0.000  0.000          
    Mg       Shell      12       0.00   1.585000   1.100  0.000  0.000          
    Ca       Core       20      40.08  -1.135000   0.990  0.000  0.000          
    Ca       Shell      20       0.00   3.135000   0.990  0.000  0.000          
    Sr       Core       38      87.62  -1.251000   1.120  0.000  0.000          
    Sr       Shell      38       0.00   3.251000   1.120  0.000  0.000          
    Ba       Core       56     137.33  -7.203000   1.340  0.000  0.000          
    Ba       Shell      56       0.00   9.203000   1.340  0.000  0.000          
    Al       Core       13      26.98   3.000000   1.350  0.000  0.000          
    Ga       Core       31      69.72   3.000000   1.220  0.000  0.000          
--------------------------------------------------------------------------------


  Lattice summation method               =    Ewald          (3-D)
                                         =    Parry          (2-D)
                                         =    Saunders et al (1-D)
  Accuracy factor for lattice sums       =   12.000


  Analytic derivatives to be used

  Time limit = Infinity

  Maximum range for interatomic potentials =    100000.000000 Angstroms

  General interatomic potentials :

--------------------------------------------------------------------------------
Atom  Types   Potential      Parameter       Value         Units   Cutoffs(Ang)
  1     2                                                            Min /  Max 
--------------------------------------------------------------------------------
O    c O    s Spring (c-s)  Spring k 2       593.71600    eV*Ang^-2 0.000  0.800
                            Spring k 4       0.0000000    eV*Ang^-4 
--------------------------------------------------------------------------------
Cl   c Cl   s Spring (c-s)  Spring k 2       29.380000    eV*Ang^-2 0.000  0.800
                            Spring k 4       0.0000000    eV*Ang^-4 
--------------------------------------------------------------------------------
Mg   c Mg   s Spring (c-s)  Spring k 2       361.60000    eV*Ang^-2 0.000  0.800
                            Spring k 4       0.0000000    eV*Ang^-4 
--------------------------------------------------------------------------------
Ca   c Ca   s Spring (c-s)  Spring k 2       110.20000    eV*Ang^-2 0.000  0.800
                            Spring k 4       0.0000000    eV*Ang^-4 
--------------------------------------------------------------------------------
Sr   c Sr   s Spring (c-s)  Spring k 2       71.700000    eV*Ang^-2 0.000  0.800
                            Spring k 4       0.0000000    eV*Ang^-4 
--------------------------------------------------------------------------------
Ba   c Ba   s Spring (c-s)  Spring k 2       495.20000    eV*Ang^-2 0.000  0.800
                            Spring k 4       0.0000000    eV*Ang^-4 
--------------------------------------------------------------------------------
Na   c Na   c Buckingham    Buckingham A     1788.1900    eV        0.000 12.000
                            Buckingham rho  0.15900000    Ang       
                            Buckingham C     0.0000000    eV*Ang^6  
--------------------------------------------------------------------------------
Na   c O    s Buckingham    Buckingham A     588.38000    eV        0.000 12.000
                            Buckingham rho  0.33800000    Ang       
                            Buckingham C     0.0000000    eV*Ang^6  
--------------------------------------------------------------------------------
Na   c Cl   s Buckingham    Buckingham A     1170.4100    eV        0.000 12.000
                            Buckingham rho  0.31500000    Ang       
                            Buckingham C     0.0000000    eV*Ang^6  
--------------------------------------------------------------------------------
O    s O    s Buckingham    Buckingham A     22764.300    eV        0.000 12.000
                            Buckingham rho  0.14900000    Ang       
                            Buckingham C     13.190000    eV*Ang^6  
--------------------------------------------------------------------------------
O    s Cl   s Buckingham    Buckingham A     8286.9100    eV        0.000 12.000
                            Buckingham rho  0.25900000    Ang       
                            Buckingham C     62.200000    eV*Ang^6  
--------------------------------------------------------------------------------
Cl   s Cl   s Buckingham    Buckingham A     1227.2000    eV        0.000 12.000
                            Buckingham rho  0.32100000    Ang       
                            Buckingham C     14.530000    eV*Ang^6  
--------------------------------------------------------------------------------
O    s Mg   s Buckingham    Buckingham A     1428.5000    eV        0.000 12.000
                            Buckingham rho  0.29450000    Ang       
                            Buckingham C     0.0000000    eV*Ang^6  
--------------------------------------------------------------------------------
Mg   s Cl   s Buckingham    Buckingham A     4914.5400    eV        0.000 12.000
                            Buckingham rho  0.25700000    Ang       
                            Buckingham C     0.0000000    eV*Ang^6  
--------------------------------------------------------------------------------
O    s Ca   s Buckingham    Buckingham A     1090.4000    eV        0.000 12.000
                            Buckingham rho  0.34370000    Ang       
                            Buckingham C     0.0000000    eV*Ang^6  
--------------------------------------------------------------------------------
Cl   s Ca   s Buckingham    Buckingham A     2302.0000    eV        0.000 12.000
                            Buckingham rho  0.34020000    Ang       
                            Buckingham C     0.0000000    eV*Ang^6  
--------------------------------------------------------------------------------
O    s Sr   s Buckingham    Buckingham A     959.10000    eV        0.000 12.000
                            Buckingham rho  0.37210000    Ang       
                            Buckingham C     0.0000000    eV*Ang^6  
--------------------------------------------------------------------------------
Cl   s Sr   s Buckingham    Buckingham A     2191.0900    eV        0.000 12.000
                            Buckingham rho  0.34570000    Ang       
                            Buckingham C     0.0000000    eV*Ang^6  
--------------------------------------------------------------------------------
O    s Ba   s Buckingham    Buckingham A     905.70000    eV        0.000 12.000
                            Buckingham rho  0.39760000    Ang       
                            Buckingham C     0.0000000    eV*Ang^6  
--------------------------------------------------------------------------------
Cl   s Ba   s Buckingham    Buckingham A     2704.5500    eV        0.000 12.000
                            Buckingham rho  0.35280000    Ang       
                            Buckingham C     0.0000000    eV*Ang^6  
--------------------------------------------------------------------------------
Al   c O    s Buckingham    Buckingham A     1725.0000    eV        0.000 12.000
                            Buckingham rho  0.28970000    Ang       
                            Buckingham C     0.0000000    eV*Ang^6  
--------------------------------------------------------------------------------
Al   c Cl   s Buckingham    Buckingham A     1736.1200    eV        0.000 12.000
                            Buckingham rho  0.29170000    Ang       
                            Buckingham C     0.0000000    eV*Ang^6  
--------------------------------------------------------------------------------
Ga   c O    s Buckingham    Buckingham A     2901.1200    eV        0.000 12.000
                            Buckingham rho  0.27420000    Ang       
                            Buckingham C     0.0000000    eV*Ang^6  
--------------------------------------------------------------------------------
Ga   c Cl   s Buckingham    Buckingham A     924.20000    eV        0.000 12.000
                            Buckingham rho  0.34280000    Ang       
                            Buckingham C     0.0000000    eV*Ang^6  
--------------------------------------------------------------------------------

********************************************************************************
*  Output for configuration   1                                                *
********************************************************************************


  Components of energy : 

--------------------------------------------------------------------------------
  Interatomic potentials     =           4.94315381 eV    
  Monopole - monopole (real) =         -10.03624526 eV    
  Monopole - monopole (recip)=         -29.53581274 eV    
  Monopole - monopole (total)=         -39.57205800 eV    
--------------------------------------------------------------------------------
  Total lattice energy       =         -34.62890419 eV    
--------------------------------------------------------------------------------
  Total lattice energy       =           -3341.1599 kJ/(mole unit cells)
--------------------------------------------------------------------------------


  Number of variables =        1

  Maximum number of calculations  =          1000
  Maximum Hessian update interval =            10
  Maximum step size               =   1.000000000
  Maximum parameter tolerance     =   0.000010000
  Maximum function  tolerance     =   0.000010000
  Maximum gradient  tolerance     =   0.001000000
  Maximum gradient  component     =   0.010000000

  Symmetry constrained optimisation

  Symmetry used for second derivatives

  Cell parameters to be optimised using strains

  Newton-Raphson optimiser to be used

  BFGS hessian update to be used

  Lower half triangular hessian to be used

  Start of bulk optimisation :

  Cycle:      0 Energy:       -34.628904  Gnorm:      4.328237  CPU:    0.016
  ** Hessian calculated **
  Cycle:      1 Energy:       -34.677667  Gnorm:      0.044008  CPU:    0.020
  Cycle:      2 Energy:       -34.677671  Gnorm:      0.003653  CPU:    0.023


  **** Optimisation achieved ****


  Final energy =     -34.67767136 eV
  Final Gnorm  =       0.00000010

  Components of energy : 

--------------------------------------------------------------------------------
  Interatomic potentials     =           5.77546103 eV    
  Monopole - monopole (real) =         -10.25970290 eV    
  Monopole - monopole (recip)=         -30.19342950 eV    
  Monopole - monopole (total)=         -40.45313239 eV    
--------------------------------------------------------------------------------
  Total lattice energy       =         -34.67767136 eV    
--------------------------------------------------------------------------------
  Total lattice energy       =           -3345.8652 kJ/(mole unit cells)
--------------------------------------------------------------------------------

  Final asymmetric unit coordinates :

--------------------------------------------------------------------------------
   No.  Atomic        x           y           z         Radius
        Label       (Frac)      (Frac)      (Frac)       (Angs) 
--------------------------------------------------------------------------------
     1  Cl    c     0.000000    0.000000    0.000000    0.000000
     2  O     c     0.500000    0.500000    0.500000    0.000000
     3  Na    c     0.500000    0.500000    0.000000    0.000000
     4  Cl    s     0.000000    0.000000    0.000000    0.000000
     5  O     s     0.500000    0.500000    0.500000    0.000000
--------------------------------------------------------------------------------

  Final Cartesian lattice vectors (Angstroms) :

        4.405902    0.000000    0.000000
        0.000000    4.405902    0.000000
        0.000000    0.000000    4.405902


  Final cell parameters and derivatives :

--------------------------------------------------------------------------------
       a            4.405902 Angstrom     dE/de1(xx)     0.000000 eV/strain
       b            4.405902 Angstrom     dE/de2(yy)     0.000000 eV/strain
       c            4.405902 Angstrom     dE/de3(zz)     0.000000 eV/strain
       alpha       90.000000 Degrees      dE/de4(yz)     0.000000 eV/strain
       beta        90.000000 Degrees      dE/de5(xz)     0.000000 eV/strain
       gamma       90.000000 Degrees      dE/de6(xy)     0.000000 eV/strain
--------------------------------------------------------------------------------

  Primitive cell volume =            85.527266 Angs**3

  Density of cell =      2.338030 g/cm**3

  Non-primitive cell volume =            85.527266 Angs**3


  Final internal derivatives :

--------------------------------------------------------------------------------
   No.  Atomic          a             b             c           Radius
        Label          (eV)          (eV)          (eV)        (eV/Angs)
--------------------------------------------------------------------------------
      1 Cl    c       0.000000      0.000000      0.000000      0.000000
      2 O     c       0.000000      0.000000      0.000000      0.000000
      3 Na    c       0.000000      0.000000      0.000000      0.000000
      4 Cl    s       0.000000      0.000000      0.000000      0.000000
      5 O     s       0.000000      0.000000      0.000000      0.000000
--------------------------------------------------------------------------------
  Maximum abs         0.000000      0.000000      0.000000      0.000000
--------------------------------------------------------------------------------

  Comparison of initial and final structures : 

--------------------------------------------------------------------------------
  Parameter   Initial value   Final value   Difference    Units      Percent
--------------------------------------------------------------------------------
    Volume        91.368216     85.527266    -5.840950    Angs**3     -6.39
    a              4.504000      4.405902    -0.098098    Angstroms   -2.18
    b              4.504000      4.405902    -0.098098    Angstroms   -2.18
    c              4.504000      4.405902    -0.098098    Angstroms   -2.18
    alpha         90.000000     90.000000     0.000000    Degrees      0.00
    beta          90.000000     90.000000     0.000000    Degrees      0.00
    gamma         90.000000     90.000000     0.000000    Degrees      0.00
      1 x          0.000000      0.000000     0.000000    Fractional   0.00
      1 y          0.000000      0.000000     0.000000    Fractional   0.00
      1 z          0.000000      0.000000     0.000000    Fractional   0.00
      2 x          0.500000      0.500000     0.000000    Fractional   0.00
      2 y          0.500000      0.500000     0.000000    Fractional   0.00
      2 z          0.500000      0.500000     0.000000    Fractional   0.00
      3 x          0.500000      0.500000     0.000000    Fractional   0.00
      3 y          0.500000      0.500000     0.000000    Fractional   0.00
      3 z          0.000000      0.000000     0.000000    Fractional   0.00
      4 x          0.000000      0.000000     0.000000    Fractional   0.00
      4 y          0.000000      0.000000     0.000000    Fractional   0.00
      4 z          0.000000      0.000000     0.000000    Fractional   0.00
      5 x          0.500000      0.500000     0.000000    Fractional   0.00
      5 y          0.500000      0.500000     0.000000    Fractional   0.00
      5 z          0.500000      0.500000     0.000000    Fractional   0.00
--------------------------------------------------------------------------------


  Born effective charge tensors : 

-------------------------------------------------------------------------------
  Atom             x           y             z
-------------------------------------------------------------------------------
    1 Cl    x      -0.9918     -0.0000     -0.0000
            y      -0.0000     -0.9918     -0.0000
            z      -0.0000     -0.0000     -0.9918
-------------------------------------------------------------------------------
    2 O     x      -2.2939      0.0000      0.0000
            y       0.0000     -2.2939      0.0000
            z       0.0000      0.0000     -2.2939
-------------------------------------------------------------------------------
    3 Na    x       1.2243      0.0000      0.0000
            y       0.0000      1.2243     -0.0000
            z       0.0000      0.0000      0.8372
-------------------------------------------------------------------------------




  Elastic Constant Matrix: (Units=GPa)

-------------------------------------------------------------------------------
  Indices      1         2         3         4         5         6    
-------------------------------------------------------------------------------
       1     82.7680   24.3534   24.3534   -0.0000    0.0000   -0.0000
       2     24.3534   82.7680   24.3534    0.0000   -0.0000   -0.0000
       3     24.3534   24.3534   82.7680    0.0000   -0.0000    0.0000
       4     -0.0000    0.0000    0.0000   24.3534   -0.0000    0.0000
       5      0.0000   -0.0000   -0.0000   -0.0000   24.3534    0.0000
       6     -0.0000   -0.0000    0.0000    0.0000    0.0000   24.3534
-------------------------------------------------------------------------------


  Elastic Compliance Matrix: (Units=1/GPa)

-------------------------------------------------------------------------------
  Indices      1         2         3         4         5         6    
-------------------------------------------------------------------------------
       1    0.013948 -0.003171 -0.003171  0.000000 -0.000000  0.000000
       2   -0.003171  0.013948 -0.003171 -0.000000  0.000000 -0.000000
       3   -0.003171 -0.003171  0.013948 -0.000000  0.000000 -0.000000
       4    0.000000 -0.000000 -0.000000  0.041062  0.000000 -0.000000
       5   -0.000000  0.000000  0.000000  0.000000  0.041062 -0.000000
       6    0.000000 -0.000000 -0.000000 -0.000000 -0.000000  0.041062
-------------------------------------------------------------------------------

  Mechanical properties :

-------------------------------------------------------------------------------
  Convention :                    Reuss         Voigt         Hill
-------------------------------------------------------------------------------
  Bulk  Modulus (GPa)     =      43.82493      43.82493      43.82493
  Shear Modulus (GPa)     =      26.08758      26.29496      26.19127
-------------------------------------------------------------------------------
  Velocity S-wave (km/s)  =       3.34035       3.35360       3.34698
  Velocity P-wave (km/s)  =       5.79842       5.80861       5.80351
-------------------------------------------------------------------------------
  Compressibility (1/GPa) =    0.02281806
-------------------------------------------------------------------------------
  Stress axis :                     x             y             z
-------------------------------------------------------------------------------
  Youngs Moduli (GPa)     =      71.69479      71.69479      71.69479
-------------------------------------------------------------------------------
  Poissons Ratio (x)      =                     0.22734       0.22734
  Poissons Ratio (y)      =       0.22734                     0.22734
  Poissons Ratio (z)      =       0.22734       0.22734
-------------------------------------------------------------------------------


  Piezoelectric Strain Matrix: (Units=C/m**2)

-------------------------------------------------------------------------------
  Indices      1         2         3         4         5         6    
-------------------------------------------------------------------------------
       x    -0.00000  -0.00000  -0.00000  -0.00000   0.00000  -0.00000
       y     0.00000  -0.00000   0.00000   0.00000  -0.00000   0.00000
       z    -0.00000  -0.00000   0.00000  -0.00000   0.00000  -0.00000
-------------------------------------------------------------------------------


  Piezoelectric Stress Matrix: (Units=10**-11 C/N)

-------------------------------------------------------------------------------
  Indices      1         2         3         4         5         6    
-------------------------------------------------------------------------------
       x     0.00000  -0.00000  -0.00000  -0.00000   0.00000  -0.00000
       y     0.00000  -0.00000   0.00000   0.00000  -0.00000   0.00000
       z    -0.00000  -0.00000   0.00000  -0.00000   0.00000  -0.00000
-------------------------------------------------------------------------------


  Static dielectric constant tensor : 

-------------------------------------------------------------------------------
              x         y         z
-------------------------------------------------------------------------------
       x    11.08357   0.00000   0.00000
       y     0.00000  11.08357   0.00000
       z     0.00000   0.00000  11.08357
--------------------------------------------------------------------------------

  High frequency dielectric constant tensor : 

-------------------------------------------------------------------------------
              x         y         z
-------------------------------------------------------------------------------
       x     1.50771   0.00000   0.00000
       y     0.00000   1.50771   0.00000
       z     0.00000   0.00000   1.50771
-------------------------------------------------------------------------------

  Static refractive indices : 

-------------------------------------------------------------------------------
    1 =    3.32920      2 =    3.32920      3 =    3.32920
-------------------------------------------------------------------------------

  High frequency refractive indices : 

-------------------------------------------------------------------------------
    1 =    1.22789      2 =    1.22789      3 =    1.22789
-------------------------------------------------------------------------------


  Time to end of optimisation =       0.0317 seconds

********************************************************************************
*  Defect calculation for configuration   1 :                                  *
********************************************************************************

  Total number of defects =      3

  Total charge on defect  =  -1.00

  Defect centre is at   0.5000   0.2500   0.2500  Frac

  Region 1 radius =  12.0000      Number of ions =    593

  Number of symmetry inequivalent region 1 ions  =    195

  Region 2 radius =  16.0000      Number of ions =    832

  Number of symmetry inequivalent region 2a ions =    242

  Region 2a mode = 4 : screened electrostatics due to region 1 
                       neglect correction to region 1 forces from 2a
                       region 2a displacements based on defects only

  Region 2a ions will only interact with defects in region 1

  Vacancies:

--------------------------------------------------------------------------------
    Specification type     Symbol/Number         x          y          z
--------------------------------------------------------------------------------
    Fractional                               0.500000   0.500000   0.000000
    Fractional                               0.500000   0.000000   0.500000
--------------------------------------------------------------------------------

  Interstitials:

--------------------------------------------------------------------------------
    Specification type     Symbol/Number         x          y          z
--------------------------------------------------------------------------------
    Atom/Fractional         Na               0.500000   0.155000   0.155000
--------------------------------------------------------------------------------


  Symmetry reduced region 1 (Relative to defect centre) :

--------------------------------------------------------------------------------
   No.   Atomic       x            y             z       Radius  Multiplicity   
         Label      (Angs)       (Angs)        (Angs)    (Angs)     
--------------------------------------------------------------------------------
     1  Na    c      0.0000      -0.4186      -0.4186    0.0000     1    Defect
     2  O     c      0.0000       1.1015 *     1.1015    0.0000     1          
     3  Cl    c      2.2030 *    -1.1015 *    -1.1015    0.0000     2          
     4  Na    c      2.2030 *     1.1015 *     1.1015    0.0000     2          
     5  O     c      0.0000       1.1015 *    -3.3044 *  0.0000     2          
     6  Na    c      0.0000       1.1015 *     3.3044 *  0.0000     2          
     7  Na    c      0.0000      -3.3044 *    -1.1015 *  0.0000     2          
     8  Cl    c      2.2030 *    -1.1015 *     3.3044 *  0.0000     4          
     9  Na    c      2.2030 *     1.1015 *    -3.3044 *  0.0000     4          
    10  O     c      0.0000      -3.3044 *    -3.3044    0.0000     1          
    11  Na    c      0.0000      -3.3044 *     3.3044 *  0.0000     2          
    12  O     c      4.4059 *     1.1015 *     1.1015    0.0000     2          
    13  Na    c      4.4059 *     1.1015 *    -1.1015 *  0.0000     4          
    14  Cl    c      2.2030 *     3.3044 *     3.3044    0.0000     2          
    15  Na    c      2.2030 *    -3.3044 *    -3.3044    0.0000     2          
    16  O     c      0.0000       1.1015 *     5.5074 *  0.0000     2          
    17  O     c      4.4059 *     1.1015 *    -3.3044 *  0.0000     4          
    18  Na    c      0.0000       1.1015 *    -5.5074 *  0.0000     2          
    19  Na    c      0.0000       5.5074 *    -1.1015 *  0.0000     2          
    20  Na    c      4.4059 *     1.1015 *     3.3044 *  0.0000     4          
    21  Na    c      4.4059 *    -1.1015 *    -3.3044 *  0.0000     4          
    22  Cl    c      2.2030 *    -1.1015 *    -5.5074 *  0.0000     4          
    23  Na    c      2.2030 *     1.1015 *     5.5074 *  0.0000     4          
    24  O     c      0.0000       5.5074 *    -3.3044 *  0.0000     2          
    25  Na    c      0.0000       5.5074 *     3.3044 *  0.0000     2          
    26  Na    c      0.0000      -3.3044 *    -5.5074 *  0.0000     2          
    27  O     c      4.4059 *    -3.3044 *    -3.3044    0.0000     2          
    28  Na    c      4.4059 *    -3.3044 *     3.3044 *  0.0000     4          
    29  Cl    c      6.6089 *    -1.1015 *    -1.1015    0.0000     2          
    30  Na    c      6.6089 *     1.1015 *     1.1015    0.0000     2          
    31  Cl    c      2.2030 *     3.3044 *    -5.5074 *  0.0000     4          
    32  Na    c      2.2030 *     5.5074 *    -3.3044 *  0.0000     4          
    33  O     c      4.4059 *     1.1015 *     5.5074 *  0.0000     4          
    34  Na    c      4.4059 *     1.1015 *    -5.5074 *  0.0000     4          
    35  Na    c      4.4059 *     5.5074 *    -1.1015 *  0.0000     4          
    36  Cl    c      6.6089 *    -1.1015 *     3.3044 *  0.0000     4          
    37  Na    c      6.6089 *     1.1015 *    -3.3044 *  0.0000     4          
    38  O     c      0.0000       1.1015 *    -7.7103 *  0.0000     2          
    39  O     c      0.0000       5.5074 *     5.5074    0.0000     1          
    40  Na    c      0.0000       1.1015 *     7.7103 *  0.0000     2          
    41  Na    c      0.0000       5.5074 *    -5.5074 *  0.0000     2          
    42  Na    c      0.0000      -7.7103 *    -1.1015 *  0.0000     2          
    43  O     c      4.4059 *     5.5074 *    -3.3044 *  0.0000     4          
    44  Na    c      4.4059 *     5.5074 *     3.3044 *  0.0000     4          
    45  Na    c      4.4059 *    -3.3044 *    -5.5074 *  0.0000     4          
    46  Cl    c      2.2030 *    -1.1015 *     7.7103 *  0.0000     4          
    47  Cl    c      2.2030 *    -5.5074 *    -5.5074    0.0000     2          
    48  Cl    c      6.6089 *     3.3044 *     3.3044    0.0000     2          
    49  Na    c      2.2030 *     1.1015 *    -7.7103 *  0.0000     4          
    50  Na    c      2.2030 *     5.5074 *     5.5074    0.0000     2          
    51  Na    c      6.6089 *    -3.3044 *    -3.3044    0.0000     2          
    52  O     c      0.0000      -3.3044 *    -7.7103 *  0.0000     2          
    53  Na    c      0.0000      -3.3044 *     7.7103 *  0.0000     2          
    54  Na    c      0.0000      -7.7103 *     3.3044 *  0.0000     2          
    55  Cl    c      2.2030 *     3.3044 *     7.7103 *  0.0000     4          
    56  Cl    c      6.6089 *    -1.1015 *    -5.5074 *  0.0000     4          
    57  Na    c      2.2030 *    -3.3044 *    -7.7103 *  0.0000     4          
    58  Na    c      6.6089 *     1.1015 *     5.5074 *  0.0000     4          
    59  O     c      4.4059 *     1.1015 *    -7.7103 *  0.0000     4          
    60  O     c      4.4059 *     5.5074 *     5.5074    0.0000     2          
    61  Na    c      4.4059 *     1.1015 *     7.7103 *  0.0000     4          
    62  Na    c      4.4059 *     5.5074 *    -5.5074 *  0.0000     4          
    63  Na    c      4.4059 *    -1.1015 *    -7.7103 *  0.0000     4          
    64  O     c      8.8118 *     1.1015 *     1.1015    0.0000     2          
    65  Na    c      8.8118 *     1.1015 *    -1.1015 *  0.0000     4          
    66  Cl    c      6.6089 *     3.3044 *    -5.5074 *  0.0000     4          
    67  Na    c      6.6089 *     5.5074 *    -3.3044 *  0.0000     4          
    68  O     c      0.0000       5.5074 *    -7.7103 *  0.0000     2          
    69  O     c      4.4059 *    -3.3044 *    -7.7103 *  0.0000     4          
    70  Na    c      0.0000       5.5074 *     7.7103 *  0.0000     2          
    71  Na    c      0.0000      -7.7103 *    -5.5074 *  0.0000     2          
    72  Na    c      4.4059 *    -3.3044 *     7.7103 *  0.0000     4          
    73  Na    c      4.4059 *     3.3044 *    -7.7103 *  0.0000     4          
    74  O     c      8.8118 *     1.1015 *    -3.3044 *  0.0000     4          
    75  Na    c      8.8118 *     1.1015 *     3.3044 *  0.0000     4          
    76  Na    c      8.8118 *    -3.3044 *    -1.1015 *  0.0000     4          
    77  Cl    c      2.2030 *     7.7103 *    -5.5074 *  0.0000     4          
    78  Na    c      2.2030 *     5.5074 *    -7.7103 *  0.0000     4          
    79  O     c      0.0000       1.1015 *     9.9133 *  0.0000     2          
    80  O     c      8.8118 *    -3.3044 *    -3.3044    0.0000     2          
    81  Na    c      0.0000       1.1015 *    -9.9133 *  0.0000     2          
    82  Na    c      0.0000       9.9133 *    -1.1015 *  0.0000     2          
    83  Na    c      8.8118 *    -3.3044 *     3.3044 *  0.0000     4          
    84  Cl    c      2.2030 *    -1.1015 *    -9.9133 *  0.0000     4          
    85  Cl    c      6.6089 *    -1.1015 *     7.7103 *  0.0000     4          
    86  Cl    c      6.6089 *    -5.5074 *    -5.5074    0.0000     2          
    87  Na    c      2.2030 *     1.1015 *     9.9133 *  0.0000     4          
    88  Na    c      6.6089 *     1.1015 *    -7.7103 *  0.0000     4          
    89  Na    c      6.6089 *     5.5074 *     5.5074    0.0000     2          
    90  O     c      0.0000       9.9133 *    -3.3044 *  0.0000     2          
    91  O     c      4.4059 *     5.5074 *    -7.7103 *  0.0000     4          
    92  O     c      8.8118 *     1.1015 *     5.5074 *  0.0000     4          
    93  Na    c      0.0000       9.9133 *     3.3044 *  0.0000     2          
    94  Na    c      0.0000      -3.3044 *    -9.9133 *  0.0000     2          
    95  Na    c      4.4059 *     5.5074 *     7.7103 *  0.0000     4          
    96  Na    c      4.4059 *    -7.7103 *    -5.5074 *  0.0000     4          
    97  Na    c      8.8118 *     1.1015 *    -5.5074 *  0.0000     4          
    98  Na    c      8.8118 *     5.5074 *    -1.1015 *  0.0000     4          
    99  Cl    c      6.6089 *     7.7103 *     3.3044 *  0.0000     4          
   100  Na    c      6.6089 *    -7.7103 *    -3.3044 *  0.0000     4          
   101  Cl    c      2.2030 *     3.3044 *    -9.9133 *  0.0000     4          
   102  Na    c      2.2030 *     9.9133 *    -3.3044 *  0.0000     4          
   103  O     c      0.0000      -7.7103 *    -7.7103    0.0000     1          
   104  O     c      4.4059 *     1.1015 *     9.9133 *  0.0000     4          
   105  O     c      8.8118 *     5.5074 *    -3.3044 *  0.0000     4          
   106  Na    c      0.0000      -7.7103 *     7.7103 *  0.0000     2          
   107  Na    c      4.4059 *     1.1015 *    -9.9133 *  0.0000     4          
   108  Na    c      4.4059 *     9.9133 *    -1.1015 *  0.0000     4          
   109  Na    c      8.8118 *     5.5074 *     3.3044 *  0.0000     4          
   110  Na    c      8.8118 *    -3.3044 *    -5.5074 *  0.0000     4          
   111  Cl    c      2.2030 *     7.7103 *     7.7103    0.0000     2          
   112  Cl    c     11.0148 *    -1.1015 *    -1.1015    0.0000     2          
   113  Na    c      2.2030 *    -7.7103 *    -7.7103    0.0000     2          
   114  Na    c     11.0148 *     1.1015 *     1.1015    0.0000     2          
   115  O     c      4.4059 *     9.9133 *    -3.3044 *  0.0000     4          
   116  Na    c      4.4059 *     9.9133 *     3.3044 *  0.0000     4          
   117  Na    c      4.4059 *    -9.9133 *    -3.3044 *  0.0000     4          
   118  O     c      0.0000       5.5074 *     9.9133 *  0.0000     2          
   119  Na    c      0.0000       5.5074 *    -9.9133 *  0.0000     2          
   120  Na    c      0.0000       9.9133 *    -5.5074 *  0.0000     2          
   121  Cl    c      2.2030 *    -5.5074 *    -9.9133 *  0.0000     4          
   122  Cl    c      6.6089 *     7.7103 *    -5.5074 *  0.0000     4          
   123  Cl    c     11.0148 *    -1.1015 *     3.3044 *  0.0000     4          
   124  Na    c      2.2030 *     5.5074 *     9.9133 *  0.0000     4          
   125  Na    c      6.6089 *     5.5074 *    -7.7103 *  0.0000     4          
   126  Na    c     11.0148 *     1.1015 *    -3.3044 *  0.0000     4          
   127  O     c      4.4059 *    -7.7103 *    -7.7103    0.0000     2          
   128  O     c      8.8118 *     1.1015 *    -7.7103 *  0.0000     4          
   129  O     c      8.8118 *     5.5074 *     5.5074    0.0000     2          
   130  Na    c      4.4059 *    -7.7103 *     7.7103 *  0.0000     4          
   131  Na    c      8.8118 *     1.1015 *     7.7103 *  0.0000     4          
   132  Na    c      8.8118 *     5.5074 *    -5.5074 *  0.0000     4          
   133  Na    c      8.8118 *    -1.1015 *    -7.7103 *  0.0000     4          
   134  Cl    c     11.0148 *     3.3044 *     3.3044    0.0000     2          
   135  Na    c     11.0148 *    -3.3044 *    -3.3044    0.0000     2          
   136  Cl    c      6.6089 *    -1.1015 *    -9.9133 *  0.0000     4          
   137  Na    c      6.6089 *     1.1015 *     9.9133 *  0.0000     4          
   138  O     s      0.0000       1.1015 *     1.1015    0.0000     1          
   139  Cl    s      2.2030 *    -1.1015 *    -1.1015    0.0000     2          
   140  O     s      0.0000       1.1015 *    -3.3044 *  0.0000     2          
   141  Cl    s      2.2030 *    -1.1015 *     3.3044 *  0.0000     4          
   142  O     s      0.0000      -3.3044 *    -3.3044    0.0000     1          
   143  O     s      4.4059 *     1.1015 *     1.1015    0.0000     2          
   144  Cl    s      2.2030 *     3.3044 *     3.3044    0.0000     2          
   145  O     s      0.0000       1.1015 *     5.5074 *  0.0000     2          
   146  O     s      4.4059 *     1.1015 *    -3.3044 *  0.0000     4          
   147  Cl    s      2.2030 *    -1.1015 *    -5.5074 *  0.0000     4          
   148  O     s      0.0000       5.5074 *    -3.3044 *  0.0000     2          
   149  O     s      4.4059 *    -3.3044 *    -3.3044    0.0000     2          
   150  Cl    s      6.6089 *    -1.1015 *    -1.1015    0.0000     2          
   151  Cl    s      2.2030 *     3.3044 *    -5.5074 *  0.0000     4          
   152  O     s      4.4059 *     1.1015 *     5.5074 *  0.0000     4          
   153  Cl    s      6.6089 *    -1.1015 *     3.3044 *  0.0000     4          
   154  O     s      0.0000       1.1015 *    -7.7103 *  0.0000     2          
   155  O     s      0.0000       5.5074 *     5.5074    0.0000     1          
   156  O     s      4.4059 *     5.5074 *    -3.3044 *  0.0000     4          
   157  Cl    s      2.2030 *    -1.1015 *     7.7103 *  0.0000     4          
   158  Cl    s      2.2030 *    -5.5074 *    -5.5074    0.0000     2          
   159  Cl    s      6.6089 *     3.3044 *     3.3044    0.0000     2          
   160  O     s      0.0000      -3.3044 *    -7.7103 *  0.0000     2          
   161  Cl    s      2.2030 *     3.3044 *     7.7103 *  0.0000     4          
   162  Cl    s      6.6089 *    -1.1015 *    -5.5074 *  0.0000     4          
   163  O     s      4.4059 *     1.1015 *    -7.7103 *  0.0000     4          
   164  O     s      4.4059 *     5.5074 *     5.5074    0.0000     2          
   165  O     s      8.8118 *     1.1015 *     1.1015    0.0000     2          
   166  Cl    s      6.6089 *     3.3044 *    -5.5074 *  0.0000     4          
   167  O     s      0.0000       5.5074 *    -7.7103 *  0.0000     2          
   168  O     s      4.4059 *    -3.3044 *    -7.7103 *  0.0000     4          
   169  O     s      8.8118 *     1.1015 *    -3.3044 *  0.0000     4          
   170  Cl    s      2.2030 *     7.7103 *    -5.5074 *  0.0000     4          
   171  O     s      0.0000       1.1015 *     9.9133 *  0.0000     2          
   172  O     s      8.8118 *    -3.3044 *    -3.3044    0.0000     2          
   173  Cl    s      2.2030 *    -1.1015 *    -9.9133 *  0.0000     4          
   174  Cl    s      6.6089 *    -1.1015 *     7.7103 *  0.0000     4          
   175  Cl    s      6.6089 *    -5.5074 *    -5.5074    0.0000     2          
   176  O     s      0.0000       9.9133 *    -3.3044 *  0.0000     2          
   177  O     s      4.4059 *     5.5074 *    -7.7103 *  0.0000     4          
   178  O     s      8.8118 *     1.1015 *     5.5074 *  0.0000     4          
   179  Cl    s      6.6089 *     7.7103 *     3.3044 *  0.0000     4          
   180  Cl    s      2.2030 *     3.3044 *    -9.9133 *  0.0000     4          
   181  O     s      0.0000      -7.7103 *    -7.7103    0.0000     1          
   182  O     s      4.4059 *     1.1015 *     9.9133 *  0.0000     4          
   183  O     s      8.8118 *     5.5074 *    -3.3044 *  0.0000     4          
   184  Cl    s      2.2030 *     7.7103 *     7.7103    0.0000     2          
   185  Cl    s     11.0148 *    -1.1015 *    -1.1015    0.0000     2          
   186  O     s      4.4059 *     9.9133 *    -3.3044 *  0.0000     4          
   187  O     s      0.0000       5.5074 *     9.9133 *  0.0000     2          
   188  Cl    s      2.2030 *    -5.5074 *    -9.9133 *  0.0000     4          
   189  Cl    s      6.6089 *     7.7103 *    -5.5074 *  0.0000     4          
   190  Cl    s     11.0148 *    -1.1015 *     3.3044 *  0.0000     4          
   191  O     s      4.4059 *    -7.7103 *    -7.7103    0.0000     2          
   192  O     s      8.8118 *     1.1015 *    -7.7103 *  0.0000     4          
   193  O     s      8.8118 *     5.5074 *     5.5074    0.0000     2          
   194  Cl    s     11.0148 *     3.3044 *     3.3044    0.0000     2          
   195  Cl    s      6.6089 *    -1.1015 *    -9.9133 *  0.0000     4          
--------------------------------------------------------------------------------


  Constraints on symmetry reduced coordinates :

--------------------------------------------------------------------------------
  Constraint no.      Unconstrained     Constrained    Coefficient    
                         Variable         Variable
--------------------------------------------------------------------------------
           1                 2 y             2 z         1.00000
           2                 3 y             3 z         1.00000
           3                 4 y             4 z         1.00000
           4                10 y            10 z         1.00000
           5                12 y            12 z         1.00000
           6                14 y            14 z         1.00000
           7                15 y            15 z         1.00000
           8                27 y            27 z         1.00000
           9                29 y            29 z         1.00000
          10                30 y            30 z         1.00000
          11                39 y            39 z         1.00000
          12                47 y            47 z         1.00000
          13                48 y            48 z         1.00000
          14                50 y            50 z         1.00000
          15                51 y            51 z         1.00000
          16                60 y            60 z         1.00000
          17                64 y            64 z         1.00000
          18                80 y            80 z         1.00000
          19                86 y            86 z         1.00000
          20                89 y            89 z         1.00000
          21               103 y           103 z         1.00000
          22               111 y           111 z         1.00000
          23               112 y           112 z         1.00000
          24               113 y           113 z         1.00000
          25               114 y           114 z         1.00000
          26               127 y           127 z         1.00000
          27               129 y           129 z         1.00000
          28               134 y           134 z         1.00000
          29               135 y           135 z         1.00000
          30               138 y           138 z         1.00000
          31               139 y           139 z         1.00000
          32               142 y           142 z         1.00000
          33               143 y           143 z         1.00000
          34               144 y           144 z         1.00000
          35               149 y           149 z         1.00000
          36               150 y           150 z         1.00000
          37               155 y           155 z         1.00000
          38               158 y           158 z         1.00000
          39               159 y           159 z         1.00000
          40               164 y           164 z         1.00000
          41               165 y           165 z         1.00000
          42               172 y           172 z         1.00000
          43               175 y           175 z         1.00000
          44               181 y           181 z         1.00000
          45               184 y           184 z         1.00000
          46               185 y           185 z         1.00000
          47               191 y           191 z         1.00000
          48               193 y           193 z         1.00000
          49               194 y           194 z         1.00000
--------------------------------------------------------------------------------


  Components of defect energy : 

--------------------------------------------------------------------------------
  Region 1 - region 1                   =      8.52279619 eV
  Region 1 - region 2a (unrelaxed)      =     -0.03569001 eV
  Region 1 - 2a (relaxed - correction)  =     -0.27662947 eV
  Region 1 (Total)                      =      8.21047671 eV
  Region 2a                             =      0.13826355 eV
  Region 2b                             =     -0.40787748 eV
--------------------------------------------------------------------------------
  Total defect energy                   =      7.94086278 eV
--------------------------------------------------------------------------------

  Largest displacement in region 2 =   0.0169 Angstroms


  Number of variables =      486

  Maximum number of calculations  =        1000
  Maximum Hessian update interval =          10
  Maximum step size               =   1.0000000
  Maximum parameter tolerance     =   0.0000100
  Maximum function  tolerance     =   0.0000100
  Maximum gradient  tolerance     =   0.0010000

  Symmetry adapted optimisation

  Symmetry to be used for second derivatives

  Newton-Raphson optimiser to be used

  BFGS hessian update to be used

  Lower half triangular hessian to be used

  Start of defect optimisation :

  Cycle:      0 Defect Energy:   7.940863  Gnorm:     0.045748  CPU:    2.177
  ** Hessian calculated **
  Cycle:      1 Defect Energy:   6.096982  Gnorm:     0.026344  CPU:    5.964
  Cycle:      2 Defect Energy:   5.219429  Gnorm:     0.004337  CPU:    9.901
  Cycle:      3 Defect Energy:   5.200607  Gnorm:     0.002948  CPU:   12.756
  Cycle:      4 Defect Energy:   5.190304  Gnorm:     0.001692  CPU:   13.484
  Cycle:      5 Defect Energy:   5.186363  Gnorm:     0.001121  CPU:   14.095
  Cycle:      6 Defect Energy:   5.184641  Gnorm:     0.000758  CPU:   14.703
  Cycle:      7 Defect Energy:   5.183832  Gnorm:     0.000516  CPU:   15.307
  Cycle:      8 Defect Energy:   5.183457  Gnorm:     0.000356  CPU:   15.916
  Cycle:      9 Defect Energy:   5.183290  Gnorm:     0.000244  CPU:   16.523
  Cycle:     10 Defect Energy:   5.183218  Gnorm:     0.000168  CPU:   17.127
  ** Hessian calculated **
  Cycle:     11 Defect Energy:   5.183190  Gnorm:     0.000118  CPU:   19.282
  Cycle:     12 Defect Energy:   5.183181  Gnorm:     0.000082  CPU:   19.870
  Cycle:     13 Defect Energy:   5.183180  Gnorm:     0.000058  CPU:   20.462


  **** Optimisation achieved ****


  Final defect energy  =        5.18318122
  Final defect Gnorm   =        0.00004032

  Components of defect energy : 

--------------------------------------------------------------------------------
  Region 1 - region 1                   =      6.59394985 eV
  Region 1 - region 2a (unrelaxed)      =     -0.89401924 eV
  Region 1 - 2a (relaxed - correction)  =     -0.21865133 eV
  Region 1 (Total)                      =      5.48127927 eV
  Region 2a                             =      0.10934833 eV
  Region 2b                             =     -0.40744639 eV
--------------------------------------------------------------------------------
  Total defect energy                   =      5.18318122 eV
--------------------------------------------------------------------------------

  Largest displacement in region 2 =   0.0169 Angstroms

  Final coordinates of region 1 :

--------------------------------------------------------------------------------
   No.  Atomic        x           y           z          Radius      Charge
        Label       (Angs)      (Angs)      (Angs)       (Angs)       (e) 
--------------------------------------------------------------------------------
     1  Na    c     2.202951    0.682915    0.682915    0.000000    1.000000
     2  O     c     2.202951    2.205551    2.205551    0.000000    0.183000
     3  Cl    c     4.603029   -0.095041   -0.095041    0.000000    1.485000
     4  Cl    c    -0.197127   -0.095041   -0.095041    0.000000    1.485000
     5  Na    c     4.353256    2.160830    2.160830    0.000000    1.000000
     6  Na    c     0.052646    2.160830    2.160830    0.000000    1.000000
     7  O     c     2.202951    2.131565   -2.292438    0.000000    0.183000
     8  O     c     2.202951   -2.292438    2.131565    0.000000    0.183000
     9  Na    c     2.202951    1.926527    4.320721    0.000000    1.000000
    10  Na    c     2.202951    4.320721    1.926527    0.000000    1.000000
    11  Na    c     2.202951   -2.430718   -0.009915    0.000000    1.000000
    12  Na    c     2.202951   -0.009915   -2.430718    0.000000    1.000000
    13  Cl    c     4.522492   -0.013071    4.499847    0.000000    1.485000
    14  Cl    c    -0.116590   -0.013071    4.499847    0.000000    1.485000
    15  Cl    c     4.522492    4.499847   -0.013071    0.000000    1.485000
    16  Cl    c    -0.116590    4.499847   -0.013071    0.000000    1.485000
    17  Na    c     4.337162    2.162969   -1.982888    0.000000    1.000000
    18  Na    c     0.068740    2.162969   -1.982888    0.000000    1.000000
    19  Na    c     4.337162   -1.982888    2.162969    0.000000    1.000000
    20  Na    c     0.068740   -1.982888    2.162969    0.000000    1.000000
    21  O     c     2.202951   -2.222368   -2.222368    0.000000    0.183000
    22  Na    c     2.202951   -1.840134    4.271481    0.000000    1.000000
    23  Na    c     2.202951    4.271481   -1.840134    0.000000    1.000000
    24  O     c     6.601730    2.201867    2.201867    0.000000    0.183000
    25  O     c    -2.195827    2.201867    2.201867    0.000000    0.183000
    26  Na    c     6.654839    2.200688    0.004720    0.000000    1.000000
    27  Na    c    -2.248936    2.200688    0.004720    0.000000    1.000000
    28  Na    c     6.654839    0.004720    2.200688    0.000000    1.000000
    29  Na    c    -2.248936    0.004720    2.200688    0.000000    1.000000
    30  Cl    c     4.485450    4.448307    4.448307    0.000000    1.485000
    31  Cl    c    -0.079548    4.448307    4.448307    0.000000    1.485000
    32  Na    c     4.412311   -2.193878   -2.193878    0.000000    1.000000
    33  Na    c    -0.006409   -2.193878   -2.193878    0.000000    1.000000
    34  O     c     2.202951    2.173983    6.589156    0.000000    0.183000
    35  O     c     2.202951    6.589156    2.173983    0.000000    0.183000
    36  O     c     6.590300    2.200875   -2.194301    0.000000    0.183000
    37  O     c    -2.184398    2.200875   -2.194301    0.000000    0.183000
    38  O     c     6.590300   -2.194301    2.200875    0.000000    0.183000
    39  O     c    -2.184398   -2.194301    2.200875    0.000000    0.183000
    40  Na    c     2.202951    2.369321   -4.413424    0.000000    1.000000
    41  Na    c     2.202951   -4.413424    2.369321    0.000000    1.000000
    42  Na    c     2.202951    6.742924   -0.004484    0.000000    1.000000
    43  Na    c     2.202951   -0.004484    6.742924    0.000000    1.000000
    44  Na    c     6.558881    2.198853    4.402552    0.000000    1.000000
    45  Na    c    -2.152979    2.198853    4.402552    0.000000    1.000000
    46  Na    c     6.558881    4.402552    2.198853    0.000000    1.000000
    47  Na    c    -2.152979    4.402552    2.198853    0.000000    1.000000
    48  Na    c     6.604915   -0.005714   -2.211465    0.000000    1.000000
    49  Na    c    -2.199013   -0.005714   -2.211465    0.000000    1.000000
    50  Na    c     6.604915   -2.211465   -0.005714    0.000000    1.000000
    51  Na    c    -2.199013   -2.211465   -0.005714    0.000000    1.000000
    52  Cl    c     4.431479   -0.075592   -4.470692    0.000000    1.485000
    53  Cl    c     4.431479   -4.470692   -0.075592    0.000000    1.485000
    54  Cl    c    -0.025577   -0.075592   -4.470692    0.000000    1.485000
    55  Cl    c    -0.025577   -4.470692   -0.075592    0.000000    1.485000
    56  Na    c     4.402133    2.193415    6.566941    0.000000    1.000000
    57  Na    c     4.402133    6.566941    2.193415    0.000000    1.000000
    58  Na    c     0.003769    2.193415    6.566941    0.000000    1.000000
    59  Na    c     0.003769    6.566941    2.193415    0.000000    1.000000
    60  O     c     2.202951    6.554414   -2.179882    0.000000    0.183000
    61  O     c     2.202951   -2.179882    6.554414    0.000000    0.183000
    62  Na    c     2.202951    6.478322    4.363514    0.000000    1.000000
    63  Na    c     2.202951    4.363514    6.478322    0.000000    1.000000
    64  Na    c     2.202951   -2.275147   -4.426972    0.000000    1.000000
    65  Na    c     2.202951   -4.426972   -2.275147    0.000000    1.000000
    66  O     c     6.623013   -2.221822   -2.221822    0.000000    0.183000
    67  O     c    -2.217111   -2.221822   -2.221822    0.000000    0.183000
    68  Na    c     6.575166   -2.192621    4.399075    0.000000    1.000000
    69  Na    c    -2.169264   -2.192621    4.399075    0.000000    1.000000
    70  Na    c     6.575166    4.399075   -2.192621    0.000000    1.000000
    71  Na    c    -2.169264    4.399075   -2.192621    0.000000    1.000000
    72  Cl    c     8.842513    0.000535    0.000535    0.000000    1.485000
    73  Cl    c    -4.436611    0.000535    0.000535    0.000000    1.485000
    74  Na    c     8.804512    2.244124    2.244124    0.000000    1.000000
    75  Na    c    -4.398609    2.244124    2.244124    0.000000    1.000000
    76  Cl    c     4.451421    4.435474   -4.473447    0.000000    1.485000
    77  Cl    c     4.451421   -4.473447    4.435474    0.000000    1.485000
    78  Cl    c    -0.045518    4.435474   -4.473447    0.000000    1.485000
    79  Cl    c    -0.045518   -4.473447    4.435474    0.000000    1.485000
    80  Na    c     4.399871    6.544433   -2.201062    0.000000    1.000000
    81  Na    c     4.399871   -2.201062    6.544433    0.000000    1.000000
    82  Na    c     0.006031    6.544433   -2.201062    0.000000    1.000000
    83  Na    c     0.006031   -2.201062    6.544433    0.000000    1.000000
    84  O     c     6.613312    2.206223    6.613073    0.000000    0.183000
    85  O     c     6.613312    6.613073    2.206223    0.000000    0.183000
    86  O     c    -2.207410    2.206223    6.613073    0.000000    0.183000
    87  O     c    -2.207410    6.613073    2.206223    0.000000    0.183000
    88  Na    c     6.478298    2.211882   -4.386335    0.000000    1.000000
    89  Na    c    -2.072396    2.211882   -4.386335    0.000000    1.000000
    90  Na    c     6.478298   -4.386335    2.211882    0.000000    1.000000
    91  Na    c    -2.072396   -4.386335    2.211882    0.000000    1.000000
    92  Na    c     6.591084    6.597721   -0.003699    0.000000    1.000000
    93  Na    c    -2.185181    6.597721   -0.003699    0.000000    1.000000
    94  Na    c     6.591084   -0.003699    6.597721    0.000000    1.000000
    95  Na    c    -2.185181   -0.003699    6.597721    0.000000    1.000000
    96  Cl    c     8.839000    0.001535    4.404454    0.000000    1.485000
    97  Cl    c     8.839000    4.404454    0.001535    0.000000    1.485000
    98  Cl    c    -4.433098    0.001535    4.404454    0.000000    1.485000
    99  Cl    c    -4.433098    4.404454    0.001535    0.000000    1.485000
   100  Na    c     8.793898    2.211665   -2.257081    0.000000    1.000000
   101  Na    c     8.793898   -2.257081    2.211665    0.000000    1.000000
   102  Na    c    -4.387995    2.211665   -2.257081    0.000000    1.000000
   103  Na    c    -4.387995   -2.257081    2.211665    0.000000    1.000000
   104  O     c     2.202951    2.208178   -6.628493    0.000000    0.183000
   105  O     c     2.202951   -6.628493    2.208178    0.000000    0.183000
   106  O     c     2.202951    6.579634    6.579634    0.000000    0.183000
   107  Na    c     2.202951    2.275013    8.799333    0.000000    1.000000
   108  Na    c     2.202951    8.799333    2.275013    0.000000    1.000000
   109  Na    c     2.202951    6.395547   -4.377726    0.000000    1.000000
   110  Na    c     2.202951   -4.377726    6.395547    0.000000    1.000000
   111  Na    c     2.202951   -6.531236    0.001416    0.000000    1.000000
   112  Na    c     2.202951    0.001416   -6.531236    0.000000    1.000000
   113  O     c     6.614896    6.611207   -2.214409    0.000000    0.183000
   114  O     c     6.614896   -2.214409    6.611207    0.000000    0.183000
   115  O     c    -2.208994    6.611207   -2.214409    0.000000    0.183000
   116  O     c    -2.208994   -2.214409    6.611207    0.000000    0.183000
   117  Na    c     6.599413    6.593125    4.406185    0.000000    1.000000
   118  Na    c    -2.193511    6.593125    4.406185    0.000000    1.000000
   119  Na    c     6.599413    4.406185    6.593125    0.000000    1.000000
   120  Na    c    -2.193511    4.406185    6.593125    0.000000    1.000000
   121  Na    c     6.592494   -2.207408   -4.414181    0.000000    1.000000
   122  Na    c    -2.186592   -2.207408   -4.414181    0.000000    1.000000
   123  Na    c     6.592494   -4.414181   -2.207408    0.000000    1.000000
   124  Na    c    -2.186592   -4.414181   -2.207408    0.000000    1.000000
   125  Cl    c     4.405365   -0.005268    8.833477    0.000000    1.485000
   126  Cl    c     0.000537   -0.005268    8.833477    0.000000    1.485000
   127  Cl    c     4.405365    8.833477   -0.005268    0.000000    1.485000
   128  Cl    c     0.000537    8.833477   -0.005268    0.000000    1.485000
   129  Cl    c     4.397595   -4.430938   -4.430938    0.000000    1.485000
   130  Cl    c     0.008307   -4.430938   -4.430938    0.000000    1.485000
   131  Cl    c     8.840473    4.409306    4.409306    0.000000    1.485000
   132  Cl    c    -4.434571    4.409306    4.409306    0.000000    1.485000
   133  Na    c     4.398797    2.190101   -6.627699    0.000000    1.000000
   134  Na    c     0.007105    2.190101   -6.627699    0.000000    1.000000
   135  Na    c     4.398797   -6.627699    2.190101    0.000000    1.000000
   136  Na    c     0.007105   -6.627699    2.190101    0.000000    1.000000
   137  Na    c     4.406066    6.582832    6.582832    0.000000    1.000000
   138  Na    c    -0.000163    6.582832    6.582832    0.000000    1.000000
   139  Na    c     8.810172   -2.215325   -2.215325    0.000000    1.000000
   140  Na    c    -4.404269   -2.215325   -2.215325    0.000000    1.000000
   141  O     c     2.202951   -2.213667   -6.620650    0.000000    0.183000
   142  O     c     2.202951   -6.620650   -2.213667    0.000000    0.183000
   143  Na    c     2.202951   -2.301779    8.778045    0.000000    1.000000
   144  Na    c     2.202951    8.778045   -2.301779    0.000000    1.000000
   145  Na    c     2.202951   -6.715416    4.403209    0.000000    1.000000
   146  Na    c     2.202951    4.403209   -6.715416    0.000000    1.000000
   147  Cl    c     4.406706    4.406672    8.827834    0.000000    1.485000
   148  Cl    c    -0.000804    4.406672    8.827834    0.000000    1.485000
   149  Cl    c     4.406706    8.827834    4.406672    0.000000    1.485000
   150  Cl    c    -0.000804    8.827834    4.406672    0.000000    1.485000
   151  Cl    c     8.828151   -0.004150   -4.415159    0.000000    1.485000
   152  Cl    c    -4.422249   -0.004150   -4.415159    0.000000    1.485000
   153  Cl    c     8.828151   -4.415159   -0.004150    0.000000    1.485000
   154  Cl    c    -4.422249   -4.415159   -0.004150    0.000000    1.485000
   155  Na    c     4.408178   -2.186987   -6.609416    0.000000    1.000000
   156  Na    c    -0.002275   -2.186987   -6.609416    0.000000    1.000000
   157  Na    c     4.408178   -6.609416   -2.186987    0.000000    1.000000
   158  Na    c    -0.002275   -6.609416   -2.186987    0.000000    1.000000
   159  Na    c     8.807376    2.199966    6.588264    0.000000    1.000000
   160  Na    c    -4.401473    2.199966    6.588264    0.000000    1.000000
   161  Na    c     8.807376    6.588264    2.199966    0.000000    1.000000
   162  Na    c    -4.401473    6.588264    2.199966    0.000000    1.000000
   163  O     c     6.599592    2.197487   -6.603463    0.000000    0.183000
   164  O     c    -2.193689    2.197487   -6.603463    0.000000    0.183000
   165  O     c     6.599592   -6.603463    2.197487    0.000000    0.183000
   166  O     c    -2.193689   -6.603463    2.197487    0.000000    0.183000
   167  O     c     6.617320    6.614042    6.614042    0.000000    0.183000
   168  O     c    -2.211418    6.614042    6.614042    0.000000    0.183000
   169  Na    c     6.595642    2.203337    8.805513    0.000000    1.000000
   170  Na    c    -2.189739    2.203337    8.805513    0.000000    1.000000
   171  Na    c     6.595642    8.805513    2.203337    0.000000    1.000000
   172  Na    c    -2.189739    8.805513    2.203337    0.000000    1.000000
   173  Na    c     6.604841    6.592803   -4.408149    0.000000    1.000000
   174  Na    c    -2.198939    6.592803   -4.408149    0.000000    1.000000
   175  Na    c     6.604841   -4.408149    6.592803    0.000000    1.000000
   176  Na    c    -2.198939   -4.408149    6.592803    0.000000    1.000000
   177  Na    c     6.615890   -0.003057   -6.584051    0.000000    1.000000
   178  Na    c    -2.209987   -0.003057   -6.584051    0.000000    1.000000
   179  Na    c     6.615890   -6.584051   -0.003057    0.000000    1.000000
   180  Na    c    -2.209987   -6.584051   -0.003057    0.000000    1.000000
   181  O     c    11.012144    2.204908    2.204908    0.000000    0.183000
   182  O     c    -6.606241    2.204908    2.204908    0.000000    0.183000
   183  Na    c    10.960033    2.199250   -0.000805    0.000000    1.000000
   184  Na    c    -6.554130    2.199250   -0.000805    0.000000    1.000000
   185  Na    c    10.960033   -0.000805    2.199250    0.000000    1.000000
   186  Na    c    -6.554130   -0.000805    2.199250    0.000000    1.000000
   187  Cl    c     8.831977    4.410947   -4.411025    0.000000    1.485000
   188  Cl    c     8.831977   -4.411025    4.410947    0.000000    1.485000
   189  Cl    c    -4.426075    4.410947   -4.411025    0.000000    1.485000
   190  Cl    c    -4.426075   -4.411025    4.410947    0.000000    1.485000
   191  Na    c     8.808234    6.604219   -2.198242    0.000000    1.000000
   192  Na    c     8.808234   -2.198242    6.604219    0.000000    1.000000
   193  Na    c    -4.402331    6.604219   -2.198242    0.000000    1.000000
   194  Na    c    -4.402331   -2.198242    6.604219    0.000000    1.000000
   195  O     c     2.202951    6.592984   -6.603711    0.000000    0.183000
   196  O     c     2.202951   -6.603711    6.592984    0.000000    0.183000
   197  O     c     6.615905   -2.210963   -6.618970    0.000000    0.183000
   198  O     c    -2.210002   -2.210963   -6.618970    0.000000    0.183000
   199  O     c     6.615905   -6.618970   -2.210963    0.000000    0.183000
   200  O     c    -2.210002   -6.618970   -2.210963    0.000000    0.183000
   201  Na    c     2.202951    6.563674    8.787823    0.000000    1.000000
   202  Na    c     2.202951    8.787823    6.563674    0.000000    1.000000
   203  Na    c     2.202951   -6.635990   -4.413418    0.000000    1.000000
   204  Na    c     2.202951   -4.413418   -6.635990    0.000000    1.000000
   205  Na    c     6.590975   -2.211774    8.806957    0.000000    1.000000
   206  Na    c    -2.185073   -2.211774    8.806957    0.000000    1.000000
   207  Na    c     6.590975    8.806957   -2.211774    0.000000    1.000000
   208  Na    c    -2.185073    8.806957   -2.211774    0.000000    1.000000
   209  Na    c     6.587366    4.404676   -6.598841    0.000000    1.000000
   210  Na    c    -2.181464    4.404676   -6.598841    0.000000    1.000000
   211  Na    c     6.587366   -6.598841    4.404676    0.000000    1.000000
   212  Na    c    -2.181464   -6.598841    4.404676    0.000000    1.000000
   213  O     c    11.007849    2.203560   -2.205409    0.000000    0.183000
   214  O     c    11.007849   -2.205409    2.203560    0.000000    0.183000
   215  O     c    -6.601947    2.203560   -2.205409    0.000000    0.183000
   216  O     c    -6.601947   -2.205409    2.203560    0.000000    0.183000
   217  Na    c    11.022861    2.198802    4.405862    0.000000    1.000000
   218  Na    c    -6.616959    2.198802    4.405862    0.000000    1.000000
   219  Na    c    11.022861    4.405862    2.198802    0.000000    1.000000
   220  Na    c    -6.616959    4.405862    2.198802    0.000000    1.000000
   221  Na    c    10.990072   -2.199908    0.001598    0.000000    1.000000
   222  Na    c    -6.584170   -2.199908    0.001598    0.000000    1.000000
   223  Na    c    10.990072    0.001598   -2.199908    0.000000    1.000000
   224  Na    c    -6.584170    0.001598   -2.199908    0.000000    1.000000
   225  Cl    c     4.410408    8.827796   -4.406822    0.000000    1.485000
   226  Cl    c     4.410408   -4.406822    8.827796    0.000000    1.485000
   227  Cl    c    -0.004506    8.827796   -4.406822    0.000000    1.485000
   228  Cl    c    -0.004506   -4.406822    8.827796    0.000000    1.485000
   229  Na    c     4.405050    6.605350   -6.582266    0.000000    1.000000
   230  Na    c     4.405050   -6.582266    6.605350    0.000000    1.000000
   231  Na    c     0.000852    6.605350   -6.582266    0.000000    1.000000
   232  Na    c     0.000852   -6.582266    6.605350    0.000000    1.000000
   233  O     c     2.202951    2.207910   11.010557    0.000000    0.183000
   234  O     c     2.202951   11.010557    2.207910    0.000000    0.183000
   235  O     c    11.013993   -2.202995   -2.202995    0.000000    0.183000
   236  O     c    -6.608090   -2.202995   -2.202995    0.000000    0.183000
   237  Na    c     2.202951    2.158384   -8.820943    0.000000    1.000000
   238  Na    c     2.202951   -8.820943    2.158384    0.000000    1.000000
   239  Na    c     2.202951   10.959107   -0.004811    0.000000    1.000000
   240  Na    c     2.202951   -0.004811   10.959107    0.000000    1.000000
   241  Na    c    11.005045   -2.195813    4.405735    0.000000    1.000000
   242  Na    c    -6.599143   -2.195813    4.405735    0.000000    1.000000
   243  Na    c    11.005045    4.405735   -2.195813    0.000000    1.000000
   244  Na    c    -6.599143    4.405735   -2.195813    0.000000    1.000000
   245  Cl    c     4.408150   -0.002968   -8.837629    0.000000    1.485000
   246  Cl    c    -0.002247   -0.002968   -8.837629    0.000000    1.485000
   247  Cl    c     4.408150   -8.837629   -0.002968    0.000000    1.485000
   248  Cl    c    -0.002247   -8.837629   -0.002968    0.000000    1.485000
   249  Cl    c     8.824235    0.000662    8.822210    0.000000    1.485000
   250  Cl    c     8.824235    8.822210    0.000662    0.000000    1.485000
   251  Cl    c    -4.418332    0.000662    8.822210    0.000000    1.485000
   252  Cl    c    -4.418332    8.822210    0.000662    0.000000    1.485000
   253  Cl    c     8.825663   -4.422435   -4.422435    0.000000    1.485000
   254  Cl    c    -4.419761   -4.422435   -4.422435    0.000000    1.485000
   255  Na    c     4.403154    2.190076   11.006764    0.000000    1.000000
   256  Na    c     0.002748    2.190076   11.006764    0.000000    1.000000
   257  Na    c     4.403154   11.006764    2.190076    0.000000    1.000000
   258  Na    c     0.002748   11.006764    2.190076    0.000000    1.000000
   259  Na    c     8.801585    2.219539   -6.557416    0.000000    1.000000
   260  Na    c     8.801585   -6.557416    2.219539    0.000000    1.000000
   261  Na    c    -4.395683    2.219539   -6.557416    0.000000    1.000000
   262  Na    c    -4.395683   -6.557416    2.219539    0.000000    1.000000
   263  Na    c     8.813272    6.609085    6.609085    0.000000    1.000000
   264  Na    c    -4.407369    6.609085    6.609085    0.000000    1.000000
   265  O     c     2.202951   11.003953   -2.214489    0.000000    0.183000
   266  O     c     2.202951   -2.214489   11.003953    0.000000    0.183000
   267  O     c     6.614000    6.613581   -6.613238    0.000000    0.183000
   268  O     c     6.614000   -6.613238    6.613581    0.000000    0.183000
   269  O     c    -2.208098    6.613581   -6.613238    0.000000    0.183000
   270  O     c    -2.208098   -6.613238    6.613581    0.000000    0.183000
   271  O     c    11.018086    2.203113    6.607582    0.000000    0.183000
   272  O     c    11.018086    6.607582    2.203113    0.000000    0.183000
   273  O     c    -6.612184    2.203113    6.607582    0.000000    0.183000
   274  O     c    -6.612184    6.607582    2.203113    0.000000    0.183000
   275  Na    c     2.202951   11.024997    4.407286    0.000000    1.000000
   276  Na    c     2.202951    4.407286   11.024997    0.000000    1.000000
   277  Na    c     2.202951   -2.176394   -8.811064    0.000000    1.000000
   278  Na    c     2.202951   -8.811064   -2.176394    0.000000    1.000000
   279  Na    c     6.607404    6.608015    8.808589    0.000000    1.000000
   280  Na    c    -2.201502    6.608015    8.808589    0.000000    1.000000
   281  Na    c     6.607404    8.808589    6.608015    0.000000    1.000000
   282  Na    c    -2.201502    8.808589    6.608015    0.000000    1.000000
   283  Na    c     6.606334   -6.614711   -4.409183    0.000000    1.000000
   284  Na    c    -2.200431   -6.614711   -4.409183    0.000000    1.000000
   285  Na    c     6.606334   -4.409183   -6.614711    0.000000    1.000000
   286  Na    c    -2.200431   -4.409183   -6.614711    0.000000    1.000000
   287  Na    c    11.031630    2.205595   -4.404349    0.000000    1.000000
   288  Na    c    -6.625728    2.205595   -4.404349    0.000000    1.000000
   289  Na    c    11.031630   -4.404349    2.205595    0.000000    1.000000
   290  Na    c    -6.625728   -4.404349    2.205595    0.000000    1.000000
   291  Na    c    11.007221    6.610550    0.000590    0.000000    1.000000
   292  Na    c    -6.601318    6.610550    0.000590    0.000000    1.000000
   293  Na    c    11.007221    0.000590    6.610550    0.000000    1.000000
   294  Na    c    -6.601318    0.000590    6.610550    0.000000    1.000000
   295  Cl    c     8.827515    8.824391    4.411637    0.000000    1.485000
   296  Cl    c    -4.421613    8.824391    4.411637    0.000000    1.485000
   297  Cl    c     8.827515    4.411637    8.824391    0.000000    1.485000
   298  Cl    c    -4.421613    4.411637    8.824391    0.000000    1.485000
   299  Na    c     8.811864   -6.602597   -2.214349    0.000000    1.000000
   300  Na    c    -4.405962   -6.602597   -2.214349    0.000000    1.000000
   301  Na    c     8.811864   -2.214349   -6.602597    0.000000    1.000000
   302  Na    c    -4.405962   -2.214349   -6.602597    0.000000    1.000000
   303  Cl    c     4.408497    4.406368   -8.835243    0.000000    1.485000
   304  Cl    c     4.408497   -8.835243    4.406368    0.000000    1.485000
   305  Cl    c    -0.002595    4.406368   -8.835243    0.000000    1.485000
   306  Cl    c    -0.002595   -8.835243    4.406368    0.000000    1.485000
   307  Na    c     4.403475   10.998072   -2.194629    0.000000    1.000000
   308  Na    c     4.403475   -2.194629   10.998072    0.000000    1.000000
   309  Na    c     0.002427   10.998072   -2.194629    0.000000    1.000000
   310  Na    c     0.002427   -2.194629   10.998072    0.000000    1.000000
   311  O     c     2.202951   -6.617049   -6.617049    0.000000    0.183000
   312  O     c     6.608822    2.201527   11.015330    0.000000    0.183000
   313  O     c     6.608822   11.015330    2.201527    0.000000    0.183000
   314  O     c    -2.202920    2.201527   11.015330    0.000000    0.183000
   315  O     c    -2.202920   11.015330    2.201527    0.000000    0.183000
   316  O     c    11.017107    6.611219   -2.201930    0.000000    0.183000
   317  O     c    11.017107   -2.201930    6.611219    0.000000    0.183000
   318  O     c    -6.611205    6.611219   -2.201930    0.000000    0.183000
   319  O     c    -6.611205   -2.201930    6.611219    0.000000    0.183000
   320  Na    c     2.202951   -6.535498    8.795055    0.000000    1.000000
   321  Na    c     2.202951    8.795055   -6.535498    0.000000    1.000000
   322  Na    c     6.618121    2.199209   -8.804959    0.000000    1.000000
   323  Na    c    -2.212219    2.199209   -8.804959    0.000000    1.000000
   324  Na    c     6.618121   -8.804959    2.199209    0.000000    1.000000
   325  Na    c    -2.212219   -8.804959    2.199209    0.000000    1.000000
   326  Na    c     6.608920   11.003130   -0.001561    0.000000    1.000000
   327  Na    c    -2.203017   11.003130   -0.001561    0.000000    1.000000
   328  Na    c     6.608920   -0.001561   11.003130    0.000000    1.000000
   329  Na    c    -2.203017   -0.001561   11.003130    0.000000    1.000000
   330  Na    c    11.006531    6.605786    4.405905    0.000000    1.000000
   331  Na    c    -6.600629    6.605786    4.405905    0.000000    1.000000
   332  Na    c    11.006531    4.405905    6.605786    0.000000    1.000000
   333  Na    c    -6.600629    4.405905    6.605786    0.000000    1.000000
   334  Na    c    11.013183   -2.196820   -4.404171    0.000000    1.000000
   335  Na    c    -6.607281   -2.196820   -4.404171    0.000000    1.000000
   336  Na    c    11.013183   -4.404171   -2.196820    0.000000    1.000000
   337  Na    c    -6.607281   -4.404171   -2.196820    0.000000    1.000000
   338  Cl    c     4.413312    8.819760    8.819760    0.000000    1.485000
   339  Cl    c    -0.007410    8.819760    8.819760    0.000000    1.485000
   340  Cl    c    13.240077   -0.002038   -0.002038    0.000000    1.485000
   341  Cl    c    -8.834175   -0.002038   -0.002038    0.000000    1.485000
   342  Na    c     4.406526   -6.605791   -6.605791    0.000000    1.000000
   343  Na    c    -0.000623   -6.605791   -6.605791    0.000000    1.000000
   344  Na    c    13.211538    2.186627    2.186627    0.000000    1.000000
   345  Na    c    -8.805636    2.186627    2.186627    0.000000    1.000000
   346  O     c     6.611845   11.019060   -2.205272    0.000000    0.183000
   347  O     c    -2.205943   11.019060   -2.205272    0.000000    0.183000
   348  O     c     6.611845   -2.205272   11.019060    0.000000    0.183000
   349  O     c    -2.205943   -2.205272   11.019060    0.000000    0.183000
   350  Na    c     6.597129   11.003022    4.403628    0.000000    1.000000
   351  Na    c    -2.191227   11.003022    4.403628    0.000000    1.000000
   352  Na    c     6.597129    4.403628   11.003022    0.000000    1.000000
   353  Na    c    -2.191227    4.403628   11.003022    0.000000    1.000000
   354  Na    c     6.610153   -8.811858   -2.194412    0.000000    1.000000
   355  Na    c    -2.204251   -8.811858   -2.194412    0.000000    1.000000
   356  Na    c     6.610153   -2.194412   -8.811858    0.000000    1.000000
   357  Na    c    -2.204251   -2.194412   -8.811858    0.000000    1.000000
   358  O     c     2.202951    6.609484   11.012688    0.000000    0.183000
[...]
    115 y         11.014756     11.019060     0.004305    Cartesian    0.04
    115 z         -2.202951     -2.205272    -0.002321    Cartesian    0.11
    116 x          6.608853      6.597129    -0.011724    Cartesian   -0.18
    116 y         11.014756     11.003022    -0.011734    Cartesian   -0.11
    116 z          4.405902      4.403628    -0.002275    Cartesian   -0.05
    117 x          6.608853      6.610153     0.001300    Cartesian    0.02
    117 y         -8.811805     -8.811858    -0.000053    Cartesian    0.00
    117 z         -2.202951     -2.194412     0.008539    Cartesian   -0.39
    118 x          2.202951      2.202951     0.000000    Cartesian    0.00
    118 y          6.608853      6.609484     0.000630    Cartesian    0.01
    118 z         11.014756     11.012688    -0.002068    Cartesian   -0.02
    119 x          2.202951      2.202951     0.000000    Cartesian    0.00
    119 y          6.608853      6.644209     0.035356    Cartesian    0.53
    119 z         -8.811805     -8.805410     0.006395    Cartesian   -0.07
    120 x          2.202951      2.202951     0.000000    Cartesian    0.00
    120 y         11.014756     11.024753     0.009997    Cartesian    0.09
    120 z         -4.405902     -4.406888    -0.000985    Cartesian    0.02
    121 x          4.405902      4.410947     0.005045    Cartesian    0.11
    121 y         -4.405902     -4.422258    -0.016356    Cartesian    0.37
    121 z         -8.811805     -8.831415    -0.019611    Cartesian    0.22
    122 x          8.811805      8.827469     0.015665    Cartesian    0.18
    122 y          8.811805      8.828428     0.016623    Cartesian    0.19
    122 z         -4.405902     -4.417216    -0.011313    Cartesian    0.26
    123 x         13.217707     13.239054     0.021348    Cartesian    0.16
    123 y          0.000000     -0.002509    -0.002509    Cartesian    0.00
    123 z          4.405902      4.409759     0.003856    Cartesian    0.09
    124 x          4.405902      4.403535    -0.002367    Cartesian   -0.05
    124 y          6.608853      6.606400    -0.002454    Cartesian   -0.04
    124 z         11.014756     10.991153    -0.023603    Cartesian   -0.21
    125 x          8.811805      8.809207    -0.002598    Cartesian   -0.03
    125 y          6.608853      6.601648    -0.007205    Cartesian   -0.11
    125 z         -6.608853     -6.604006     0.004847    Cartesian   -0.07
    126 x         13.217707     13.209477    -0.008230    Cartesian   -0.06
    126 y          2.202951      2.199307    -0.003645    Cartesian   -0.17
    126 z         -2.202951     -2.180618     0.022333    Cartesian   -1.01
    127 x          6.608853      6.612239     0.003385    Cartesian    0.05
    127 y         -6.608853     -6.615355    -0.006502    Cartesian    0.10
    127 z         -6.608853     -6.615355    -0.006502    Cartesian    0.10
    128 x         11.014756     11.018983     0.004227    Cartesian    0.04
    128 y          2.202951      2.205735     0.002784    Cartesian    0.13
    128 z         -6.608853     -6.609946    -0.001093    Cartesian    0.02
    129 x         11.014756     11.020592     0.005837    Cartesian    0.05
    129 y          6.608853      6.612913     0.004060    Cartesian    0.06
    129 z          6.608853      6.612913     0.004060    Cartesian    0.06
    130 x          6.608853      6.604462    -0.004391    Cartesian   -0.07
    130 y         -6.608853     -6.598409     0.010445    Cartesian   -0.16
    130 z          8.811805      8.809222    -0.002583    Cartesian   -0.03
    131 x         11.014756     10.997976    -0.016780    Cartesian   -0.15
    131 y          2.202951      2.203407     0.000456    Cartesian    0.02
    131 z          8.811805      8.807611    -0.004194    Cartesian   -0.05
    132 x         11.014756     10.998867    -0.015889    Cartesian   -0.14
    132 y          6.608853      6.600333    -0.008520    Cartesian   -0.13
    132 z         -4.405902     -4.403172     0.002730    Cartesian   -0.06
    133 x         11.014756     10.991969    -0.022787    Cartesian   -0.21
    133 y          0.000000      0.002615     0.002615    Cartesian    0.00
    133 z         -6.608853     -6.602391     0.006463    Cartesian   -0.10
    134 x         13.217707     13.238473     0.020766    Cartesian    0.16
    134 y          4.405902      4.412151     0.006249    Cartesian    0.14
    134 z          4.405902      4.412151     0.006249    Cartesian    0.14
    135 x         13.217707     13.211127    -0.006580    Cartesian   -0.05
    135 y         -2.202951     -2.191123     0.011828    Cartesian   -0.54
    135 z         -2.202951     -2.191123     0.011828    Cartesian   -0.54
    136 x          8.811805      8.823738     0.011933    Cartesian    0.14
    136 y          0.000000     -0.004491    -0.004491    Cartesian    0.00
    136 z         -8.811805     -8.834082    -0.022277    Cartesian    0.25
    137 x          8.811805      8.807781    -0.004024    Cartesian   -0.05
    137 y          2.202951      2.203591     0.000640    Cartesian    0.03
    137 z         11.014756     10.997449    -0.017307    Cartesian   -0.16
    138 x          2.202951      2.202951     0.000000    Cartesian    0.00
    138 y          2.202951      2.205626     0.002674    Cartesian    0.12
    138 z          2.202951      2.205626     0.002674    Cartesian    0.12
    139 x          4.405902      4.590639     0.184737    Cartesian    4.19
    139 y          0.000000     -0.092720    -0.092720    Cartesian    0.00
    139 z          0.000000     -0.092720    -0.092720    Cartesian    0.00
    140 x          2.202951      2.202951     0.000000    Cartesian    0.00
    140 y          2.202951      2.131564    -0.071387    Cartesian   -3.24
    140 z         -2.202951     -2.292721    -0.089769    Cartesian    4.07
    141 x          4.405902      4.531205     0.125303    Cartesian    2.84
    141 y          0.000000     -0.018653    -0.018653    Cartesian    0.00
    141 z          4.405902      4.512580     0.106678    Cartesian    2.42
    142 x          2.202951      2.202951     0.000000    Cartesian    0.00
    142 y         -2.202951     -2.222422    -0.019471    Cartesian    0.88
    142 z         -2.202951     -2.222422    -0.019471    Cartesian    0.88
    143 x          6.608853      6.601783    -0.007070    Cartesian   -0.11
    143 y          2.202951      2.201864    -0.001087    Cartesian   -0.05
    143 z          2.202951      2.201864    -0.001087    Cartesian   -0.05
    144 x          4.405902      4.497625     0.091723    Cartesian    2.08
    144 y          4.405902      4.458773     0.052870    Cartesian    1.20
    144 z          4.405902      4.458773     0.052870    Cartesian    1.20
    145 x          2.202951      2.202951     0.000000    Cartesian    0.00
    145 y          2.202951      2.173964    -0.028987    Cartesian   -1.32
    145 z          6.608853      6.589229    -0.019624    Cartesian   -0.30
    146 x          6.608853      6.590355    -0.018498    Cartesian   -0.28
    146 y          2.202951      2.200883    -0.002068    Cartesian   -0.09
    146 z         -2.202951     -2.194290     0.008661    Cartesian   -0.39
    147 x          4.405902      4.434079     0.028176    Cartesian    0.64
    147 y          0.000000     -0.085150    -0.085150    Cartesian    0.00
    147 z         -4.405902     -4.477892    -0.071990    Cartesian    1.63
    148 x          2.202951      2.202951     0.000000    Cartesian    0.00
    148 y          6.608853      6.554499    -0.054354    Cartesian   -0.82
    148 z         -2.202951     -2.179844     0.023107    Cartesian   -1.05
    149 x          6.608853      6.623024     0.014171    Cartesian    0.21
    149 y         -2.202951     -2.221838    -0.018887    Cartesian    0.86
    149 z         -2.202951     -2.221838    -0.018887    Cartesian    0.86
    150 x          8.811805      8.847493     0.035688    Cartesian    0.41
    150 y          0.000000      0.001327     0.001327    Cartesian    0.00
    150 z          0.000000      0.001327     0.001327    Cartesian    0.00
    151 x          4.405902      4.457624     0.051722    Cartesian    1.17
    151 y          4.405902      4.442088     0.036185    Cartesian    0.82
    151 z         -4.405902     -4.484011    -0.078109    Cartesian    1.77
    152 x          6.608853      6.613314     0.004460    Cartesian    0.07
    152 y          2.202951      2.206229     0.003278    Cartesian    0.15
    152 z          6.608853      6.613076     0.004223    Cartesian    0.06
    153 x          8.811805      8.843268     0.031464    Cartesian    0.36
    153 y          0.000000      0.001998     0.001998    Cartesian    0.00
    153 z          4.405902      4.403858    -0.002045    Cartesian   -0.05
    154 x          2.202951      2.202951     0.000000    Cartesian    0.00
    154 y          2.202951      2.208203     0.005252    Cartesian    0.24
    154 z         -6.608853     -6.628525    -0.019671    Cartesian    0.30
    155 x          2.202951      2.202951     0.000000    Cartesian    0.00
    155 y          6.608853      6.579627    -0.029227    Cartesian   -0.44
    155 z          6.608853      6.579627    -0.029227    Cartesian   -0.44
    156 x          6.608853      6.614906     0.006052    Cartesian    0.09
    156 y          6.608853      6.611208     0.002355    Cartesian    0.04
    156 z         -2.202951     -2.214419    -0.011468    Cartesian    0.52
    157 x          4.405902      4.404790    -0.001112    Cartesian   -0.03
    157 y          0.000000     -0.005124    -0.005124    Cartesian    0.00
    157 z          8.811805      8.836513     0.024708    Cartesian    0.28
    158 x          4.405902      4.395454    -0.010448    Cartesian   -0.24
    158 y         -4.405902     -4.432118    -0.026215    Cartesian    0.60
    158 z         -4.405902     -4.432118    -0.026215    Cartesian    0.60
    159 x          8.811805      8.844627     0.032823    Cartesian    0.37
    159 y          4.405902      4.409429     0.003527    Cartesian    0.08
    159 z          4.405902      4.409429     0.003527    Cartesian    0.08
    160 x          2.202951      2.202951     0.000000    Cartesian    0.00
    160 y         -2.202951     -2.213682    -0.010731    Cartesian    0.49
    160 z         -6.608853     -6.620638    -0.011785    Cartesian    0.18
    161 x          4.405902      4.407161     0.001258    Cartesian    0.03
    161 y          4.405902      4.407282     0.001379    Cartesian    0.03
    161 z          8.811805      8.832361     0.020557    Cartesian    0.23
    162 x          8.811805      8.831912     0.020107    Cartesian    0.23
    162 y          0.000000     -0.005181    -0.005181    Cartesian    0.00
    162 z         -4.405902     -4.416458    -0.010556    Cartesian    0.24
    163 x          6.608853      6.599573    -0.009280    Cartesian   -0.14
    163 y          2.202951      2.197485    -0.005467    Cartesian   -0.25
    163 z         -6.608853     -6.603477     0.005377    Cartesian   -0.08
    164 x          6.608853      6.617329     0.008475    Cartesian    0.13
    164 y          6.608853      6.614046     0.005193    Cartesian    0.08
    164 z          6.608853      6.614046     0.005193    Cartesian    0.08
    165 x         11.014756     11.012139    -0.002616    Cartesian   -0.02
    165 y          2.202951      2.204916     0.001965    Cartesian    0.09
    165 z          2.202951      2.204916     0.001965    Cartesian    0.09
    166 x          8.811805      8.836326     0.024522    Cartesian    0.28
    166 y          4.405902      4.411936     0.006033    Cartesian    0.14
    166 z         -4.405902     -4.412259    -0.006356    Cartesian    0.14
    167 x          2.202951      2.202951     0.000000    Cartesian    0.00
    167 y          6.608853      6.592954    -0.015900    Cartesian   -0.24
    167 z         -6.608853     -6.603749     0.005104    Cartesian   -0.08
    168 x          6.608853      6.615912     0.007058    Cartesian    0.11
    168 y         -2.202951     -2.210968    -0.008017    Cartesian    0.36
    168 z         -6.608853     -6.618972    -0.010119    Cartesian    0.15
    169 x         11.014756     11.007856    -0.006900    Cartesian   -0.06
    169 y          2.202951      2.203560     0.000609    Cartesian    0.03
    169 z         -2.202951     -2.205418    -0.002467    Cartesian    0.11
    170 x          4.405902      4.411021     0.005119    Cartesian    0.12
    170 y          8.811805      8.832423     0.020618    Cartesian    0.23
    170 z         -4.405902     -4.407426    -0.001524    Cartesian    0.03
    171 x          2.202951      2.202951     0.000000    Cartesian    0.00
    171 y          2.202951      2.207931     0.004980    Cartesian    0.23
    171 z         11.014756     11.010555    -0.004201    Cartesian   -0.04
    172 x         11.014756     11.013992    -0.000764    Cartesian   -0.01
    172 y         -2.202951     -2.202998    -0.000046    Cartesian    0.00
    172 z         -2.202951     -2.202998    -0.000046    Cartesian    0.00
    173 x          4.405902      4.407805     0.001903    Cartesian    0.04
    173 y          0.000000     -0.002946    -0.002946    Cartesian    0.00
    173 z         -8.811805     -8.841083    -0.029278    Cartesian    0.33
    174 x          8.811805      8.826761     0.014957    Cartesian    0.17
    174 y          0.000000      0.001248     0.001248    Cartesian    0.00
    174 z          8.811805      8.824238     0.012433    Cartesian    0.14
    175 x          8.811805      8.827583     0.015779    Cartesian    0.18
    175 y         -4.405902     -4.424027    -0.018125    Cartesian    0.41
    175 z         -4.405902     -4.424027    -0.018125    Cartesian    0.41
    176 x          2.202951      2.202951     0.000000    Cartesian    0.00
    176 y         11.014756     11.003962    -0.010794    Cartesian   -0.10
    176 z         -2.202951     -2.214515    -0.011564    Cartesian    0.52
    177 x          6.608853      6.614008     0.005154    Cartesian    0.08
    177 y          6.608853      6.613589     0.004735    Cartesian    0.07
    177 z         -6.608853     -6.613234    -0.004380    Cartesian    0.07
    178 x         11.014756     11.018093     0.003337    Cartesian    0.03
    178 y          2.202951      2.203112     0.000161    Cartesian    0.01
    178 z          6.608853      6.607581    -0.001272    Cartesian   -0.02
    179 x          8.811805      8.830074     0.018269    Cartesian    0.21
    179 y          8.811805      8.826556     0.014751    Cartesian    0.17
    179 z          4.405902      4.412190     0.006288    Cartesian    0.14
    180 x          4.405902      4.407990     0.002088    Cartesian    0.05
    180 y          4.405902      4.406210     0.000308    Cartesian    0.01
    180 z         -8.811805     -8.836105    -0.024300    Cartesian    0.28
    181 x          2.202951      2.202951     0.000000    Cartesian    0.00
    181 y         -6.608853     -6.617057    -0.008204    Cartesian    0.12
    181 z         -6.608853     -6.617057    -0.008204    Cartesian    0.12
    182 x          6.608853      6.608825    -0.000028    Cartesian   -0.00
    182 y          2.202951      2.201527    -0.001424    Cartesian   -0.06
    182 z         11.014756     11.015330     0.000574    Cartesian    0.01
    183 x         11.014756     11.017109     0.002353    Cartesian    0.02
    183 y          6.608853      6.611221     0.002367    Cartesian    0.04
    183 z         -2.202951     -2.201930     0.001021    Cartesian   -0.05
    184 x          4.405902      4.415627     0.009724    Cartesian    0.22
    184 y          8.811805      8.821843     0.010039    Cartesian    0.11
    184 z          8.811805      8.821843     0.010039    Cartesian    0.11
    185 x         13.217707     13.244344     0.026637    Cartesian    0.20
    185 y          0.000000     -0.002509    -0.002509    Cartesian    0.00
    185 z          0.000000     -0.002509    -0.002509    Cartesian    0.00
    186 x          6.608853      6.611850     0.002996    Cartesian    0.05
    186 y         11.014756     11.019068     0.004312    Cartesian    0.04
    186 z         -2.202951     -2.205274    -0.002323    Cartesian    0.11
    187 x          2.202951      2.202951     0.000000    Cartesian    0.00
    187 y          6.608853      6.609475     0.000621    Cartesian    0.01
    187 z         11.014756     11.012706    -0.002050    Cartesian   -0.02
    188 x          4.405902      4.411442     0.005540    Cartesian    0.13
    188 y         -4.405902     -4.424783    -0.018881    Cartesian    0.43
    188 z         -8.811805     -8.833242    -0.021437    Cartesian    0.24
    189 x          8.811805      8.829524     0.017719    Cartesian    0.20
    189 y          8.811805      8.830492     0.018688    Cartesian    0.21
    189 z         -4.405902     -4.418781    -0.012878    Cartesian    0.29
    190 x         13.217707     13.242060     0.024353    Cartesian    0.18
    190 y          0.000000     -0.002840    -0.002840    Cartesian    0.00
    190 z          4.405902      4.410544     0.004642    Cartesian    0.11
    191 x          6.608853      6.612243     0.003389    Cartesian    0.05
    191 y         -6.608853     -6.615362    -0.006509    Cartesian    0.10
    191 z         -6.608853     -6.615362    -0.006509    Cartesian    0.10
    192 x         11.014756     11.019002     0.004246    Cartesian    0.04
    192 y          2.202951      2.205740     0.002789    Cartesian    0.13
    192 z         -6.608853     -6.609940    -0.001086    Cartesian    0.02
    193 x         11.014756     11.020597     0.005842    Cartesian    0.05
    193 y          6.608853      6.612920     0.004066    Cartesian    0.06
    193 z          6.608853      6.612920     0.004066    Cartesian    0.06
    194 x         13.217707     13.240728     0.023021    Cartesian    0.17
    194 y          4.405902      4.413154     0.007252    Cartesian    0.16
    194 z          4.405902      4.413154     0.007252    Cartesian    0.16
    195 x          8.811805      8.825160     0.013355    Cartesian    0.15
    195 y          0.000000     -0.005673    -0.005673    Cartesian    0.00
    195 z         -8.811805     -8.837601    -0.025796    Cartesian    0.29
--------------------------------------------------------------------------------


  Time to end of optimisation  =       21.0701 seconds


  Peak dynamic memory used =      82.62 MB 


  Timing analysis for GULP :

--------------------------------------------------------------------------------
  Task / Subroutine                                          Time (Seconds)
--------------------------------------------------------------------------------
  Calculation of reciprocal space energy and derivatives          0.0006
  Calculation of reciprocal space energy using symmetry           0.0011
  Calculation of real space energy and derivatives                0.0037
  Calculation of real space energy using symmetry                 0.0115
  Calculation for region 1 energy and derivatives (2-b)          10.9832
  Calculation for region 2a energy                                8.4294
  Calculation for region 2b energy                                0.0032
  Calculation and manipulation of Hessian matrix                  1.3757
  Calculation of matrix inversion                                 0.1403
  Symmetry generation of equivalent positions                     0.0046
--------------------------------------------------------------------------------
  Total CPU time                                                 21.0702
--------------------------------------------------------------------------------


  Dump file written as Na3OCl.grs


  Job Finished at 13:02.05 26th September  2021                               

