********************************************************************************
*                       GENERAL UTILITY LATTICE PROGRAM                        *
*                                 Julian Gale                                  *
*                       Curtin Institute for Computation                       *
*                    School of Molecular and Life Sciences                     *
*                    Curtin University, Western Australia                      *
********************************************************************************
* Version = 5.2.0 * Last modified =  10th September 2020                       *
********************************************************************************
*  optimise     - perform optimisation run                                     *
*  conp         - constant pressure calculation                                *
*  property     - calculate properties for final geometry                      *
*  defect       - perform defect calculation after bulk run                    *
*  compare      - compare initial and final structures                         *
********************************************************************************

  Job Started  at 13:01.47 26th September  2021                               

  Number of CPUs =     1


  Total number of configurations input =      1

********************************************************************************
*  Input for Configuration =   1                                               *
********************************************************************************

  Formula = ClONa3                                                      

  Number of irreducible atoms/shells =       5


  Total number atoms/shells =       7

  Dimensionality = 3               :  Bulk   


  Symmetry :

  Crystal family                   :  Cubic       
  Crystal class  (Groth - 1921)    :  Cubic Hexakisoctahedral              

  Space group (centrosymmetric)    :  P M 3 M         

  Patterson group                  :  P m -3 m 

  Cartesian lattice vectors (Angstroms) :

        4.504000    0.000000    0.000000
        0.000000    4.504000    0.000000
        0.000000    0.000000    4.504000

  Cell parameters (Angstroms/Degrees):

  a =       4.5040    alpha =  90.0000
  b =       4.5040    beta  =  90.0000
  c =       4.5040    gamma =  90.0000

  Initial cell volume =          91.368216 Angs**3

  Temperature of configuration =   0.00     K 

  Pressure of configuration =         0.000 GPa 

  Fractional coordinates of asymmetric unit :

--------------------------------------------------------------------------------
   No.  Atomic       x           y          z         Charge      Occupancy
        Label      (Frac)      (Frac)     (Frac)        (e)         (Frac)  
--------------------------------------------------------------------------------
      1 Cl    c    0.000000    0.000000    0.000000     1.48500    1.000000    
      2 O     c    0.500000    0.500000    0.500000     0.18300    1.000000    
      3 Na    c    0.500000    0.500000    0.000000     1.00000    1.000000    
      4 Cl    s    0.000000    0.000000    0.000000    -2.48500    1.000000    
      5 O     s    0.500000    0.500000    0.500000    -2.18300    1.000000    
--------------------------------------------------------------------------------


  Constraints : 

--------------------------------------------------------------------------------
  Constraint no.      Unconstrained     Constrained    Coefficient    Offset
                         Variable         Variable
--------------------------------------------------------------------------------
           1              Strain 1        Strain 2       1.00000      0.0000
           2              Strain 1        Strain 3       1.00000      0.0000
--------------------------------------------------------------------------------


********************************************************************************
*  General input information                                                   *
********************************************************************************

  Species output for all configurations : 

--------------------------------------------------------------------------------
  Species    Type    Atomic    Atomic    Charge       Radii (Angs)     Library
                     Number     Mass       (e)     Cova   Ionic  VDW   Symbol
--------------------------------------------------------------------------------
    Na       Core       11      22.99   1.000000   0.970  0.000  2.300          
    O        Core        8      16.00   0.183000   0.730  0.000  1.360          
    O        Shell       8       0.00  -2.183000   0.730  0.000  1.360          
    Cl       Core       17      35.45   1.485000   0.990  0.000  1.650          
    Cl       Shell      17       0.00  -2.485000   0.990  0.000  1.650          
    Mg       Core       12      24.31   0.415000   1.100  0.000  0.000          
    Mg       Shell      12       0.00   1.585000   1.100  0.000  0.000          
    Ca       Core       20      40.08  -1.135000   0.990  0.000  0.000          
    Ca       Shell      20       0.00   3.135000   0.990  0.000  0.000          
    Sr       Core       38      87.62  -1.251000   1.120  0.000  0.000          
    Sr       Shell      38       0.00   3.251000   1.120  0.000  0.000          
    Ba       Core       56     137.33  -7.203000   1.340  0.000  0.000          
    Ba       Shell      56       0.00   9.203000   1.340  0.000  0.000          
    Al       Core       13      26.98   3.000000   1.350  0.000  0.000          
    Ga       Core       31      69.72   3.000000   1.220  0.000  0.000          
--------------------------------------------------------------------------------


  Lattice summation method               =    Ewald          (3-D)
                                         =    Parry          (2-D)
                                         =    Saunders et al (1-D)
  Accuracy factor for lattice sums       =   12.000


  Analytic derivatives to be used

  Time limit = Infinity

  Maximum range for interatomic potentials =    100000.000000 Angstroms

  General interatomic potentials :

--------------------------------------------------------------------------------
Atom  Types   Potential      Parameter       Value         Units   Cutoffs(Ang)
  1     2                                                            Min /  Max 
--------------------------------------------------------------------------------
O    c O    s Spring (c-s)  Spring k 2       593.71600    eV*Ang^-2 0.000  0.800
                            Spring k 4       0.0000000    eV*Ang^-4 
--------------------------------------------------------------------------------
Cl   c Cl   s Spring (c-s)  Spring k 2       29.380000    eV*Ang^-2 0.000  0.800
                            Spring k 4       0.0000000    eV*Ang^-4 
--------------------------------------------------------------------------------
Mg   c Mg   s Spring (c-s)  Spring k 2       361.60000    eV*Ang^-2 0.000  0.800
                            Spring k 4       0.0000000    eV*Ang^-4 
--------------------------------------------------------------------------------
Ca   c Ca   s Spring (c-s)  Spring k 2       110.20000    eV*Ang^-2 0.000  0.800
                            Spring k 4       0.0000000    eV*Ang^-4 
--------------------------------------------------------------------------------
Sr   c Sr   s Spring (c-s)  Spring k 2       71.700000    eV*Ang^-2 0.000  0.800
                            Spring k 4       0.0000000    eV*Ang^-4 
--------------------------------------------------------------------------------
Ba   c Ba   s Spring (c-s)  Spring k 2       495.20000    eV*Ang^-2 0.000  0.800
                            Spring k 4       0.0000000    eV*Ang^-4 
--------------------------------------------------------------------------------
Na   c Na   c Buckingham    Buckingham A     1788.1900    eV        0.000 12.000
                            Buckingham rho  0.15900000    Ang       
                            Buckingham C     0.0000000    eV*Ang^6  
--------------------------------------------------------------------------------
Na   c O    s Buckingham    Buckingham A     588.38000    eV        0.000 12.000
                            Buckingham rho  0.33800000    Ang       
                            Buckingham C     0.0000000    eV*Ang^6  
--------------------------------------------------------------------------------
Na   c Cl   s Buckingham    Buckingham A     1170.4100    eV        0.000 12.000
                            Buckingham rho  0.31500000    Ang       
                            Buckingham C     0.0000000    eV*Ang^6  
--------------------------------------------------------------------------------
O    s O    s Buckingham    Buckingham A     22764.300    eV        0.000 12.000
                            Buckingham rho  0.14900000    Ang       
                            Buckingham C     13.190000    eV*Ang^6  
--------------------------------------------------------------------------------
O    s Cl   s Buckingham    Buckingham A     8286.9100    eV        0.000 12.000
                            Buckingham rho  0.25900000    Ang       
                            Buckingham C     62.200000    eV*Ang^6  
--------------------------------------------------------------------------------
Cl   s Cl   s Buckingham    Buckingham A     1227.2000    eV        0.000 12.000
                            Buckingham rho  0.32100000    Ang       
                            Buckingham C     14.530000    eV*Ang^6  
--------------------------------------------------------------------------------
O    s Mg   s Buckingham    Buckingham A     1428.5000    eV        0.000 12.000
                            Buckingham rho  0.29450000    Ang       
                            Buckingham C     0.0000000    eV*Ang^6  
--------------------------------------------------------------------------------
Mg   s Cl   s Buckingham    Buckingham A     4914.5400    eV        0.000 12.000
                            Buckingham rho  0.25700000    Ang       
                            Buckingham C     0.0000000    eV*Ang^6  
--------------------------------------------------------------------------------
O    s Ca   s Buckingham    Buckingham A     1090.4000    eV        0.000 12.000
                            Buckingham rho  0.34370000    Ang       
                            Buckingham C     0.0000000    eV*Ang^6  
--------------------------------------------------------------------------------
Cl   s Ca   s Buckingham    Buckingham A     2302.0000    eV        0.000 12.000
                            Buckingham rho  0.34020000    Ang       
                            Buckingham C     0.0000000    eV*Ang^6  
--------------------------------------------------------------------------------
O    s Sr   s Buckingham    Buckingham A     959.10000    eV        0.000 12.000
                            Buckingham rho  0.37210000    Ang       
                            Buckingham C     0.0000000    eV*Ang^6  
--------------------------------------------------------------------------------
Cl   s Sr   s Buckingham    Buckingham A     2191.0900    eV        0.000 12.000
                            Buckingham rho  0.34570000    Ang       
                            Buckingham C     0.0000000    eV*Ang^6  
--------------------------------------------------------------------------------
O    s Ba   s Buckingham    Buckingham A     905.70000    eV        0.000 12.000
                            Buckingham rho  0.39760000    Ang       
                            Buckingham C     0.0000000    eV*Ang^6  
--------------------------------------------------------------------------------
Cl   s Ba   s Buckingham    Buckingham A     2704.5500    eV        0.000 12.000
                            Buckingham rho  0.35280000    Ang       
                            Buckingham C     0.0000000    eV*Ang^6  
--------------------------------------------------------------------------------
Al   c O    s Buckingham    Buckingham A     1725.0000    eV        0.000 12.000
                            Buckingham rho  0.28970000    Ang       
                            Buckingham C     0.0000000    eV*Ang^6  
--------------------------------------------------------------------------------
Al   c Cl   s Buckingham    Buckingham A     1736.1200    eV        0.000 12.000
                            Buckingham rho  0.29170000    Ang       
                            Buckingham C     0.0000000    eV*Ang^6  
--------------------------------------------------------------------------------
Ga   c O    s Buckingham    Buckingham A     2901.1200    eV        0.000 12.000
                            Buckingham rho  0.27420000    Ang       
                            Buckingham C     0.0000000    eV*Ang^6  
--------------------------------------------------------------------------------
Ga   c Cl   s Buckingham    Buckingham A     924.20000    eV        0.000 12.000
                            Buckingham rho  0.34280000    Ang       
                            Buckingham C     0.0000000    eV*Ang^6  
--------------------------------------------------------------------------------

********************************************************************************
*  Output for configuration   1                                                *
********************************************************************************


  Components of energy : 

--------------------------------------------------------------------------------
  Interatomic potentials     =           4.94315381 eV    
  Monopole - monopole (real) =         -10.03624526 eV    
  Monopole - monopole (recip)=         -29.53581274 eV    
  Monopole - monopole (total)=         -39.57205800 eV    
--------------------------------------------------------------------------------
  Total lattice energy       =         -34.62890419 eV    
--------------------------------------------------------------------------------
  Total lattice energy       =           -3341.1599 kJ/(mole unit cells)
--------------------------------------------------------------------------------


  Number of variables =        1

  Maximum number of calculations  =          1000
  Maximum Hessian update interval =            10
  Maximum step size               =   1.000000000
  Maximum parameter tolerance     =   0.000010000
  Maximum function  tolerance     =   0.000010000
  Maximum gradient  tolerance     =   0.001000000
  Maximum gradient  component     =   0.010000000

  Symmetry constrained optimisation

  Symmetry used for second derivatives

  Cell parameters to be optimised using strains

  Newton-Raphson optimiser to be used

  BFGS hessian update to be used

  Lower half triangular hessian to be used

  Start of bulk optimisation :

  Cycle:      0 Energy:       -34.628904  Gnorm:      4.328237  CPU:    0.015
  ** Hessian calculated **
  Cycle:      1 Energy:       -34.677667  Gnorm:      0.044008  CPU:    0.019
  Cycle:      2 Energy:       -34.677671  Gnorm:      0.003653  CPU:    0.022


  **** Optimisation achieved ****


  Final energy =     -34.67767136 eV
  Final Gnorm  =       0.00000010

  Components of energy : 

--------------------------------------------------------------------------------
  Interatomic potentials     =           5.77546103 eV    
  Monopole - monopole (real) =         -10.25970290 eV    
  Monopole - monopole (recip)=         -30.19342950 eV    
  Monopole - monopole (total)=         -40.45313239 eV    
--------------------------------------------------------------------------------
  Total lattice energy       =         -34.67767136 eV    
--------------------------------------------------------------------------------
  Total lattice energy       =           -3345.8652 kJ/(mole unit cells)
--------------------------------------------------------------------------------

  Final asymmetric unit coordinates :

--------------------------------------------------------------------------------
   No.  Atomic        x           y           z         Radius
        Label       (Frac)      (Frac)      (Frac)       (Angs) 
--------------------------------------------------------------------------------
     1  Cl    c     0.000000    0.000000    0.000000    0.000000
     2  O     c     0.500000    0.500000    0.500000    0.000000
     3  Na    c     0.500000    0.500000    0.000000    0.000000
     4  Cl    s     0.000000    0.000000    0.000000    0.000000
     5  O     s     0.500000    0.500000    0.500000    0.000000
--------------------------------------------------------------------------------

  Final Cartesian lattice vectors (Angstroms) :

        4.405902    0.000000    0.000000
        0.000000    4.405902    0.000000
        0.000000    0.000000    4.405902


  Final cell parameters and derivatives :

--------------------------------------------------------------------------------
       a            4.405902 Angstrom     dE/de1(xx)     0.000000 eV/strain
       b            4.405902 Angstrom     dE/de2(yy)     0.000000 eV/strain
       c            4.405902 Angstrom     dE/de3(zz)     0.000000 eV/strain
       alpha       90.000000 Degrees      dE/de4(yz)     0.000000 eV/strain
       beta        90.000000 Degrees      dE/de5(xz)     0.000000 eV/strain
       gamma       90.000000 Degrees      dE/de6(xy)     0.000000 eV/strain
--------------------------------------------------------------------------------

  Primitive cell volume =            85.527266 Angs**3

  Density of cell =      2.338030 g/cm**3

  Non-primitive cell volume =            85.527266 Angs**3


  Final internal derivatives :

--------------------------------------------------------------------------------
   No.  Atomic          a             b             c           Radius
        Label          (eV)          (eV)          (eV)        (eV/Angs)
--------------------------------------------------------------------------------
      1 Cl    c       0.000000      0.000000      0.000000      0.000000
      2 O     c       0.000000      0.000000      0.000000      0.000000
      3 Na    c       0.000000      0.000000      0.000000      0.000000
      4 Cl    s       0.000000      0.000000      0.000000      0.000000
      5 O     s       0.000000      0.000000      0.000000      0.000000
--------------------------------------------------------------------------------
  Maximum abs         0.000000      0.000000      0.000000      0.000000
--------------------------------------------------------------------------------

  Comparison of initial and final structures : 

--------------------------------------------------------------------------------
  Parameter   Initial value   Final value   Difference    Units      Percent
--------------------------------------------------------------------------------
    Volume        91.368216     85.527266    -5.840950    Angs**3     -6.39
    a              4.504000      4.405902    -0.098098    Angstroms   -2.18
    b              4.504000      4.405902    -0.098098    Angstroms   -2.18
    c              4.504000      4.405902    -0.098098    Angstroms   -2.18
    alpha         90.000000     90.000000     0.000000    Degrees      0.00
    beta          90.000000     90.000000     0.000000    Degrees      0.00
    gamma         90.000000     90.000000     0.000000    Degrees      0.00
      1 x          0.000000      0.000000     0.000000    Fractional   0.00
      1 y          0.000000      0.000000     0.000000    Fractional   0.00
      1 z          0.000000      0.000000     0.000000    Fractional   0.00
      2 x          0.500000      0.500000     0.000000    Fractional   0.00
      2 y          0.500000      0.500000     0.000000    Fractional   0.00
      2 z          0.500000      0.500000     0.000000    Fractional   0.00
      3 x          0.500000      0.500000     0.000000    Fractional   0.00
      3 y          0.500000      0.500000     0.000000    Fractional   0.00
      3 z          0.000000      0.000000     0.000000    Fractional   0.00
      4 x          0.000000      0.000000     0.000000    Fractional   0.00
      4 y          0.000000      0.000000     0.000000    Fractional   0.00
      4 z          0.000000      0.000000     0.000000    Fractional   0.00
      5 x          0.500000      0.500000     0.000000    Fractional   0.00
      5 y          0.500000      0.500000     0.000000    Fractional   0.00
      5 z          0.500000      0.500000     0.000000    Fractional   0.00
--------------------------------------------------------------------------------


  Born effective charge tensors : 

-------------------------------------------------------------------------------
  Atom             x           y             z
-------------------------------------------------------------------------------
    1 Cl    x      -0.9918     -0.0000     -0.0000
            y      -0.0000     -0.9918     -0.0000
            z      -0.0000     -0.0000     -0.9918
-------------------------------------------------------------------------------
    2 O     x      -2.2939      0.0000      0.0000
            y       0.0000     -2.2939      0.0000
            z       0.0000      0.0000     -2.2939
-------------------------------------------------------------------------------
    3 Na    x       1.2243      0.0000      0.0000
            y       0.0000      1.2243     -0.0000
            z       0.0000      0.0000      0.8372
-------------------------------------------------------------------------------




  Elastic Constant Matrix: (Units=GPa)

-------------------------------------------------------------------------------
  Indices      1         2         3         4         5         6    
-------------------------------------------------------------------------------
       1     82.7680   24.3534   24.3534   -0.0000    0.0000   -0.0000
       2     24.3534   82.7680   24.3534    0.0000   -0.0000   -0.0000
       3     24.3534   24.3534   82.7680    0.0000   -0.0000    0.0000
       4     -0.0000    0.0000    0.0000   24.3534   -0.0000    0.0000
       5      0.0000   -0.0000   -0.0000   -0.0000   24.3534    0.0000
       6     -0.0000   -0.0000    0.0000    0.0000    0.0000   24.3534
-------------------------------------------------------------------------------


  Elastic Compliance Matrix: (Units=1/GPa)

-------------------------------------------------------------------------------
  Indices      1         2         3         4         5         6    
-------------------------------------------------------------------------------
       1    0.013948 -0.003171 -0.003171  0.000000 -0.000000  0.000000
       2   -0.003171  0.013948 -0.003171 -0.000000  0.000000 -0.000000
       3   -0.003171 -0.003171  0.013948 -0.000000  0.000000 -0.000000
       4    0.000000 -0.000000 -0.000000  0.041062  0.000000 -0.000000
       5   -0.000000  0.000000  0.000000  0.000000  0.041062 -0.000000
       6    0.000000 -0.000000 -0.000000 -0.000000 -0.000000  0.041062
-------------------------------------------------------------------------------

  Mechanical properties :

-------------------------------------------------------------------------------
  Convention :                    Reuss         Voigt         Hill
-------------------------------------------------------------------------------
  Bulk  Modulus (GPa)     =      43.82493      43.82493      43.82493
  Shear Modulus (GPa)     =      26.08758      26.29496      26.19127
-------------------------------------------------------------------------------
  Velocity S-wave (km/s)  =       3.34035       3.35360       3.34698
  Velocity P-wave (km/s)  =       5.79842       5.80861       5.80351
-------------------------------------------------------------------------------
  Compressibility (1/GPa) =    0.02281806
-------------------------------------------------------------------------------
  Stress axis :                     x             y             z
-------------------------------------------------------------------------------
  Youngs Moduli (GPa)     =      71.69479      71.69479      71.69479
-------------------------------------------------------------------------------
  Poissons Ratio (x)      =                     0.22734       0.22734
  Poissons Ratio (y)      =       0.22734                     0.22734
  Poissons Ratio (z)      =       0.22734       0.22734
-------------------------------------------------------------------------------


  Piezoelectric Strain Matrix: (Units=C/m**2)

-------------------------------------------------------------------------------
  Indices      1         2         3         4         5         6    
-------------------------------------------------------------------------------
       x    -0.00000  -0.00000  -0.00000  -0.00000   0.00000  -0.00000
       y     0.00000  -0.00000   0.00000   0.00000  -0.00000   0.00000
       z    -0.00000  -0.00000   0.00000  -0.00000   0.00000  -0.00000
-------------------------------------------------------------------------------


  Piezoelectric Stress Matrix: (Units=10**-11 C/N)

-------------------------------------------------------------------------------
  Indices      1         2         3         4         5         6    
-------------------------------------------------------------------------------
       x     0.00000  -0.00000  -0.00000  -0.00000   0.00000  -0.00000
       y     0.00000  -0.00000   0.00000   0.00000  -0.00000   0.00000
       z    -0.00000  -0.00000   0.00000  -0.00000   0.00000  -0.00000
-------------------------------------------------------------------------------


  Static dielectric constant tensor : 

-------------------------------------------------------------------------------
              x         y         z
-------------------------------------------------------------------------------
       x    11.08357   0.00000   0.00000
       y     0.00000  11.08357   0.00000
       z     0.00000   0.00000  11.08357
--------------------------------------------------------------------------------

  High frequency dielectric constant tensor : 

-------------------------------------------------------------------------------
              x         y         z
-------------------------------------------------------------------------------
       x     1.50771   0.00000   0.00000
       y     0.00000   1.50771   0.00000
       z     0.00000   0.00000   1.50771
-------------------------------------------------------------------------------

  Static refractive indices : 

-------------------------------------------------------------------------------
    1 =    3.32920      2 =    3.32920      3 =    3.32920
-------------------------------------------------------------------------------

  High frequency refractive indices : 

-------------------------------------------------------------------------------
    1 =    1.22789      2 =    1.22789      3 =    1.22789
-------------------------------------------------------------------------------


  Time to end of optimisation =       0.0311 seconds

********************************************************************************
*  Defect calculation for configuration   1 :                                  *
********************************************************************************

  Total number of defects =      3

  Total charge on defect  =  -1.00

  Defect centre is at   0.5000   0.2500   0.2500  Frac

  Region 1 radius =  12.0000      Number of ions =    593

  Number of symmetry inequivalent region 1 ions  =    195

  Region 2 radius =  16.0000      Number of ions =    832

  Number of symmetry inequivalent region 2a ions =    242

  Region 2a mode = 4 : screened electrostatics due to region 1 
                       neglect correction to region 1 forces from 2a
                       region 2a displacements based on defects only

  Region 2a ions will only interact with defects in region 1

  Vacancies:

--------------------------------------------------------------------------------
    Specification type     Symbol/Number         x          y          z
--------------------------------------------------------------------------------
    Fractional                               0.500000   0.500000   0.000000
    Fractional                               0.500000   0.000000   0.500000
--------------------------------------------------------------------------------

  Interstitials:

--------------------------------------------------------------------------------
    Specification type     Symbol/Number         x          y          z
--------------------------------------------------------------------------------
    Atom/Fractional         Na               0.500000   0.140000   0.140000
--------------------------------------------------------------------------------


  Symmetry reduced region 1 (Relative to defect centre) :

--------------------------------------------------------------------------------
   No.   Atomic       x            y             z       Radius  Multiplicity   
         Label      (Angs)       (Angs)        (Angs)    (Angs)     
--------------------------------------------------------------------------------
     1  Na    c      0.0000      -0.4846      -0.4846    0.0000     1    Defect
     2  O     c      0.0000       1.1015 *     1.1015    0.0000     1          
     3  Cl    c      2.2030 *    -1.1015 *    -1.1015    0.0000     2          
     4  Na    c      2.2030 *     1.1015 *     1.1015    0.0000     2          
     5  O     c      0.0000       1.1015 *    -3.3044 *  0.0000     2          
     6  Na    c      0.0000       1.1015 *     3.3044 *  0.0000     2          
     7  Na    c      0.0000      -3.3044 *    -1.1015 *  0.0000     2          
     8  Cl    c      2.2030 *    -1.1015 *     3.3044 *  0.0000     4          
     9  Na    c      2.2030 *     1.1015 *    -3.3044 *  0.0000     4          
    10  O     c      0.0000      -3.3044 *    -3.3044    0.0000     1          
    11  Na    c      0.0000      -3.3044 *     3.3044 *  0.0000     2          
    12  O     c      4.4059 *     1.1015 *     1.1015    0.0000     2          
    13  Na    c      4.4059 *     1.1015 *    -1.1015 *  0.0000     4          
    14  Cl    c      2.2030 *     3.3044 *     3.3044    0.0000     2          
    15  Na    c      2.2030 *    -3.3044 *    -3.3044    0.0000     2          
    16  O     c      0.0000       1.1015 *     5.5074 *  0.0000     2          
    17  O     c      4.4059 *     1.1015 *    -3.3044 *  0.0000     4          
    18  Na    c      0.0000       1.1015 *    -5.5074 *  0.0000     2          
    19  Na    c      0.0000       5.5074 *    -1.1015 *  0.0000     2          
    20  Na    c      4.4059 *     1.1015 *     3.3044 *  0.0000     4          
    21  Na    c      4.4059 *    -1.1015 *    -3.3044 *  0.0000     4          
    22  Cl    c      2.2030 *    -1.1015 *    -5.5074 *  0.0000     4          
    23  Na    c      2.2030 *     1.1015 *     5.5074 *  0.0000     4          
    24  O     c      0.0000       5.5074 *    -3.3044 *  0.0000     2          
    25  Na    c      0.0000       5.5074 *     3.3044 *  0.0000     2          
    26  Na    c      0.0000      -3.3044 *    -5.5074 *  0.0000     2          
    27  O     c      4.4059 *    -3.3044 *    -3.3044    0.0000     2          
    28  Na    c      4.4059 *    -3.3044 *     3.3044 *  0.0000     4          
    29  Cl    c      6.6089 *    -1.1015 *    -1.1015    0.0000     2          
    30  Na    c      6.6089 *     1.1015 *     1.1015    0.0000     2          
    31  Cl    c      2.2030 *     3.3044 *    -5.5074 *  0.0000     4          
    32  Na    c      2.2030 *     5.5074 *    -3.3044 *  0.0000     4          
    33  O     c      4.4059 *     1.1015 *     5.5074 *  0.0000     4          
    34  Na    c      4.4059 *     1.1015 *    -5.5074 *  0.0000     4          
    35  Na    c      4.4059 *     5.5074 *    -1.1015 *  0.0000     4          
    36  Cl    c      6.6089 *    -1.1015 *     3.3044 *  0.0000     4          
    37  Na    c      6.6089 *     1.1015 *    -3.3044 *  0.0000     4          
    38  O     c      0.0000       1.1015 *    -7.7103 *  0.0000     2          
    39  O     c      0.0000       5.5074 *     5.5074    0.0000     1          
    40  Na    c      0.0000       1.1015 *     7.7103 *  0.0000     2          
    41  Na    c      0.0000       5.5074 *    -5.5074 *  0.0000     2          
    42  Na    c      0.0000      -7.7103 *    -1.1015 *  0.0000     2          
    43  O     c      4.4059 *     5.5074 *    -3.3044 *  0.0000     4          
    44  Na    c      4.4059 *     5.5074 *     3.3044 *  0.0000     4          
    45  Na    c      4.4059 *    -3.3044 *    -5.5074 *  0.0000     4          
    46  Cl    c      2.2030 *    -1.1015 *     7.7103 *  0.0000     4          
    47  Cl    c      2.2030 *    -5.5074 *    -5.5074    0.0000     2          
    48  Cl    c      6.6089 *     3.3044 *     3.3044    0.0000     2          
    49  Na    c      2.2030 *     1.1015 *    -7.7103 *  0.0000     4          
    50  Na    c      2.2030 *     5.5074 *     5.5074    0.0000     2          
    51  Na    c      6.6089 *    -3.3044 *    -3.3044    0.0000     2          
    52  O     c      0.0000      -3.3044 *    -7.7103 *  0.0000     2          
    53  Na    c      0.0000      -3.3044 *     7.7103 *  0.0000     2          
    54  Na    c      0.0000      -7.7103 *     3.3044 *  0.0000     2          
    55  Cl    c      2.2030 *     3.3044 *     7.7103 *  0.0000     4          
    56  Cl    c      6.6089 *    -1.1015 *    -5.5074 *  0.0000     4          
    57  Na    c      2.2030 *    -3.3044 *    -7.7103 *  0.0000     4          
    58  Na    c      6.6089 *     1.1015 *     5.5074 *  0.0000     4          
    59  O     c      4.4059 *     1.1015 *    -7.7103 *  0.0000     4          
    60  O     c      4.4059 *     5.5074 *     5.5074    0.0000     2          
    61  Na    c      4.4059 *     1.1015 *     7.7103 *  0.0000     4          
    62  Na    c      4.4059 *     5.5074 *    -5.5074 *  0.0000     4          
    63  Na    c      4.4059 *    -1.1015 *    -7.7103 *  0.0000     4          
    64  O     c      8.8118 *     1.1015 *     1.1015    0.0000     2          
    65  Na    c      8.8118 *     1.1015 *    -1.1015 *  0.0000     4          
    66  Cl    c      6.6089 *     3.3044 *    -5.5074 *  0.0000     4          
    67  Na    c      6.6089 *     5.5074 *    -3.3044 *  0.0000     4          
    68  O     c      0.0000       5.5074 *    -7.7103 *  0.0000     2          
    69  O     c      4.4059 *    -3.3044 *    -7.7103 *  0.0000     4          
    70  Na    c      0.0000       5.5074 *     7.7103 *  0.0000     2          
    71  Na    c      0.0000      -7.7103 *    -5.5074 *  0.0000     2          
    72  Na    c      4.4059 *    -3.3044 *     7.7103 *  0.0000     4          
    73  Na    c      4.4059 *     3.3044 *    -7.7103 *  0.0000     4          
    74  O     c      8.8118 *     1.1015 *    -3.3044 *  0.0000     4          
    75  Na    c      8.8118 *     1.1015 *     3.3044 *  0.0000     4          
    76  Na    c      8.8118 *    -3.3044 *    -1.1015 *  0.0000     4          
    77  Cl    c      2.2030 *     7.7103 *    -5.5074 *  0.0000     4          
    78  Na    c      2.2030 *     5.5074 *    -7.7103 *  0.0000     4          
    79  O     c      0.0000       1.1015 *     9.9133 *  0.0000     2          
    80  O     c      8.8118 *    -3.3044 *    -3.3044    0.0000     2          
    81  Na    c      0.0000       1.1015 *    -9.9133 *  0.0000     2          
    82  Na    c      0.0000       9.9133 *    -1.1015 *  0.0000     2          
    83  Na    c      8.8118 *    -3.3044 *     3.3044 *  0.0000     4          
    84  Cl    c      2.2030 *    -1.1015 *    -9.9133 *  0.0000     4          
    85  Cl    c      6.6089 *    -1.1015 *     7.7103 *  0.0000     4          
    86  Cl    c      6.6089 *    -5.5074 *    -5.5074    0.0000     2          
    87  Na    c      2.2030 *     1.1015 *     9.9133 *  0.0000     4          
    88  Na    c      6.6089 *     1.1015 *    -7.7103 *  0.0000     4          
    89  Na    c      6.6089 *     5.5074 *     5.5074    0.0000     2          
    90  O     c      0.0000       9.9133 *    -3.3044 *  0.0000     2          
    91  O     c      4.4059 *     5.5074 *    -7.7103 *  0.0000     4          
    92  O     c      8.8118 *     1.1015 *     5.5074 *  0.0000     4          
    93  Na    c      0.0000       9.9133 *     3.3044 *  0.0000     2          
    94  Na    c      0.0000      -3.3044 *    -9.9133 *  0.0000     2          
    95  Na    c      4.4059 *     5.5074 *     7.7103 *  0.0000     4          
    96  Na    c      4.4059 *    -7.7103 *    -5.5074 *  0.0000     4          
    97  Na    c      8.8118 *     1.1015 *    -5.5074 *  0.0000     4          
    98  Na    c      8.8118 *     5.5074 *    -1.1015 *  0.0000     4          
    99  Cl    c      6.6089 *     7.7103 *     3.3044 *  0.0000     4          
   100  Na    c      6.6089 *    -7.7103 *    -3.3044 *  0.0000     4          
   101  Cl    c      2.2030 *     3.3044 *    -9.9133 *  0.0000     4          
   102  Na    c      2.2030 *     9.9133 *    -3.3044 *  0.0000     4          
   103  O     c      0.0000      -7.7103 *    -7.7103    0.0000     1          
   104  O     c      4.4059 *     1.1015 *     9.9133 *  0.0000     4          
   105  O     c      8.8118 *     5.5074 *    -3.3044 *  0.0000     4          
   106  Na    c      0.0000      -7.7103 *     7.7103 *  0.0000     2          
   107  Na    c      4.4059 *     1.1015 *    -9.9133 *  0.0000     4          
   108  Na    c      4.4059 *     9.9133 *    -1.1015 *  0.0000     4          
   109  Na    c      8.8118 *     5.5074 *     3.3044 *  0.0000     4          
   110  Na    c      8.8118 *    -3.3044 *    -5.5074 *  0.0000     4          
   111  Cl    c      2.2030 *     7.7103 *     7.7103    0.0000     2          
   112  Cl    c     11.0148 *    -1.1015 *    -1.1015    0.0000     2          
   113  Na    c      2.2030 *    -7.7103 *    -7.7103    0.0000     2          
   114  Na    c     11.0148 *     1.1015 *     1.1015    0.0000     2          
   115  O     c      4.4059 *     9.9133 *    -3.3044 *  0.0000     4          
   116  Na    c      4.4059 *     9.9133 *     3.3044 *  0.0000     4          
   117  Na    c      4.4059 *    -9.9133 *    -3.3044 *  0.0000     4          
   118  O     c      0.0000       5.5074 *     9.9133 *  0.0000     2          
   119  Na    c      0.0000       5.5074 *    -9.9133 *  0.0000     2          
   120  Na    c      0.0000       9.9133 *    -5.5074 *  0.0000     2          
   121  Cl    c      2.2030 *    -5.5074 *    -9.9133 *  0.0000     4          
   122  Cl    c      6.6089 *     7.7103 *    -5.5074 *  0.0000     4          
   123  Cl    c     11.0148 *    -1.1015 *     3.3044 *  0.0000     4          
   124  Na    c      2.2030 *     5.5074 *     9.9133 *  0.0000     4          
   125  Na    c      6.6089 *     5.5074 *    -7.7103 *  0.0000     4          
   126  Na    c     11.0148 *     1.1015 *    -3.3044 *  0.0000     4          
   127  O     c      4.4059 *    -7.7103 *    -7.7103    0.0000     2          
   128  O     c      8.8118 *     1.1015 *    -7.7103 *  0.0000     4          
   129  O     c      8.8118 *     5.5074 *     5.5074    0.0000     2          
   130  Na    c      4.4059 *    -7.7103 *     7.7103 *  0.0000     4          
   131  Na    c      8.8118 *     1.1015 *     7.7103 *  0.0000     4          
   132  Na    c      8.8118 *     5.5074 *    -5.5074 *  0.0000     4          
   133  Na    c      8.8118 *    -1.1015 *    -7.7103 *  0.0000     4          
   134  Cl    c     11.0148 *     3.3044 *     3.3044    0.0000     2          
   135  Na    c     11.0148 *    -3.3044 *    -3.3044    0.0000     2          
   136  Cl    c      6.6089 *    -1.1015 *    -9.9133 *  0.0000     4          
   137  Na    c      6.6089 *     1.1015 *     9.9133 *  0.0000     4          
   138  O     s      0.0000       1.1015 *     1.1015    0.0000     1          
   139  Cl    s      2.2030 *    -1.1015 *    -1.1015    0.0000     2          
   140  O     s      0.0000       1.1015 *    -3.3044 *  0.0000     2          
   141  Cl    s      2.2030 *    -1.1015 *     3.3044 *  0.0000     4          
   142  O     s      0.0000      -3.3044 *    -3.3044    0.0000     1          
   143  O     s      4.4059 *     1.1015 *     1.1015    0.0000     2          
   144  Cl    s      2.2030 *     3.3044 *     3.3044    0.0000     2          
   145  O     s      0.0000       1.1015 *     5.5074 *  0.0000     2          
   146  O     s      4.4059 *     1.1015 *    -3.3044 *  0.0000     4          
   147  Cl    s      2.2030 *    -1.1015 *    -5.5074 *  0.0000     4          
   148  O     s      0.0000       5.5074 *    -3.3044 *  0.0000     2          
   149  O     s      4.4059 *    -3.3044 *    -3.3044    0.0000     2          
   150  Cl    s      6.6089 *    -1.1015 *    -1.1015    0.0000     2          
   151  Cl    s      2.2030 *     3.3044 *    -5.5074 *  0.0000     4          
   152  O     s      4.4059 *     1.1015 *     5.5074 *  0.0000     4          
   153  Cl    s      6.6089 *    -1.1015 *     3.3044 *  0.0000     4          
   154  O     s      0.0000       1.1015 *    -7.7103 *  0.0000     2          
   155  O     s      0.0000       5.5074 *     5.5074    0.0000     1          
   156  O     s      4.4059 *     5.5074 *    -3.3044 *  0.0000     4          
   157  Cl    s      2.2030 *    -1.1015 *     7.7103 *  0.0000     4          
   158  Cl    s      2.2030 *    -5.5074 *    -5.5074    0.0000     2          
   159  Cl    s      6.6089 *     3.3044 *     3.3044    0.0000     2          
   160  O     s      0.0000      -3.3044 *    -7.7103 *  0.0000     2          
   161  Cl    s      2.2030 *     3.3044 *     7.7103 *  0.0000     4          
   162  Cl    s      6.6089 *    -1.1015 *    -5.5074 *  0.0000     4          
   163  O     s      4.4059 *     1.1015 *    -7.7103 *  0.0000     4          
   164  O     s      4.4059 *     5.5074 *     5.5074    0.0000     2          
   165  O     s      8.8118 *     1.1015 *     1.1015    0.0000     2          
   166  Cl    s      6.6089 *     3.3044 *    -5.5074 *  0.0000     4          
   167  O     s      0.0000       5.5074 *    -7.7103 *  0.0000     2          
   168  O     s      4.4059 *    -3.3044 *    -7.7103 *  0.0000     4          
   169  O     s      8.8118 *     1.1015 *    -3.3044 *  0.0000     4          
   170  Cl    s      2.2030 *     7.7103 *    -5.5074 *  0.0000     4          
   171  O     s      0.0000       1.1015 *     9.9133 *  0.0000     2          
   172  O     s      8.8118 *    -3.3044 *    -3.3044    0.0000     2          
   173  Cl    s      2.2030 *    -1.1015 *    -9.9133 *  0.0000     4          
   174  Cl    s      6.6089 *    -1.1015 *     7.7103 *  0.0000     4          
   175  Cl    s      6.6089 *    -5.5074 *    -5.5074    0.0000     2          
   176  O     s      0.0000       9.9133 *    -3.3044 *  0.0000     2          
   177  O     s      4.4059 *     5.5074 *    -7.7103 *  0.0000     4          
   178  O     s      8.8118 *     1.1015 *     5.5074 *  0.0000     4          
   179  Cl    s      6.6089 *     7.7103 *     3.3044 *  0.0000     4          
   180  Cl    s      2.2030 *     3.3044 *    -9.9133 *  0.0000     4          
   181  O     s      0.0000      -7.7103 *    -7.7103    0.0000     1          
   182  O     s      4.4059 *     1.1015 *     9.9133 *  0.0000     4          
   183  O     s      8.8118 *     5.5074 *    -3.3044 *  0.0000     4          
   184  Cl    s      2.2030 *     7.7103 *     7.7103    0.0000     2          
   185  Cl    s     11.0148 *    -1.1015 *    -1.1015    0.0000     2          
   186  O     s      4.4059 *     9.9133 *    -3.3044 *  0.0000     4          
   187  O     s      0.0000       5.5074 *     9.9133 *  0.0000     2          
   188  Cl    s      2.2030 *    -5.5074 *    -9.9133 *  0.0000     4          
   189  Cl    s      6.6089 *     7.7103 *    -5.5074 *  0.0000     4          
   190  Cl    s     11.0148 *    -1.1015 *     3.3044 *  0.0000     4          
   191  O     s      4.4059 *    -7.7103 *    -7.7103    0.0000     2          
   192  O     s      8.8118 *     1.1015 *    -7.7103 *  0.0000     4          
   193  O     s      8.8118 *     5.5074 *     5.5074    0.0000     2          
   194  Cl    s     11.0148 *     3.3044 *     3.3044    0.0000     2          
   195  Cl    s      6.6089 *    -1.1015 *    -9.9133 *  0.0000     4          
--------------------------------------------------------------------------------


  Constraints on symmetry reduced coordinates :

--------------------------------------------------------------------------------
  Constraint no.      Unconstrained     Constrained    Coefficient    
                         Variable         Variable
--------------------------------------------------------------------------------
           1                 2 y             2 z         1.00000
           2                 3 y             3 z         1.00000
           3                 4 y             4 z         1.00000
           4                10 y            10 z         1.00000
           5                12 y            12 z         1.00000
           6                14 y            14 z         1.00000
           7                15 y            15 z         1.00000
           8                27 y            27 z         1.00000
           9                29 y            29 z         1.00000
          10                30 y            30 z         1.00000
          11                39 y            39 z         1.00000
          12                47 y            47 z         1.00000
          13                48 y            48 z         1.00000
          14                50 y            50 z         1.00000
          15                51 y            51 z         1.00000
          16                60 y            60 z         1.00000
          17                64 y            64 z         1.00000
          18                80 y            80 z         1.00000
          19                86 y            86 z         1.00000
          20                89 y            89 z         1.00000
          21               103 y           103 z         1.00000
          22               111 y           111 z         1.00000
          23               112 y           112 z         1.00000
          24               113 y           113 z         1.00000
          25               114 y           114 z         1.00000
          26               127 y           127 z         1.00000
          27               129 y           129 z         1.00000
          28               134 y           134 z         1.00000
          29               135 y           135 z         1.00000
          30               138 y           138 z         1.00000
          31               139 y           139 z         1.00000
          32               142 y           142 z         1.00000
          33               143 y           143 z         1.00000
          34               144 y           144 z         1.00000
          35               149 y           149 z         1.00000
          36               150 y           150 z         1.00000
          37               155 y           155 z         1.00000
          38               158 y           158 z         1.00000
          39               159 y           159 z         1.00000
          40               164 y           164 z         1.00000
          41               165 y           165 z         1.00000
          42               172 y           172 z         1.00000
          43               175 y           175 z         1.00000
          44               181 y           181 z         1.00000
          45               184 y           184 z         1.00000
          46               185 y           185 z         1.00000
          47               191 y           191 z         1.00000
          48               193 y           193 z         1.00000
          49               194 y           194 z         1.00000
--------------------------------------------------------------------------------


  Components of defect energy : 

--------------------------------------------------------------------------------
  Region 1 - region 1                   =      8.73422985 eV
  Region 1 - region 2a (unrelaxed)      =     -0.03719231 eV
  Region 1 - 2a (relaxed - correction)  =     -0.27692963 eV
  Region 1 (Total)                      =      8.42010792 eV
  Region 2a                             =      0.13841317 eV
  Region 2b                             =     -0.40801092 eV
--------------------------------------------------------------------------------
  Total defect energy                   =      8.15051016 eV
--------------------------------------------------------------------------------

  Largest displacement in region 2 =   0.0170 Angstroms


  Number of variables =      486

  Maximum number of calculations  =        1000
  Maximum Hessian update interval =          10
  Maximum step size               =   1.0000000
  Maximum parameter tolerance     =   0.0000100
  Maximum function  tolerance     =   0.0000100
  Maximum gradient  tolerance     =   0.0010000

  Symmetry adapted optimisation

  Symmetry to be used for second derivatives

  Newton-Raphson optimiser to be used

  BFGS hessian update to be used

  Lower half triangular hessian to be used

  Start of defect optimisation :

  Cycle:      0 Defect Energy:   8.150510  Gnorm:     0.046316  CPU:    1.992
  ** Hessian calculated **
  Cycle:      1 Defect Energy:   6.285581  Gnorm:     0.027709  CPU:    9.925
  Cycle:      2 Defect Energy:   5.264554  Gnorm:     0.001211  CPU:   12.649
  Cycle:      3 Defect Energy:   5.253912  Gnorm:     0.000864  CPU:   13.265
  Cycle:      4 Defect Energy:   5.248554  Gnorm:     0.000588  CPU:   13.893
  Cycle:      5 Defect Energy:   5.245611  Gnorm:     0.000376  CPU:   14.618
  Cycle:      6 Defect Energy:   5.244247  Gnorm:     0.000261  CPU:   15.231
  Cycle:      7 Defect Energy:   5.243613  Gnorm:     0.000173  CPU:   15.827
  Cycle:      8 Defect Energy:   5.243304  Gnorm:     0.000123  CPU:   16.449
  Cycle:      9 Defect Energy:   5.243144  Gnorm:     0.000081  CPU:   17.051
  Cycle:     10 Defect Energy:   5.243066  Gnorm:     0.000057  CPU:   17.503
  ** Hessian calculated **
  Cycle:     11 Defect Energy:   5.243028  Gnorm:     0.000040  CPU:   19.322
  Cycle:     12 Defect Energy:   5.243007  Gnorm:     0.000028  CPU:   20.022
  Cycle:     13 Defect Energy:   5.242995  Gnorm:     0.000019  CPU:   20.640


  **** Optimisation achieved ****


  Final defect energy  =        5.24298826
  Final defect Gnorm   =        0.00001363

  Components of defect energy : 

--------------------------------------------------------------------------------
  Region 1 - region 1                   =      6.63701755 eV
  Region 1 - region 2a (unrelaxed)      =     -0.87730187 eV
  Region 1 - 2a (relaxed - correction)  =     -0.21859389 eV
  Region 1 (Total)                      =      5.54112180 eV
  Region 2a                             =      0.10932160 eV
  Region 2b                             =     -0.40745514 eV
--------------------------------------------------------------------------------
  Total defect energy                   =      5.24298826 eV
--------------------------------------------------------------------------------

  Largest displacement in region 2 =   0.0170 Angstroms

  Final coordinates of region 1 :

--------------------------------------------------------------------------------
   No.  Atomic        x           y           z          Radius      Charge
        Label       (Angs)      (Angs)      (Angs)       (Angs)       (e) 
--------------------------------------------------------------------------------
     1  Na    c     2.202951    0.616826    0.616826    0.000000    1.000000
     2  O     c     2.202951    2.167216    2.167216    0.000000    0.183000
     3  Cl    c     4.625577   -0.102972   -0.102972    0.000000    1.485000
     4  Cl    c    -0.219675   -0.102972   -0.102972    0.000000    1.485000
     5  Na    c     4.348088    2.119224    2.119224    0.000000    1.000000
     6  Na    c     0.057815    2.119224    2.119224    0.000000    1.000000
     7  O     c     2.202951    2.120321   -2.297181    0.000000    0.183000
     8  O     c     2.202951   -2.297181    2.120321    0.000000    0.183000
     9  Na    c     2.202951    1.909763    4.293432    0.000000    1.000000
    10  Na    c     2.202951    4.293432    1.909763    0.000000    1.000000
    11  Na    c     2.202951   -2.470476   -0.017075    0.000000    1.000000
    12  Na    c     2.202951   -0.017075   -2.470476    0.000000    1.000000
    13  Cl    c     4.522407   -0.020380    4.495536    0.000000    1.485000
    14  Cl    c    -0.116505   -0.020380    4.495536    0.000000    1.485000
    15  Cl    c     4.522407    4.495536   -0.020380    0.000000    1.485000
    16  Cl    c    -0.116505    4.495536   -0.020380    0.000000    1.485000
    17  Na    c     4.338300    2.156678   -1.981879    0.000000    1.000000
    18  Na    c     0.067602    2.156678   -1.981879    0.000000    1.000000
    19  Na    c     4.338300   -1.981879    2.156678    0.000000    1.000000
    20  Na    c     0.067602   -1.981879    2.156678    0.000000    1.000000
    21  O     c     2.202951   -2.225338   -2.225338    0.000000    0.183000
    22  Na    c     2.202951   -1.842314    4.263713    0.000000    1.000000
    23  Na    c     2.202951    4.263713   -1.842314    0.000000    1.000000
    24  O     c     6.600946    2.195300    2.195300    0.000000    0.183000
    25  O     c    -2.195044    2.195300    2.195300    0.000000    0.183000
    26  Na    c     6.667884    2.197229   -0.000630    0.000000    1.000000
    27  Na    c    -2.261982    2.197229   -0.000630    0.000000    1.000000
    28  Na    c     6.667884   -0.000630    2.197229    0.000000    1.000000
    29  Na    c    -2.261982   -0.000630    2.197229    0.000000    1.000000
    30  Cl    c     4.480666    4.443000    4.443000    0.000000    1.485000
    31  Cl    c    -0.074764    4.443000    4.443000    0.000000    1.485000
    32  Na    c     4.414622   -2.193450   -2.193450    0.000000    1.000000
    33  Na    c    -0.008720   -2.193450   -2.193450    0.000000    1.000000
    34  O     c     2.202951    2.169645    6.577311    0.000000    0.183000
    35  O     c     2.202951    6.577311    2.169645    0.000000    0.183000
    36  O     c     6.592552    2.199225   -2.198567    0.000000    0.183000
    37  O     c    -2.186649    2.199225   -2.198567    0.000000    0.183000
    38  O     c     6.592552   -2.198567    2.199225    0.000000    0.183000
    39  O     c    -2.186649   -2.198567    2.199225    0.000000    0.183000
    40  Na    c     2.202951    2.376692   -4.416769    0.000000    1.000000
    41  Na    c     2.202951   -4.416769    2.376692    0.000000    1.000000
    42  Na    c     2.202951    6.733426   -0.006512    0.000000    1.000000
    43  Na    c     2.202951   -0.006512    6.733426    0.000000    1.000000
    44  Na    c     6.543658    2.196136    4.395535    0.000000    1.000000
    45  Na    c    -2.137755    2.196136    4.395535    0.000000    1.000000
    46  Na    c     6.543658    4.395535    2.196136    0.000000    1.000000
    47  Na    c    -2.137755    4.395535    2.196136    0.000000    1.000000
    48  Na    c     6.611491   -0.008210   -2.214804    0.000000    1.000000
    49  Na    c    -2.205588   -0.008210   -2.214804    0.000000    1.000000
    50  Na    c     6.611491   -2.214804   -0.008210    0.000000    1.000000
    51  Na    c    -2.205588   -2.214804   -0.008210    0.000000    1.000000
    52  Cl    c     4.430716   -0.079591   -4.474304    0.000000    1.485000
    53  Cl    c     4.430716   -4.474304   -0.079591    0.000000    1.485000
    54  Cl    c    -0.024813   -0.079591   -4.474304    0.000000    1.485000
    55  Cl    c    -0.024813   -4.474304   -0.079591    0.000000    1.485000
    56  Na    c     4.399458    2.191456    6.558287    0.000000    1.000000
    57  Na    c     4.399458    6.558287    2.191456    0.000000    1.000000
    58  Na    c     0.006444    2.191456    6.558287    0.000000    1.000000
    59  Na    c     0.006444    6.558287    2.191456    0.000000    1.000000
    60  O     c     2.202951    6.550328   -2.181810    0.000000    0.183000
    61  O     c     2.202951   -2.181810    6.550328    0.000000    0.183000
    62  Na    c     2.202951    6.467947    4.358643    0.000000    1.000000
    63  Na    c     2.202951    4.358643    6.467947    0.000000    1.000000
    64  Na    c     2.202951   -2.288672   -4.431633    0.000000    1.000000
    65  Na    c     2.202951   -4.431633   -2.288672    0.000000    1.000000
    66  O     c     6.625655   -2.225352   -2.225352    0.000000    0.183000
    67  O     c    -2.219753   -2.225352   -2.225352    0.000000    0.183000
    68  Na    c     6.573525   -2.194390    4.397614    0.000000    1.000000
    69  Na    c    -2.167623   -2.194390    4.397614    0.000000    1.000000
    70  Na    c     6.573525    4.397614   -2.194390    0.000000    1.000000
    71  Na    c    -2.167623    4.397614   -2.194390    0.000000    1.000000
    72  Cl    c     8.846031   -0.002458   -0.002458    0.000000    1.485000
    73  Cl    c    -4.440128   -0.002458   -0.002458    0.000000    1.485000
    74  Na    c     8.803565    2.249972    2.249972    0.000000    1.000000
    75  Na    c    -4.397663    2.249972    2.249972    0.000000    1.000000
    76  Cl    c     4.449775    4.433032   -4.475190    0.000000    1.485000
    77  Cl    c     4.449775   -4.475190    4.433032    0.000000    1.485000
    78  Cl    c    -0.043873    4.433032   -4.475190    0.000000    1.485000
    79  Cl    c    -0.043873   -4.475190    4.433032    0.000000    1.485000
    80  Na    c     4.399504    6.542273   -2.202076    0.000000    1.000000
    81  Na    c     4.399504   -2.202076    6.542273    0.000000    1.000000
    82  Na    c     0.006398    6.542273   -2.202076    0.000000    1.000000
    83  Na    c     0.006398   -2.202076    6.542273    0.000000    1.000000
    84  O     c     6.610679    2.204592    6.608088    0.000000    0.183000
    85  O     c     6.610679    6.608088    2.204592    0.000000    0.183000
    86  O     c    -2.204777    2.204592    6.608088    0.000000    0.183000
    87  O     c    -2.204777    6.608088    2.204592    0.000000    0.183000
    88  Na    c     6.475887    2.211329   -4.388506    0.000000    1.000000
    89  Na    c    -2.069985    2.211329   -4.388506    0.000000    1.000000
    90  Na    c     6.475887   -4.388506    2.211329    0.000000    1.000000
    91  Na    c    -2.069985   -4.388506    2.211329    0.000000    1.000000
    92  Na    c     6.590689    6.595202   -0.004703    0.000000    1.000000
    93  Na    c    -2.184787    6.595202   -0.004703    0.000000    1.000000
    94  Na    c     6.590689   -0.004703    6.595202    0.000000    1.000000
    95  Na    c    -2.184787   -0.004703    6.595202    0.000000    1.000000
    96  Cl    c     8.839499   -0.001017    4.402380    0.000000    1.485000
    97  Cl    c     8.839499    4.402380   -0.001017    0.000000    1.485000
    98  Cl    c    -4.433596   -0.001017    4.402380    0.000000    1.485000
    99  Cl    c    -4.433596    4.402380   -0.001017    0.000000    1.485000
   100  Na    c     8.795534    2.213915   -2.265871    0.000000    1.000000
   101  Na    c     8.795534   -2.265871    2.213915    0.000000    1.000000
   102  Na    c    -4.389632    2.213915   -2.265871    0.000000    1.000000
   103  Na    c    -4.389632   -2.265871    2.213915    0.000000    1.000000
   104  O     c     2.202951    2.207888   -6.630183    0.000000    0.183000
   105  O     c     2.202951   -6.630183    2.207888    0.000000    0.183000
   106  O     c     2.202951    6.576284    6.576284    0.000000    0.183000
   107  Na    c     2.202951    2.271964    8.793062    0.000000    1.000000
   108  Na    c     2.202951    8.793062    2.271964    0.000000    1.000000
   109  Na    c     2.202951    6.394614   -4.378814    0.000000    1.000000
   110  Na    c     2.202951   -4.378814    6.394614    0.000000    1.000000
   111  Na    c     2.202951   -6.531215    0.000444    0.000000    1.000000
   112  Na    c     2.202951    0.000444   -6.531215    0.000000    1.000000
   113  O     c     6.614766    6.610029   -2.215517    0.000000    0.183000
   114  O     c     6.614766   -2.215517    6.610029    0.000000    0.183000
   115  O     c    -2.208864    6.610029   -2.215517    0.000000    0.183000
   116  O     c    -2.208864   -2.215517    6.610029    0.000000    0.183000
   117  Na    c     6.598498    6.590514    4.404256    0.000000    1.000000
   118  Na    c    -2.192596    6.590514    4.404256    0.000000    1.000000
   119  Na    c     6.598498    4.404256    6.590514    0.000000    1.000000
   120  Na    c    -2.192596    4.404256    6.590514    0.000000    1.000000
   121  Na    c     6.592327   -2.209572   -4.416244    0.000000    1.000000
   122  Na    c    -2.186424   -2.209572   -4.416244    0.000000    1.000000
   123  Na    c     6.592327   -4.416244   -2.209572    0.000000    1.000000
   124  Na    c    -2.186424   -4.416244   -2.209572    0.000000    1.000000
   125  Cl    c     4.404205   -0.006402    8.830949    0.000000    1.485000
   126  Cl    c     0.001697   -0.006402    8.830949    0.000000    1.485000
   127  Cl    c     4.404205    8.830949   -0.006402    0.000000    1.485000
   128  Cl    c     0.001697    8.830949   -0.006402    0.000000    1.485000
   129  Cl    c     4.395275   -4.432323   -4.432323    0.000000    1.485000
   130  Cl    c     0.010627   -4.432323   -4.432323    0.000000    1.485000
   131  Cl    c     8.839847    4.407851    4.407851    0.000000    1.485000
   132  Cl    c    -4.433944    4.407851    4.407851    0.000000    1.485000
   133  Na    c     4.398709    2.189543   -6.630580    0.000000    1.000000
   134  Na    c     0.007193    2.189543   -6.630580    0.000000    1.000000
   135  Na    c     4.398709   -6.630580    2.189543    0.000000    1.000000
   136  Na    c     0.007193   -6.630580    2.189543    0.000000    1.000000
   137  Na    c     4.405128    6.580487    6.580487    0.000000    1.000000
   138  Na    c     0.000774    6.580487    6.580487    0.000000    1.000000
   139  Na    c     8.811995   -2.219063   -2.219063    0.000000    1.000000
   140  Na    c    -4.406093   -2.219063   -2.219063    0.000000    1.000000
   141  O     c     2.202951   -2.215524   -6.622793    0.000000    0.183000
   142  O     c     2.202951   -6.622793   -2.215524    0.000000    0.183000
   143  Na    c     2.202951   -2.299537    8.775840    0.000000    1.000000
   144  Na    c     2.202951    8.775840   -2.299537    0.000000    1.000000
   145  Na    c     2.202951   -6.719600    4.403521    0.000000    1.000000
   146  Na    c     2.202951    4.403521   -6.719600    0.000000    1.000000
   147  Cl    c     4.406281    4.404656    8.825737    0.000000    1.485000
   148  Cl    c    -0.000378    4.404656    8.825737    0.000000    1.485000
   149  Cl    c     4.406281    8.825737    4.404656    0.000000    1.485000
   150  Cl    c    -0.000378    8.825737    4.404656    0.000000    1.485000
   151  Cl    c     8.828687   -0.005152   -4.416962    0.000000    1.485000
   152  Cl    c    -4.422785   -0.005152   -4.416962    0.000000    1.485000
   153  Cl    c     8.828687   -4.416962   -0.005152    0.000000    1.485000
   154  Cl    c    -4.422785   -4.416962   -0.005152    0.000000    1.485000
   155  Na    c     4.408424   -2.186811   -6.612123    0.000000    1.000000
   156  Na    c    -0.002522   -2.186811   -6.612123    0.000000    1.000000
   157  Na    c     4.408424   -6.612123   -2.186811    0.000000    1.000000
   158  Na    c    -0.002522   -6.612123   -2.186811    0.000000    1.000000
   159  Na    c     8.805234    2.199591    6.579899    0.000000    1.000000
   160  Na    c    -4.399332    2.199591    6.579899    0.000000    1.000000
   161  Na    c     8.805234    6.579899    2.199591    0.000000    1.000000
   162  Na    c    -4.399332    6.579899    2.199591    0.000000    1.000000
   163  O     c     6.599484    2.196879   -6.604541    0.000000    0.183000
   164  O     c    -2.193582    2.196879   -6.604541    0.000000    0.183000
   165  O     c     6.599484   -6.604541    2.196879    0.000000    0.183000
   166  O     c    -2.193582   -6.604541    2.196879    0.000000    0.183000
   167  O     c     6.616363    6.612328    6.612328    0.000000    0.183000
   168  O     c    -2.210461    6.612328    6.612328    0.000000    0.183000
   169  Na    c     6.593793    2.202708    8.802253    0.000000    1.000000
   170  Na    c    -2.187891    2.202708    8.802253    0.000000    1.000000
   171  Na    c     6.593793    8.802253    2.202708    0.000000    1.000000
   172  Na    c    -2.187891    8.802253    2.202708    0.000000    1.000000
   173  Na    c     6.605355    6.593519   -4.408591    0.000000    1.000000
   174  Na    c    -2.199453    6.593519   -4.408591    0.000000    1.000000
   175  Na    c     6.605355   -4.408591    6.593519    0.000000    1.000000
   176  Na    c    -2.199453   -4.408591    6.593519    0.000000    1.000000
   177  Na    c     6.617305   -0.003641   -6.585683    0.000000    1.000000
   178  Na    c    -2.211403   -0.003641   -6.585683    0.000000    1.000000
   179  Na    c     6.617305   -6.585683   -0.003641    0.000000    1.000000
   180  Na    c    -2.211403   -6.585683   -0.003641    0.000000    1.000000
   181  O     c    11.011528    2.204554    2.204554    0.000000    0.183000
   182  O     c    -6.605626    2.204554    2.204554    0.000000    0.183000
   183  Na    c    10.955617    2.198452   -0.001327    0.000000    1.000000
   184  Na    c    -6.549715    2.198452   -0.001327    0.000000    1.000000
   185  Na    c    10.955617   -0.001327    2.198452    0.000000    1.000000
   186  Na    c    -6.549715   -0.001327    2.198452    0.000000    1.000000
   187  Cl    c     8.832381    4.410471   -4.412694    0.000000    1.485000
   188  Cl    c     8.832381   -4.412694    4.410471    0.000000    1.485000
   189  Cl    c    -4.426479    4.410471   -4.412694    0.000000    1.485000
   190  Cl    c    -4.426479   -4.412694    4.410471    0.000000    1.485000
   191  Na    c     8.808132    6.603083   -2.198332    0.000000    1.000000
   192  Na    c     8.808132   -2.198332    6.603083    0.000000    1.000000
   193  Na    c    -4.402229    6.603083   -2.198332    0.000000    1.000000
   194  Na    c    -4.402229   -2.198332    6.603083    0.000000    1.000000
   195  O     c     2.202951    6.592906   -6.604722    0.000000    0.183000
   196  O     c     2.202951   -6.604722    6.592906    0.000000    0.183000
   197  O     c     6.616161   -2.211739   -6.620271    0.000000    0.183000
   198  O     c    -2.210258   -2.211739   -6.620271    0.000000    0.183000
   199  O     c     6.616161   -6.620271   -2.211739    0.000000    0.183000
   200  O     c    -2.210258   -6.620271   -2.211739    0.000000    0.183000
   201  Na    c     2.202951    6.560211    8.785385    0.000000    1.000000
   202  Na    c     2.202951    8.785385    6.560211    0.000000    1.000000
   203  Na    c     2.202951   -6.641270   -4.415196    0.000000    1.000000
   204  Na    c     2.202951   -4.415196   -6.641270    0.000000    1.000000
   205  Na    c     6.590719   -2.211175    8.806183    0.000000    1.000000
   206  Na    c    -2.184817   -2.211175    8.806183    0.000000    1.000000
   207  Na    c     6.590719    8.806183   -2.211175    0.000000    1.000000
   208  Na    c    -2.184817    8.806183   -2.211175    0.000000    1.000000
   209  Na    c     6.587356    4.404484   -6.599374    0.000000    1.000000
   210  Na    c    -2.181454    4.404484   -6.599374    0.000000    1.000000
   211  Na    c     6.587356   -6.599374    4.404484    0.000000    1.000000
   212  Na    c    -2.181454   -6.599374    4.404484    0.000000    1.000000
   213  O     c    11.008374    2.203373   -2.206501    0.000000    0.183000
   214  O     c    11.008374   -2.206501    2.203373    0.000000    0.183000
   215  O     c    -6.602472    2.203373   -2.206501    0.000000    0.183000
   216  O     c    -6.602472   -2.206501    2.203373    0.000000    0.183000
   217  Na    c    11.025934    2.197964    4.405236    0.000000    1.000000
   218  Na    c    -6.620032    2.197964    4.405236    0.000000    1.000000
   219  Na    c    11.025934    4.405236    2.197964    0.000000    1.000000
   220  Na    c    -6.620032    4.405236    2.197964    0.000000    1.000000
   221  Na    c    10.989458   -2.199581    0.001233    0.000000    1.000000
   222  Na    c    -6.583556   -2.199581    0.001233    0.000000    1.000000
   223  Na    c    10.989458    0.001233   -2.199581    0.000000    1.000000
   224  Na    c    -6.583556    0.001233   -2.199581    0.000000    1.000000
   225  Cl    c     4.410338    8.826793   -4.407557    0.000000    1.485000
   226  Cl    c     4.410338   -4.407557    8.826793    0.000000    1.485000
   227  Cl    c    -0.004436    8.826793   -4.407557    0.000000    1.485000
   228  Cl    c    -0.004436   -4.407557    8.826793    0.000000    1.485000
   229  Na    c     4.404997    6.605744   -6.582372    0.000000    1.000000
   230  Na    c     4.404997   -6.582372    6.605744    0.000000    1.000000
   231  Na    c     0.000905    6.605744   -6.582372    0.000000    1.000000
   232  Na    c     0.000905   -6.582372    6.605744    0.000000    1.000000
   233  O     c     2.202951    2.207413   11.007875    0.000000    0.183000
   234  O     c     2.202951   11.007875    2.207413    0.000000    0.183000
   235  O     c    11.014959   -2.203746   -2.203746    0.000000    0.183000
   236  O     c    -6.609057   -2.203746   -2.203746    0.000000    0.183000
   237  Na    c     2.202951    2.157380   -8.821846    0.000000    1.000000
   238  Na    c     2.202951   -8.821846    2.157380    0.000000    1.000000
   239  Na    c     2.202951   10.957716   -0.004701    0.000000    1.000000
   240  Na    c     2.202951   -0.004701   10.957716    0.000000    1.000000
   241  Na    c    11.006471   -2.194636    4.405747    0.000000    1.000000
   242  Na    c    -6.600568   -2.194636    4.405747    0.000000    1.000000
   243  Na    c    11.006471    4.405747   -2.194636    0.000000    1.000000
   244  Na    c    -6.600568    4.405747   -2.194636    0.000000    1.000000
   245  Cl    c     4.407912   -0.003561   -8.838239    0.000000    1.485000
   246  Cl    c    -0.002009   -0.003561   -8.838239    0.000000    1.485000
   247  Cl    c     4.407912   -8.838239   -0.003561    0.000000    1.485000
   248  Cl    c    -0.002009   -8.838239   -0.003561    0.000000    1.485000
   249  Cl    c     8.823633    0.000025    8.821036    0.000000    1.485000
   250  Cl    c     8.823633    8.821036    0.000025    0.000000    1.485000
   251  Cl    c    -4.417730    0.000025    8.821036    0.000000    1.485000
   252  Cl    c    -4.417730    8.821036    0.000025    0.000000    1.485000
   253  Cl    c     8.825841   -4.423908   -4.423908    0.000000    1.485000
   254  Cl    c    -4.419938   -4.423908   -4.423908    0.000000    1.485000
   255  Na    c     4.402789    2.190435   11.004441    0.000000    1.000000
   256  Na    c     0.003113    2.190435   11.004441    0.000000    1.000000
   257  Na    c     4.402789   11.004441    2.190435    0.000000    1.000000
   258  Na    c     0.003113   11.004441    2.190435    0.000000    1.000000
   259  Na    c     8.801867    2.220085   -6.556253    0.000000    1.000000
   260  Na    c     8.801867   -6.556253    2.220085    0.000000    1.000000
   261  Na    c    -4.395965    2.220085   -6.556253    0.000000    1.000000
   262  Na    c    -4.395965   -6.556253    2.220085    0.000000    1.000000
   263  Na    c     8.812527    6.608703    6.608703    0.000000    1.000000
   264  Na    c    -4.406624    6.608703    6.608703    0.000000    1.000000
   265  O     c     2.202951   11.003042   -2.214463    0.000000    0.183000
   266  O     c     2.202951   -2.214463   11.003042    0.000000    0.183000
   267  O     c     6.613867    6.613303   -6.613444    0.000000    0.183000
   268  O     c     6.613867   -6.613444    6.613303    0.000000    0.183000
   269  O     c    -2.207965    6.613303   -6.613444    0.000000    0.183000
   270  O     c    -2.207965   -6.613444    6.613303    0.000000    0.183000
   271  O     c    11.017410    2.202772    6.606452    0.000000    0.183000
   272  O     c    11.017410    6.606452    2.202772    0.000000    0.183000
   273  O     c    -6.611508    2.202772    6.606452    0.000000    0.183000
   274  O     c    -6.611508    6.606452    2.202772    0.000000    0.183000
   275  Na    c     2.202951   11.022456    4.406519    0.000000    1.000000
   276  Na    c     2.202951    4.406519   11.022456    0.000000    1.000000
   277  Na    c     2.202951   -2.175638   -8.812146    0.000000    1.000000
   278  Na    c     2.202951   -8.812146   -2.175638    0.000000    1.000000
   279  Na    c     6.606424    6.607156    8.807679    0.000000    1.000000
   280  Na    c    -2.200522    6.607156    8.807679    0.000000    1.000000
   281  Na    c     6.606424    8.807679    6.607156    0.000000    1.000000
   282  Na    c    -2.200522    8.807679    6.607156    0.000000    1.000000
   283  Na    c     6.606843   -6.616154   -4.409713    0.000000    1.000000
   284  Na    c    -2.200940   -6.616154   -4.409713    0.000000    1.000000
   285  Na    c     6.606843   -4.409713   -6.616154    0.000000    1.000000
   286  Na    c    -2.200940   -4.409713   -6.616154    0.000000    1.000000
   287  Na    c    11.035568    2.205650   -4.404925    0.000000    1.000000
   288  Na    c    -6.629666    2.205650   -4.404925    0.000000    1.000000
   289  Na    c    11.035568   -4.404925    2.205650    0.000000    1.000000
   290  Na    c    -6.629666   -4.404925    2.205650    0.000000    1.000000
   291  Na    c    11.006359    6.611653    0.000609    0.000000    1.000000
   292  Na    c    -6.600457    6.611653    0.000609    0.000000    1.000000
   293  Na    c    11.006359    0.000609    6.611653    0.000000    1.000000
   294  Na    c    -6.600457    0.000609    6.611653    0.000000    1.000000
   295  Cl    c     8.826735    8.823298    4.411194    0.000000    1.485000
   296  Cl    c    -4.420832    8.823298    4.411194    0.000000    1.485000
   297  Cl    c     8.826735    4.411194    8.823298    0.000000    1.485000
   298  Cl    c    -4.420832    4.411194    8.823298    0.000000    1.485000
   299  Na    c     8.812257   -6.602247   -2.214901    0.000000    1.000000
   300  Na    c    -4.406355   -6.602247   -2.214901    0.000000    1.000000
   301  Na    c     8.812257   -2.214901   -6.602247    0.000000    1.000000
   302  Na    c    -4.406355   -2.214901   -6.602247    0.000000    1.000000
   303  Cl    c     4.408580    4.405983   -8.835750    0.000000    1.485000
   304  Cl    c     4.408580   -8.835750    4.405983    0.000000    1.485000
   305  Cl    c    -0.002678    4.405983   -8.835750    0.000000    1.485000
   306  Cl    c    -0.002678   -8.835750    4.405983    0.000000    1.485000
   307  Na    c     4.403307   10.997457   -2.194455    0.000000    1.000000
   308  Na    c     4.403307   -2.194455   10.997457    0.000000    1.000000
   309  Na    c     0.002595   10.997457   -2.194455    0.000000    1.000000
   310  Na    c     0.002595   -2.194455   10.997457    0.000000    1.000000
   311  O     c     2.202951   -6.617994   -6.617994    0.000000    0.183000
   312  O     c     6.608505    2.201279   11.013939    0.000000    0.183000
   313  O     c     6.608505   11.013939    2.201279    0.000000    0.183000
   314  O     c    -2.202602    2.201279   11.013939    0.000000    0.183000
   315  O     c    -2.202602   11.013939    2.201279    0.000000    0.183000
   316  O     c    11.017155    6.611140   -2.202003    0.000000    0.183000
   317  O     c    11.017155   -2.202003    6.611140    0.000000    0.183000
   318  O     c    -6.611253    6.611140   -2.202003    0.000000    0.183000
   319  O     c    -6.611253   -2.202003    6.611140    0.000000    0.183000
   320  Na    c     2.202951   -6.534963    8.795119    0.000000    1.000000
   321  Na    c     2.202951    8.795119   -6.534963    0.000000    1.000000
   322  Na    c     6.619244    2.199466   -8.805433    0.000000    1.000000
   323  Na    c    -2.213342    2.199466   -8.805433    0.000000    1.000000
   324  Na    c     6.619244   -8.805433    2.199466    0.000000    1.000000
   325  Na    c    -2.213342   -8.805433    2.199466    0.000000    1.000000
   326  Na    c     6.608718   11.002514   -0.001434    0.000000    1.000000
   327  Na    c    -2.202816   11.002514   -0.001434    0.000000    1.000000
   328  Na    c     6.608718   -0.001434   11.002514    0.000000    1.000000
   329  Na    c    -2.202816   -0.001434   11.002514    0.000000    1.000000
   330  Na    c    11.005434    6.605581    4.405594    0.000000    1.000000
   331  Na    c    -6.599532    6.605581    4.405594    0.000000    1.000000
   332  Na    c    11.005434    4.405594    6.605581    0.000000    1.000000
   333  Na    c    -6.599532    4.405594    6.605581    0.000000    1.000000
   334  Na    c    11.015317   -2.196517   -4.404538    0.000000    1.000000
   335  Na    c    -6.609414   -2.196517   -4.404538    0.000000    1.000000
   336  Na    c    11.015317   -4.404538   -2.196517    0.000000    1.000000
   337  Na    c    -6.609414   -4.404538   -2.196517    0.000000    1.000000
   338  Cl    c     4.413782    8.818958    8.818958    0.000000    1.485000
   339  Cl    c    -0.007880    8.818958    8.818958    0.000000    1.485000
   340  Cl    c    13.240833   -0.002328   -0.002328    0.000000    1.485000
   341  Cl    c    -8.834930   -0.002328   -0.002328    0.000000    1.485000
   342  Na    c     4.406661   -6.606205   -6.606205    0.000000    1.000000
   343  Na    c    -0.000759   -6.606205   -6.606205    0.000000    1.000000
   344  Na    c    13.211213    2.184687    2.184687    0.000000    1.000000
   345  Na    c    -8.805311    2.184687    2.184687    0.000000    1.000000
   346  O     c     6.611730   11.018680   -2.205303    0.000000    0.183000
   347  O     c    -2.205828   11.018680   -2.205303    0.000000    0.183000
   348  O     c     6.611730   -2.205303   11.018680    0.000000    0.183000
   349  O     c    -2.205828   -2.205303   11.018680    0.000000    0.183000
   350  Na    c     6.597019   11.002137    4.403346    0.000000    1.000000
   351  Na    c    -2.191117   11.002137    4.403346    0.000000    1.000000
   352  Na    c     6.597019    4.403346   11.002137    0.000000    1.000000
   353  Na    c    -2.191117    4.403346   11.002137    0.000000    1.000000
   354  Na    c     6.611343   -8.812516   -2.194549    0.000000    1.000000
   355  Na    c    -2.205440   -8.812516   -2.194549    0.000000    1.000000
   356  Na    c     6.611343   -2.194549   -8.812516    0.000000    1.000000
   357  Na    c    -2.205440   -2.194549   -8.812516    0.000000    1.000000
   358  O     c     2.202951    6.609066   11.011728    0.000000    0.183000
[...]
    115 y         11.014756     11.018680     0.003924    Cartesian    0.04
    115 z         -2.202951     -2.205303    -0.002352    Cartesian    0.11
    116 x          6.608853      6.597019    -0.011834    Cartesian   -0.18
    116 y         11.014756     11.002137    -0.012618    Cartesian   -0.11
    116 z          4.405902      4.403346    -0.002557    Cartesian   -0.06
    117 x          6.608853      6.611343     0.002489    Cartesian    0.04
    117 y         -8.811805     -8.812516    -0.000711    Cartesian    0.01
    117 z         -2.202951     -2.194549     0.008402    Cartesian   -0.38
    118 x          2.202951      2.202951     0.000000    Cartesian    0.00
    118 y          6.608853      6.609066     0.000213    Cartesian    0.00
    118 z         11.014756     11.011728    -0.003027    Cartesian   -0.03
    119 x          2.202951      2.202951     0.000000    Cartesian    0.00
    119 y          6.608853      6.645746     0.036893    Cartesian    0.56
    119 z         -8.811805     -8.805847     0.005958    Cartesian   -0.07
    120 x          2.202951      2.202951     0.000000    Cartesian    0.00
    120 y         11.014756     11.023857     0.009101    Cartesian    0.08
    120 z         -4.405902     -4.406597    -0.000694    Cartesian    0.02
    121 x          4.405902      4.410844     0.004942    Cartesian    0.11
    121 y         -4.405902     -4.423014    -0.017112    Cartesian    0.39
    121 z         -8.811805     -8.831737    -0.019932    Cartesian    0.23
    122 x          8.811805      8.827365     0.015561    Cartesian    0.18
    122 y          8.811805      8.828120     0.016315    Cartesian    0.19
    122 z         -4.405902     -4.417806    -0.011904    Cartesian    0.27
    123 x         13.217707     13.239254     0.021548    Cartesian    0.16
    123 y          0.000000     -0.002655    -0.002655    Cartesian    0.00
    123 z          4.405902      4.409507     0.003605    Cartesian    0.08
    124 x          4.405902      4.403332    -0.002570    Cartesian   -0.06
    124 y          6.608853      6.606559    -0.002294    Cartesian   -0.03
    124 z         11.014756     10.990738    -0.024018    Cartesian   -0.22
    125 x          8.811805      8.809262    -0.002542    Cartesian   -0.03
    125 y          6.608853      6.601700    -0.007154    Cartesian   -0.11
    125 z         -6.608853     -6.604059     0.004795    Cartesian   -0.07
    126 x         13.217707     13.209628    -0.008079    Cartesian   -0.06
    126 y          2.202951      2.198802    -0.004149    Cartesian   -0.19
    126 z         -2.202951     -2.178856     0.024095    Cartesian   -1.09
    127 x          6.608853      6.612179     0.003325    Cartesian    0.05
    127 y         -6.608853     -6.615572    -0.006718    Cartesian    0.10
    127 z         -6.608853     -6.615572    -0.006718    Cartesian    0.10
    128 x         11.014756     11.019329     0.004574    Cartesian    0.04
    128 y          2.202951      2.205643     0.002691    Cartesian    0.12
    128 z         -6.608853     -6.610126    -0.001273    Cartesian    0.02
    129 x         11.014756     11.020229     0.005473    Cartesian    0.05
    129 y          6.608853      6.612723     0.003870    Cartesian    0.06
    129 z          6.608853      6.612723     0.003870    Cartesian    0.06
    130 x          6.608853      6.604475    -0.004378    Cartesian   -0.07
    130 y         -6.608853     -6.598359     0.010495    Cartesian   -0.16
    130 z          8.811805      8.809240    -0.002565    Cartesian   -0.03
    131 x         11.014756     10.995509    -0.019246    Cartesian   -0.17
    131 y          2.202951      2.203785     0.000834    Cartesian    0.04
    131 z          8.811805      8.806792    -0.005013    Cartesian   -0.06
    132 x         11.014756     10.998844    -0.015912    Cartesian   -0.14
    132 y          6.608853      6.600274    -0.008580    Cartesian   -0.13
    132 z         -4.405902     -4.403143     0.002760    Cartesian   -0.06
    133 x         11.014756     10.991424    -0.023332    Cartesian   -0.21
    133 y          0.000000      0.002603     0.002603    Cartesian    0.00
    133 z         -6.608853     -6.602637     0.006216    Cartesian   -0.09
    134 x         13.217707     13.238425     0.020718    Cartesian    0.16
    134 y          4.405902      4.411718     0.005815    Cartesian    0.13
    134 z          4.405902      4.411718     0.005815    Cartesian    0.13
    135 x         13.217707     13.211583    -0.006124    Cartesian   -0.05
    135 y         -2.202951     -2.190539     0.012412    Cartesian   -0.56
    135 z         -2.202951     -2.190539     0.012412    Cartesian   -0.56
    136 x          8.811805      8.823589     0.011785    Cartesian    0.13
    136 y          0.000000     -0.004808    -0.004808    Cartesian    0.00
    136 z         -8.811805     -8.834508    -0.022703    Cartesian    0.26
    137 x          8.811805      8.807321    -0.004484    Cartesian   -0.05
    137 y          2.202951      2.203659     0.000708    Cartesian    0.03
    137 z         11.014756     10.996298    -0.018457    Cartesian   -0.17
    138 x          2.202951      2.202951     0.000000    Cartesian    0.00
    138 y          2.202951      2.167320    -0.035631    Cartesian   -1.62
    138 z          2.202951      2.167320    -0.035631    Cartesian   -1.62
    139 x          4.405902      4.612169     0.206267    Cartesian    4.68
    139 y          0.000000     -0.100648    -0.100648    Cartesian    0.00
    139 z          0.000000     -0.100648    -0.100648    Cartesian    0.00
    140 x          2.202951      2.202951     0.000000    Cartesian    0.00
    140 y          2.202951      2.120319    -0.082633    Cartesian   -3.75
    140 z         -2.202951     -2.297468    -0.094517    Cartesian    4.29
    141 x          4.405902      4.530864     0.124962    Cartesian    2.84
    141 y          0.000000     -0.026145    -0.026145    Cartesian    0.00
    141 z          4.405902      4.508286     0.102384    Cartesian    2.32
    142 x          2.202951      2.202951     0.000000    Cartesian    0.00
    142 y         -2.202951     -2.225396    -0.022445    Cartesian    1.02
    142 z         -2.202951     -2.225396    -0.022445    Cartesian    1.02
    143 x          6.608853      6.601006    -0.007848    Cartesian   -0.12
    143 y          2.202951      2.195294    -0.007657    Cartesian   -0.35
    143 z          2.202951      2.195294    -0.007657    Cartesian   -0.35
    144 x          4.405902      4.492727     0.086825    Cartesian    1.97
    144 y          4.405902      4.453841     0.047939    Cartesian    1.09
    144 z          4.405902      4.453841     0.047939    Cartesian    1.09
    145 x          2.202951      2.202951     0.000000    Cartesian    0.00
    145 y          2.202951      2.169625    -0.033327    Cartesian   -1.51
    145 z          6.608853      6.577395    -0.031458    Cartesian   -0.48
    146 x          6.608853      6.592610    -0.016243    Cartesian   -0.25
    146 y          2.202951      2.199234    -0.003718    Cartesian   -0.17
    146 z         -2.202951     -2.198556     0.004395    Cartesian   -0.20
    147 x          4.405902      4.432428     0.026525    Cartesian    0.60
    147 y          0.000000     -0.089303    -0.089303    Cartesian    0.00
    147 z         -4.405902     -4.481093    -0.075191    Cartesian    1.71
    148 x          2.202951      2.202951     0.000000    Cartesian    0.00
    148 y          6.608853      6.550415    -0.058439    Cartesian   -0.88
    148 z         -2.202951     -2.181771     0.021180    Cartesian   -0.96
    149 x          6.608853      6.625668     0.016815    Cartesian    0.25
    149 y         -2.202951     -2.225370    -0.022419    Cartesian    1.02
    149 z         -2.202951     -2.225370    -0.022419    Cartesian    1.02
    150 x          8.811805      8.851051     0.039246    Cartesian    0.45
    150 y          0.000000     -0.001733    -0.001733    Cartesian    0.00
    150 z          0.000000     -0.001733    -0.001733    Cartesian    0.00
    151 x          4.405902      4.455694     0.049792    Cartesian    1.13
    151 y          4.405902      4.439297     0.033395    Cartesian    0.76
    151 z         -4.405902     -4.485757    -0.079854    Cartesian    1.81
    152 x          6.608853      6.610679     0.001825    Cartesian    0.03
    152 y          2.202951      2.204598     0.001647    Cartesian    0.07
    152 z          6.608853      6.608091    -0.000762    Cartesian   -0.01
    153 x          8.811805      8.843872     0.032068    Cartesian    0.36
    153 y          0.000000     -0.000784    -0.000784    Cartesian    0.00
    153 z          4.405902      4.401571    -0.004331    Cartesian   -0.10
    154 x          2.202951      2.202951     0.000000    Cartesian    0.00
    154 y          2.202951      2.207915     0.004964    Cartesian    0.23
    154 z         -6.608853     -6.630215    -0.021362    Cartesian    0.32
    155 x          2.202951      2.202951     0.000000    Cartesian    0.00
    155 y          6.608853      6.576278    -0.032576    Cartesian   -0.49
    155 z          6.608853      6.576278    -0.032576    Cartesian   -0.49
    156 x          6.608853      6.614775     0.005922    Cartesian    0.09
    156 y          6.608853      6.610030     0.001176    Cartesian    0.02
    156 z         -2.202951     -2.215528    -0.012577    Cartesian    0.57
    157 x          4.405902      4.403624    -0.002278    Cartesian   -0.05
    157 y          0.000000     -0.006380    -0.006380    Cartesian    0.00
    157 z          8.811805      8.834070     0.022266    Cartesian    0.25
    158 x          4.405902      4.392524    -0.013379    Cartesian   -0.30
    158 y         -4.405902     -4.433310    -0.027408    Cartesian    0.62
    158 z         -4.405902     -4.433310    -0.027408    Cartesian    0.62
    159 x          8.811805      8.844234     0.032429    Cartesian    0.37
    159 y          4.405902      4.407903     0.002001    Cartesian    0.05
    159 z          4.405902      4.407903     0.002001    Cartesian    0.05
    160 x          2.202951      2.202951     0.000000    Cartesian    0.00
    160 y         -2.202951     -2.215541    -0.012590    Cartesian    0.57
    160 z         -6.608853     -6.622781    -0.013927    Cartesian    0.21
    161 x          4.405902      4.406796     0.000894    Cartesian    0.02
    161 y          4.405902      4.405243    -0.000660    Cartesian   -0.01
    161 z          8.811805      8.830385     0.018580    Cartesian    0.21
    162 x          8.811805      8.832350     0.020545    Cartesian    0.23
    162 y          0.000000     -0.006184    -0.006184    Cartesian    0.00
    162 z         -4.405902     -4.418240    -0.012338    Cartesian    0.28
    163 x          6.608853      6.599465    -0.009388    Cartesian   -0.14
    163 y          2.202951      2.196877    -0.006075    Cartesian   -0.28
    163 z         -6.608853     -6.604554     0.004299    Cartesian   -0.07
    164 x          6.608853      6.616372     0.007518    Cartesian    0.11
    164 y          6.608853      6.612333     0.003479    Cartesian    0.05
    164 z          6.608853      6.612333     0.003479    Cartesian    0.05
    165 x         11.014756     11.011524    -0.003232    Cartesian   -0.03
    165 y          2.202951      2.204563     0.001612    Cartesian    0.07
    165 z          2.202951      2.204563     0.001612    Cartesian    0.07
    166 x          8.811805      8.836720     0.024915    Cartesian    0.28
    166 y          4.405902      4.411269     0.005367    Cartesian    0.12
    166 z         -4.405902     -4.413978    -0.008076    Cartesian    0.18
    167 x          2.202951      2.202951     0.000000    Cartesian    0.00
    167 y          6.608853      6.592876    -0.015978    Cartesian   -0.24
    167 z         -6.608853     -6.604761     0.004093    Cartesian   -0.06
    168 x          6.608853      6.616168     0.007314    Cartesian    0.11
    168 y         -2.202951     -2.211743    -0.008792    Cartesian    0.40
    168 z         -6.608853     -6.620273    -0.011420    Cartesian    0.17
    169 x         11.014756     11.008380    -0.006375    Cartesian   -0.06
    169 y          2.202951      2.203373     0.000422    Cartesian    0.02
    169 z         -2.202951     -2.206512    -0.003561    Cartesian    0.16
    170 x          4.405902      4.410979     0.005077    Cartesian    0.12
    170 y          8.811805      8.831343     0.019538    Cartesian    0.22
    170 z         -4.405902     -4.408320    -0.002418    Cartesian    0.05
    171 x          2.202951      2.202951     0.000000    Cartesian    0.00
    171 y          2.202951      2.207433     0.004482    Cartesian    0.20
    171 z         11.014756     11.007875    -0.006881    Cartesian   -0.06
    172 x         11.014756     11.014958     0.000202    Cartesian    0.00
    172 y         -2.202951     -2.203750    -0.000799    Cartesian    0.04
    172 z         -2.202951     -2.203750    -0.000799    Cartesian    0.04
    173 x          4.405902      4.407473     0.001570    Cartesian    0.04
    173 y          0.000000     -0.003595    -0.003595    Cartesian    0.00
    173 z         -8.811805     -8.841671    -0.029867    Cartesian    0.34
    174 x          8.811805      8.826201     0.014397    Cartesian    0.16
    174 y          0.000000      0.000459     0.000459    Cartesian    0.00
    174 z          8.811805      8.823083     0.011278    Cartesian    0.13
    175 x          8.811805      8.827688     0.015883    Cartesian    0.18
    175 y         -4.405902     -4.425554    -0.019652    Cartesian    0.45
    175 z         -4.405902     -4.425554    -0.019652    Cartesian    0.45
    176 x          2.202951      2.202951     0.000000    Cartesian    0.00
    176 y         11.014756     11.003052    -0.011704    Cartesian   -0.11
    176 z         -2.202951     -2.214489    -0.011538    Cartesian    0.52
    177 x          6.608853      6.613874     0.005021    Cartesian    0.08
    177 y          6.608853      6.613310     0.004457    Cartesian    0.07
    177 z         -6.608853     -6.613440    -0.004586    Cartesian    0.07
    178 x         11.014756     11.017418     0.002662    Cartesian    0.02
    178 y          2.202951      2.202770    -0.000181    Cartesian   -0.01
    178 z          6.608853      6.606450    -0.002404    Cartesian   -0.04
    179 x          8.811805      8.829335     0.017531    Cartesian    0.20
    179 y          8.811805      8.825514     0.013710    Cartesian    0.16
    179 z          4.405902      4.411794     0.005891    Cartesian    0.13
    180 x          4.405902      4.408033     0.002131    Cartesian    0.05
    180 y          4.405902      4.405749    -0.000153    Cartesian   -0.00
    180 z         -8.811805     -8.836567    -0.024762    Cartesian    0.28
    181 x          2.202951      2.202951     0.000000    Cartesian    0.00
    181 y         -6.608853     -6.618004    -0.009150    Cartesian    0.14
    181 z         -6.608853     -6.618004    -0.009150    Cartesian    0.14
    182 x          6.608853      6.608508    -0.000345    Cartesian   -0.01
    182 y          2.202951      2.201279    -0.001673    Cartesian   -0.08
    182 z         11.014756     11.013939    -0.000817    Cartesian   -0.01
    183 x         11.014756     11.017158     0.002402    Cartesian    0.02
    183 y          6.608853      6.611142     0.002288    Cartesian    0.03
    183 z         -2.202951     -2.202003     0.000948    Cartesian   -0.04
    184 x          4.405902      4.416253     0.010351    Cartesian    0.23
    184 y          8.811805      8.821055     0.009251    Cartesian    0.10
    184 z          8.811805      8.821055     0.009251    Cartesian    0.10
    185 x         13.217707     13.245273     0.027566    Cartesian    0.21
    185 y          0.000000     -0.002832    -0.002832    Cartesian    0.00
    185 z          0.000000     -0.002832    -0.002832    Cartesian    0.00
    186 x          6.608853      6.611735     0.002881    Cartesian    0.04
    186 y         11.014756     11.018688     0.003932    Cartesian    0.04
    186 z         -2.202951     -2.205305    -0.002354    Cartesian    0.11
    187 x          2.202951      2.202951     0.000000    Cartesian    0.00
    187 y          6.608853      6.609057     0.000204    Cartesian    0.00
    187 z         11.014756     11.011747    -0.003009    Cartesian   -0.03
    188 x          4.405902      4.411248     0.005346    Cartesian    0.12
    188 y         -4.405902     -4.425616    -0.019714    Cartesian    0.45
    188 z         -8.811805     -8.833480    -0.021675    Cartesian    0.25
    189 x          8.811805      8.829402     0.017597    Cartesian    0.20
    189 y          8.811805      8.830146     0.018341    Cartesian    0.21
    189 z         -4.405902     -4.419467    -0.013565    Cartesian    0.31
    190 x         13.217707     13.242279     0.024572    Cartesian    0.19
    190 y          0.000000     -0.003001    -0.003001    Cartesian    0.00
    190 z          4.405902      4.410278     0.004376    Cartesian    0.10
    191 x          6.608853      6.612183     0.003329    Cartesian    0.05
    191 y         -6.608853     -6.615579    -0.006726    Cartesian    0.10
    191 z         -6.608853     -6.615579    -0.006726    Cartesian    0.10
    192 x         11.014756     11.019349     0.004593    Cartesian    0.04
    192 y          2.202951      2.205648     0.002696    Cartesian    0.12
    192 z         -6.608853     -6.610119    -0.001266    Cartesian    0.02
    193 x         11.014756     11.020234     0.005478    Cartesian    0.05
    193 y          6.608853      6.612729     0.003876    Cartesian    0.06
    193 z          6.608853      6.612729     0.003876    Cartesian    0.06
    194 x         13.217707     13.240641     0.022934    Cartesian    0.17
    194 y          4.405902      4.412673     0.006770    Cartesian    0.15
    194 z          4.405902      4.412673     0.006770    Cartesian    0.15
    195 x          8.811805      8.824937     0.013133    Cartesian    0.15
    195 y          0.000000     -0.006039    -0.006039    Cartesian    0.00
    195 z         -8.811805     -8.838052    -0.026247    Cartesian    0.30
--------------------------------------------------------------------------------


  Time to end of optimisation  =       21.2142 seconds


  Peak dynamic memory used =      82.62 MB 


  Timing analysis for GULP :

--------------------------------------------------------------------------------
  Task / Subroutine                                          Time (Seconds)
--------------------------------------------------------------------------------
  Calculation of reciprocal space energy and derivatives          0.0006
  Calculation of reciprocal space energy using symmetry           0.0011
  Calculation of real space energy and derivatives                0.0038
  Calculation of real space energy using symmetry                 0.0114
  Calculation for region 1 energy and derivatives (2-b)          11.1413
  Calculation for region 2a energy                                8.4989
  Calculation for region 2b energy                                0.0057
  Calculation and manipulation of Hessian matrix                  1.3191
  Calculation of matrix inversion                                 0.1250
  Symmetry generation of equivalent positions                     0.0044
--------------------------------------------------------------------------------
  Total CPU time                                                 21.2143
--------------------------------------------------------------------------------


  Dump file written as Na3OCl.grs


  Job Finished at 13:02.08 26th September  2021                               

