********************************************************************************
*                       GENERAL UTILITY LATTICE PROGRAM                        *
*                                 Julian Gale                                  *
*                       Curtin Institute for Computation                       *
*                    School of Molecular and Life Sciences                     *
*                    Curtin University, Western Australia                      *
********************************************************************************
* Version = 5.2.0 * Last modified =  10th September 2020                       *
********************************************************************************
*  optimise     - perform optimisation run                                     *
*  conp         - constant pressure calculation                                *
*  property     - calculate properties for final geometry                      *
*  defect       - perform defect calculation after bulk run                    *
*  compare      - compare initial and final structures                         *
********************************************************************************

  Job Started  at 13:02.05 26th September  2021                               

  Number of CPUs =     1


  Total number of configurations input =      1

********************************************************************************
*  Input for Configuration =   1                                               *
********************************************************************************

  Formula = ClONa3                                                      

  Number of irreducible atoms/shells =       5


  Total number atoms/shells =       7

  Dimensionality = 3               :  Bulk   


  Symmetry :

  Crystal family                   :  Cubic       
  Crystal class  (Groth - 1921)    :  Cubic Hexakisoctahedral              

  Space group (centrosymmetric)    :  P M 3 M         

  Patterson group                  :  P m -3 m 

  Cartesian lattice vectors (Angstroms) :

        4.504000    0.000000    0.000000
        0.000000    4.504000    0.000000
        0.000000    0.000000    4.504000

  Cell parameters (Angstroms/Degrees):

  a =       4.5040    alpha =  90.0000
  b =       4.5040    beta  =  90.0000
  c =       4.5040    gamma =  90.0000

  Initial cell volume =          91.368216 Angs**3

  Temperature of configuration =   0.00     K 

  Pressure of configuration =         0.000 GPa 

  Fractional coordinates of asymmetric unit :

--------------------------------------------------------------------------------
   No.  Atomic       x           y          z         Charge      Occupancy
        Label      (Frac)      (Frac)     (Frac)        (e)         (Frac)  
--------------------------------------------------------------------------------
      1 Cl    c    0.000000    0.000000    0.000000     1.48500    1.000000    
      2 O     c    0.500000    0.500000    0.500000     0.18300    1.000000    
      3 Na    c    0.500000    0.500000    0.000000     1.00000    1.000000    
      4 Cl    s    0.000000    0.000000    0.000000    -2.48500    1.000000    
      5 O     s    0.500000    0.500000    0.500000    -2.18300    1.000000    
--------------------------------------------------------------------------------


  Constraints : 

--------------------------------------------------------------------------------
  Constraint no.      Unconstrained     Constrained    Coefficient    Offset
                         Variable         Variable
--------------------------------------------------------------------------------
           1              Strain 1        Strain 2       1.00000      0.0000
           2              Strain 1        Strain 3       1.00000      0.0000
--------------------------------------------------------------------------------


********************************************************************************
*  General input information                                                   *
********************************************************************************

  Species output for all configurations : 

--------------------------------------------------------------------------------
  Species    Type    Atomic    Atomic    Charge       Radii (Angs)     Library
                     Number     Mass       (e)     Cova   Ionic  VDW   Symbol
--------------------------------------------------------------------------------
    Na       Core       11      22.99   1.000000   0.970  0.000  2.300          
    O        Core        8      16.00   0.183000   0.730  0.000  1.360          
    O        Shell       8       0.00  -2.183000   0.730  0.000  1.360          
    Cl       Core       17      35.45   1.485000   0.990  0.000  1.650          
    Cl       Shell      17       0.00  -2.485000   0.990  0.000  1.650          
    Mg       Core       12      24.31   0.415000   1.100  0.000  0.000          
    Mg       Shell      12       0.00   1.585000   1.100  0.000  0.000          
    Ca       Core       20      40.08  -1.135000   0.990  0.000  0.000          
    Ca       Shell      20       0.00   3.135000   0.990  0.000  0.000          
    Sr       Core       38      87.62  -1.251000   1.120  0.000  0.000          
    Sr       Shell      38       0.00   3.251000   1.120  0.000  0.000          
    Ba       Core       56     137.33  -7.203000   1.340  0.000  0.000          
    Ba       Shell      56       0.00   9.203000   1.340  0.000  0.000          
    Al       Core       13      26.98   3.000000   1.350  0.000  0.000          
    Ga       Core       31      69.72   3.000000   1.220  0.000  0.000          
--------------------------------------------------------------------------------


  Lattice summation method               =    Ewald          (3-D)
                                         =    Parry          (2-D)
                                         =    Saunders et al (1-D)
  Accuracy factor for lattice sums       =   12.000


  Analytic derivatives to be used

  Time limit = Infinity

  Maximum range for interatomic potentials =    100000.000000 Angstroms

  General interatomic potentials :

--------------------------------------------------------------------------------
Atom  Types   Potential      Parameter       Value         Units   Cutoffs(Ang)
  1     2                                                            Min /  Max 
--------------------------------------------------------------------------------
O    c O    s Spring (c-s)  Spring k 2       593.71600    eV*Ang^-2 0.000  0.800
                            Spring k 4       0.0000000    eV*Ang^-4 
--------------------------------------------------------------------------------
Cl   c Cl   s Spring (c-s)  Spring k 2       29.380000    eV*Ang^-2 0.000  0.800
                            Spring k 4       0.0000000    eV*Ang^-4 
--------------------------------------------------------------------------------
Mg   c Mg   s Spring (c-s)  Spring k 2       361.60000    eV*Ang^-2 0.000  0.800
                            Spring k 4       0.0000000    eV*Ang^-4 
--------------------------------------------------------------------------------
Ca   c Ca   s Spring (c-s)  Spring k 2       110.20000    eV*Ang^-2 0.000  0.800
                            Spring k 4       0.0000000    eV*Ang^-4 
--------------------------------------------------------------------------------
Sr   c Sr   s Spring (c-s)  Spring k 2       71.700000    eV*Ang^-2 0.000  0.800
                            Spring k 4       0.0000000    eV*Ang^-4 
--------------------------------------------------------------------------------
Ba   c Ba   s Spring (c-s)  Spring k 2       495.20000    eV*Ang^-2 0.000  0.800
                            Spring k 4       0.0000000    eV*Ang^-4 
--------------------------------------------------------------------------------
Na   c Na   c Buckingham    Buckingham A     1788.1900    eV        0.000 12.000
                            Buckingham rho  0.15900000    Ang       
                            Buckingham C     0.0000000    eV*Ang^6  
--------------------------------------------------------------------------------
Na   c O    s Buckingham    Buckingham A     588.38000    eV        0.000 12.000
                            Buckingham rho  0.33800000    Ang       
                            Buckingham C     0.0000000    eV*Ang^6  
--------------------------------------------------------------------------------
Na   c Cl   s Buckingham    Buckingham A     1170.4100    eV        0.000 12.000
                            Buckingham rho  0.31500000    Ang       
                            Buckingham C     0.0000000    eV*Ang^6  
--------------------------------------------------------------------------------
O    s O    s Buckingham    Buckingham A     22764.300    eV        0.000 12.000
                            Buckingham rho  0.14900000    Ang       
                            Buckingham C     13.190000    eV*Ang^6  
--------------------------------------------------------------------------------
O    s Cl   s Buckingham    Buckingham A     8286.9100    eV        0.000 12.000
                            Buckingham rho  0.25900000    Ang       
                            Buckingham C     62.200000    eV*Ang^6  
--------------------------------------------------------------------------------
Cl   s Cl   s Buckingham    Buckingham A     1227.2000    eV        0.000 12.000
                            Buckingham rho  0.32100000    Ang       
                            Buckingham C     14.530000    eV*Ang^6  
--------------------------------------------------------------------------------
O    s Mg   s Buckingham    Buckingham A     1428.5000    eV        0.000 12.000
                            Buckingham rho  0.29450000    Ang       
                            Buckingham C     0.0000000    eV*Ang^6  
--------------------------------------------------------------------------------
Mg   s Cl   s Buckingham    Buckingham A     4914.5400    eV        0.000 12.000
                            Buckingham rho  0.25700000    Ang       
                            Buckingham C     0.0000000    eV*Ang^6  
--------------------------------------------------------------------------------
O    s Ca   s Buckingham    Buckingham A     1090.4000    eV        0.000 12.000
                            Buckingham rho  0.34370000    Ang       
                            Buckingham C     0.0000000    eV*Ang^6  
--------------------------------------------------------------------------------
Cl   s Ca   s Buckingham    Buckingham A     2302.0000    eV        0.000 12.000
                            Buckingham rho  0.34020000    Ang       
                            Buckingham C     0.0000000    eV*Ang^6  
--------------------------------------------------------------------------------
O    s Sr   s Buckingham    Buckingham A     959.10000    eV        0.000 12.000
                            Buckingham rho  0.37210000    Ang       
                            Buckingham C     0.0000000    eV*Ang^6  
--------------------------------------------------------------------------------
Cl   s Sr   s Buckingham    Buckingham A     2191.0900    eV        0.000 12.000
                            Buckingham rho  0.34570000    Ang       
                            Buckingham C     0.0000000    eV*Ang^6  
--------------------------------------------------------------------------------
O    s Ba   s Buckingham    Buckingham A     905.70000    eV        0.000 12.000
                            Buckingham rho  0.39760000    Ang       
                            Buckingham C     0.0000000    eV*Ang^6  
--------------------------------------------------------------------------------
Cl   s Ba   s Buckingham    Buckingham A     2704.5500    eV        0.000 12.000
                            Buckingham rho  0.35280000    Ang       
                            Buckingham C     0.0000000    eV*Ang^6  
--------------------------------------------------------------------------------
Al   c O    s Buckingham    Buckingham A     1725.0000    eV        0.000 12.000
                            Buckingham rho  0.28970000    Ang       
                            Buckingham C     0.0000000    eV*Ang^6  
--------------------------------------------------------------------------------
Al   c Cl   s Buckingham    Buckingham A     1736.1200    eV        0.000 12.000
                            Buckingham rho  0.29170000    Ang       
                            Buckingham C     0.0000000    eV*Ang^6  
--------------------------------------------------------------------------------
Ga   c O    s Buckingham    Buckingham A     2901.1200    eV        0.000 12.000
                            Buckingham rho  0.27420000    Ang       
                            Buckingham C     0.0000000    eV*Ang^6  
--------------------------------------------------------------------------------
Ga   c Cl   s Buckingham    Buckingham A     924.20000    eV        0.000 12.000
                            Buckingham rho  0.34280000    Ang       
                            Buckingham C     0.0000000    eV*Ang^6  
--------------------------------------------------------------------------------

********************************************************************************
*  Output for configuration   1                                                *
********************************************************************************


  Components of energy : 

--------------------------------------------------------------------------------
  Interatomic potentials     =           4.94315381 eV    
  Monopole - monopole (real) =         -10.03624526 eV    
  Monopole - monopole (recip)=         -29.53581274 eV    
  Monopole - monopole (total)=         -39.57205800 eV    
--------------------------------------------------------------------------------
  Total lattice energy       =         -34.62890419 eV    
--------------------------------------------------------------------------------
  Total lattice energy       =           -3341.1599 kJ/(mole unit cells)
--------------------------------------------------------------------------------


  Number of variables =        1

  Maximum number of calculations  =          1000
  Maximum Hessian update interval =            10
  Maximum step size               =   1.000000000
  Maximum parameter tolerance     =   0.000010000
  Maximum function  tolerance     =   0.000010000
  Maximum gradient  tolerance     =   0.001000000
  Maximum gradient  component     =   0.010000000

  Symmetry constrained optimisation

  Symmetry used for second derivatives

  Cell parameters to be optimised using strains

  Newton-Raphson optimiser to be used

  BFGS hessian update to be used

  Lower half triangular hessian to be used

  Start of bulk optimisation :

  Cycle:      0 Energy:       -34.628904  Gnorm:      4.328237  CPU:    0.015
  ** Hessian calculated **
  Cycle:      1 Energy:       -34.677667  Gnorm:      0.044008  CPU:    0.019
  Cycle:      2 Energy:       -34.677671  Gnorm:      0.003653  CPU:    0.022


  **** Optimisation achieved ****


  Final energy =     -34.67767136 eV
  Final Gnorm  =       0.00000010

  Components of energy : 

--------------------------------------------------------------------------------
  Interatomic potentials     =           5.77546103 eV    
  Monopole - monopole (real) =         -10.25970290 eV    
  Monopole - monopole (recip)=         -30.19342950 eV    
  Monopole - monopole (total)=         -40.45313239 eV    
--------------------------------------------------------------------------------
  Total lattice energy       =         -34.67767136 eV    
--------------------------------------------------------------------------------
  Total lattice energy       =           -3345.8652 kJ/(mole unit cells)
--------------------------------------------------------------------------------

  Final asymmetric unit coordinates :

--------------------------------------------------------------------------------
   No.  Atomic        x           y           z         Radius
        Label       (Frac)      (Frac)      (Frac)       (Angs) 
--------------------------------------------------------------------------------
     1  Cl    c     0.000000    0.000000    0.000000    0.000000
     2  O     c     0.500000    0.500000    0.500000    0.000000
     3  Na    c     0.500000    0.500000    0.000000    0.000000
     4  Cl    s     0.000000    0.000000    0.000000    0.000000
     5  O     s     0.500000    0.500000    0.500000    0.000000
--------------------------------------------------------------------------------

  Final Cartesian lattice vectors (Angstroms) :

        4.405902    0.000000    0.000000
        0.000000    4.405902    0.000000
        0.000000    0.000000    4.405902


  Final cell parameters and derivatives :

--------------------------------------------------------------------------------
       a            4.405902 Angstrom     dE/de1(xx)     0.000000 eV/strain
       b            4.405902 Angstrom     dE/de2(yy)     0.000000 eV/strain
       c            4.405902 Angstrom     dE/de3(zz)     0.000000 eV/strain
       alpha       90.000000 Degrees      dE/de4(yz)     0.000000 eV/strain
       beta        90.000000 Degrees      dE/de5(xz)     0.000000 eV/strain
       gamma       90.000000 Degrees      dE/de6(xy)     0.000000 eV/strain
--------------------------------------------------------------------------------

  Primitive cell volume =            85.527266 Angs**3

  Density of cell =      2.338030 g/cm**3

  Non-primitive cell volume =            85.527266 Angs**3


  Final internal derivatives :

--------------------------------------------------------------------------------
   No.  Atomic          a             b             c           Radius
        Label          (eV)          (eV)          (eV)        (eV/Angs)
--------------------------------------------------------------------------------
      1 Cl    c       0.000000      0.000000      0.000000      0.000000
      2 O     c       0.000000      0.000000      0.000000      0.000000
      3 Na    c       0.000000      0.000000      0.000000      0.000000
      4 Cl    s       0.000000      0.000000      0.000000      0.000000
      5 O     s       0.000000      0.000000      0.000000      0.000000
--------------------------------------------------------------------------------
  Maximum abs         0.000000      0.000000      0.000000      0.000000
--------------------------------------------------------------------------------

  Comparison of initial and final structures : 

--------------------------------------------------------------------------------
  Parameter   Initial value   Final value   Difference    Units      Percent
--------------------------------------------------------------------------------
    Volume        91.368216     85.527266    -5.840950    Angs**3     -6.39
    a              4.504000      4.405902    -0.098098    Angstroms   -2.18
    b              4.504000      4.405902    -0.098098    Angstroms   -2.18
    c              4.504000      4.405902    -0.098098    Angstroms   -2.18
    alpha         90.000000     90.000000     0.000000    Degrees      0.00
    beta          90.000000     90.000000     0.000000    Degrees      0.00
    gamma         90.000000     90.000000     0.000000    Degrees      0.00
      1 x          0.000000      0.000000     0.000000    Fractional   0.00
      1 y          0.000000      0.000000     0.000000    Fractional   0.00
      1 z          0.000000      0.000000     0.000000    Fractional   0.00
      2 x          0.500000      0.500000     0.000000    Fractional   0.00
      2 y          0.500000      0.500000     0.000000    Fractional   0.00
      2 z          0.500000      0.500000     0.000000    Fractional   0.00
      3 x          0.500000      0.500000     0.000000    Fractional   0.00
      3 y          0.500000      0.500000     0.000000    Fractional   0.00
      3 z          0.000000      0.000000     0.000000    Fractional   0.00
      4 x          0.000000      0.000000     0.000000    Fractional   0.00
      4 y          0.000000      0.000000     0.000000    Fractional   0.00
      4 z          0.000000      0.000000     0.000000    Fractional   0.00
      5 x          0.500000      0.500000     0.000000    Fractional   0.00
      5 y          0.500000      0.500000     0.000000    Fractional   0.00
      5 z          0.500000      0.500000     0.000000    Fractional   0.00
--------------------------------------------------------------------------------


  Born effective charge tensors : 

-------------------------------------------------------------------------------
  Atom             x           y             z
-------------------------------------------------------------------------------
    1 Cl    x      -0.9918     -0.0000     -0.0000
            y      -0.0000     -0.9918     -0.0000
            z      -0.0000     -0.0000     -0.9918
-------------------------------------------------------------------------------
    2 O     x      -2.2939      0.0000      0.0000
            y       0.0000     -2.2939      0.0000
            z       0.0000      0.0000     -2.2939
-------------------------------------------------------------------------------
    3 Na    x       1.2243      0.0000      0.0000
            y       0.0000      1.2243     -0.0000
            z       0.0000      0.0000      0.8372
-------------------------------------------------------------------------------




  Elastic Constant Matrix: (Units=GPa)

-------------------------------------------------------------------------------
  Indices      1         2         3         4         5         6    
-------------------------------------------------------------------------------
       1     82.7680   24.3534   24.3534   -0.0000    0.0000   -0.0000
       2     24.3534   82.7680   24.3534    0.0000   -0.0000   -0.0000
       3     24.3534   24.3534   82.7680    0.0000   -0.0000    0.0000
       4     -0.0000    0.0000    0.0000   24.3534   -0.0000    0.0000
       5      0.0000   -0.0000   -0.0000   -0.0000   24.3534    0.0000
       6     -0.0000   -0.0000    0.0000    0.0000    0.0000   24.3534
-------------------------------------------------------------------------------


  Elastic Compliance Matrix: (Units=1/GPa)

-------------------------------------------------------------------------------
  Indices      1         2         3         4         5         6    
-------------------------------------------------------------------------------
       1    0.013948 -0.003171 -0.003171  0.000000 -0.000000  0.000000
       2   -0.003171  0.013948 -0.003171 -0.000000  0.000000 -0.000000
       3   -0.003171 -0.003171  0.013948 -0.000000  0.000000 -0.000000
       4    0.000000 -0.000000 -0.000000  0.041062  0.000000 -0.000000
       5   -0.000000  0.000000  0.000000  0.000000  0.041062 -0.000000
       6    0.000000 -0.000000 -0.000000 -0.000000 -0.000000  0.041062
-------------------------------------------------------------------------------

  Mechanical properties :

-------------------------------------------------------------------------------
  Convention :                    Reuss         Voigt         Hill
-------------------------------------------------------------------------------
  Bulk  Modulus (GPa)     =      43.82493      43.82493      43.82493
  Shear Modulus (GPa)     =      26.08758      26.29496      26.19127
-------------------------------------------------------------------------------
  Velocity S-wave (km/s)  =       3.34035       3.35360       3.34698
  Velocity P-wave (km/s)  =       5.79842       5.80861       5.80351
-------------------------------------------------------------------------------
  Compressibility (1/GPa) =    0.02281806
-------------------------------------------------------------------------------
  Stress axis :                     x             y             z
-------------------------------------------------------------------------------
  Youngs Moduli (GPa)     =      71.69479      71.69479      71.69479
-------------------------------------------------------------------------------
  Poissons Ratio (x)      =                     0.22734       0.22734
  Poissons Ratio (y)      =       0.22734                     0.22734
  Poissons Ratio (z)      =       0.22734       0.22734
-------------------------------------------------------------------------------


  Piezoelectric Strain Matrix: (Units=C/m**2)

-------------------------------------------------------------------------------
  Indices      1         2         3         4         5         6    
-------------------------------------------------------------------------------
       x    -0.00000  -0.00000  -0.00000  -0.00000   0.00000  -0.00000
       y     0.00000  -0.00000   0.00000   0.00000  -0.00000   0.00000
       z    -0.00000  -0.00000   0.00000  -0.00000   0.00000  -0.00000
-------------------------------------------------------------------------------


  Piezoelectric Stress Matrix: (Units=10**-11 C/N)

-------------------------------------------------------------------------------
  Indices      1         2         3         4         5         6    
-------------------------------------------------------------------------------
       x     0.00000  -0.00000  -0.00000  -0.00000   0.00000  -0.00000
       y     0.00000  -0.00000   0.00000   0.00000  -0.00000   0.00000
       z    -0.00000  -0.00000   0.00000  -0.00000   0.00000  -0.00000
-------------------------------------------------------------------------------


  Static dielectric constant tensor : 

-------------------------------------------------------------------------------
              x         y         z
-------------------------------------------------------------------------------
       x    11.08357   0.00000   0.00000
       y     0.00000  11.08357   0.00000
       z     0.00000   0.00000  11.08357
--------------------------------------------------------------------------------

  High frequency dielectric constant tensor : 

-------------------------------------------------------------------------------
              x         y         z
-------------------------------------------------------------------------------
       x     1.50771   0.00000   0.00000
       y     0.00000   1.50771   0.00000
       z     0.00000   0.00000   1.50771
-------------------------------------------------------------------------------

  Static refractive indices : 

-------------------------------------------------------------------------------
    1 =    3.32920      2 =    3.32920      3 =    3.32920
-------------------------------------------------------------------------------

  High frequency refractive indices : 

-------------------------------------------------------------------------------
    1 =    1.22789      2 =    1.22789      3 =    1.22789
-------------------------------------------------------------------------------


  Time to end of optimisation =       0.0315 seconds

********************************************************************************
*  Defect calculation for configuration   1 :                                  *
********************************************************************************

  Total number of defects =      3

  Total charge on defect  =  -1.00

  Defect centre is at   0.5000   0.2500   0.2500  Frac

  Region 1 radius =  12.0000      Number of ions =    593

  Number of symmetry inequivalent region 1 ions  =    195

  Region 2 radius =  16.0000      Number of ions =    832

  Number of symmetry inequivalent region 2a ions =    242

  Region 2a mode = 4 : screened electrostatics due to region 1 
                       neglect correction to region 1 forces from 2a
                       region 2a displacements based on defects only

  Region 2a ions will only interact with defects in region 1

  Vacancies:

--------------------------------------------------------------------------------
    Specification type     Symbol/Number         x          y          z
--------------------------------------------------------------------------------
    Fractional                               0.500000   0.500000   0.000000
    Fractional                               0.500000   0.000000   0.500000
--------------------------------------------------------------------------------

  Interstitials:

--------------------------------------------------------------------------------
    Specification type     Symbol/Number         x          y          z
--------------------------------------------------------------------------------
    Atom/Fractional         Na               0.500000   0.125000   0.125000
--------------------------------------------------------------------------------


  Symmetry reduced region 1 (Relative to defect centre) :

--------------------------------------------------------------------------------
   No.   Atomic       x            y             z       Radius  Multiplicity   
         Label      (Angs)       (Angs)        (Angs)    (Angs)     
--------------------------------------------------------------------------------
     1  Na    c      0.0000      -0.5507      -0.5507    0.0000     1    Defect
     2  O     c      0.0000       1.1015 *     1.1015    0.0000     1          
     3  Cl    c      2.2030 *    -1.1015 *    -1.1015    0.0000     2          
     4  Na    c      2.2030 *     1.1015 *     1.1015    0.0000     2          
     5  O     c      0.0000       1.1015 *    -3.3044 *  0.0000     2          
     6  Na    c      0.0000       1.1015 *     3.3044 *  0.0000     2          
     7  Na    c      0.0000      -3.3044 *    -1.1015 *  0.0000     2          
     8  Cl    c      2.2030 *    -1.1015 *     3.3044 *  0.0000     4          
     9  Na    c      2.2030 *     1.1015 *    -3.3044 *  0.0000     4          
    10  O     c      0.0000      -3.3044 *    -3.3044    0.0000     1          
    11  Na    c      0.0000      -3.3044 *     3.3044 *  0.0000     2          
    12  O     c      4.4059 *     1.1015 *     1.1015    0.0000     2          
    13  Na    c      4.4059 *     1.1015 *    -1.1015 *  0.0000     4          
    14  Cl    c      2.2030 *     3.3044 *     3.3044    0.0000     2          
    15  Na    c      2.2030 *    -3.3044 *    -3.3044    0.0000     2          
    16  O     c      0.0000       1.1015 *     5.5074 *  0.0000     2          
    17  O     c      4.4059 *     1.1015 *    -3.3044 *  0.0000     4          
    18  Na    c      0.0000       1.1015 *    -5.5074 *  0.0000     2          
    19  Na    c      0.0000       5.5074 *    -1.1015 *  0.0000     2          
    20  Na    c      4.4059 *     1.1015 *     3.3044 *  0.0000     4          
    21  Na    c      4.4059 *    -1.1015 *    -3.3044 *  0.0000     4          
    22  Cl    c      2.2030 *    -1.1015 *    -5.5074 *  0.0000     4          
    23  Na    c      2.2030 *     1.1015 *     5.5074 *  0.0000     4          
    24  O     c      0.0000       5.5074 *    -3.3044 *  0.0000     2          
    25  Na    c      0.0000       5.5074 *     3.3044 *  0.0000     2          
    26  Na    c      0.0000      -3.3044 *    -5.5074 *  0.0000     2          
    27  O     c      4.4059 *    -3.3044 *    -3.3044    0.0000     2          
    28  Na    c      4.4059 *    -3.3044 *     3.3044 *  0.0000     4          
    29  Cl    c      6.6089 *    -1.1015 *    -1.1015    0.0000     2          
    30  Na    c      6.6089 *     1.1015 *     1.1015    0.0000     2          
    31  Cl    c      2.2030 *     3.3044 *    -5.5074 *  0.0000     4          
    32  Na    c      2.2030 *     5.5074 *    -3.3044 *  0.0000     4          
    33  O     c      4.4059 *     1.1015 *     5.5074 *  0.0000     4          
    34  Na    c      4.4059 *     1.1015 *    -5.5074 *  0.0000     4          
    35  Na    c      4.4059 *     5.5074 *    -1.1015 *  0.0000     4          
    36  Cl    c      6.6089 *    -1.1015 *     3.3044 *  0.0000     4          
    37  Na    c      6.6089 *     1.1015 *    -3.3044 *  0.0000     4          
    38  O     c      0.0000       1.1015 *    -7.7103 *  0.0000     2          
    39  O     c      0.0000       5.5074 *     5.5074    0.0000     1          
    40  Na    c      0.0000       1.1015 *     7.7103 *  0.0000     2          
    41  Na    c      0.0000       5.5074 *    -5.5074 *  0.0000     2          
    42  Na    c      0.0000      -7.7103 *    -1.1015 *  0.0000     2          
    43  O     c      4.4059 *     5.5074 *    -3.3044 *  0.0000     4          
    44  Na    c      4.4059 *     5.5074 *     3.3044 *  0.0000     4          
    45  Na    c      4.4059 *    -3.3044 *    -5.5074 *  0.0000     4          
    46  Cl    c      2.2030 *    -1.1015 *     7.7103 *  0.0000     4          
    47  Cl    c      2.2030 *    -5.5074 *    -5.5074    0.0000     2          
    48  Cl    c      6.6089 *     3.3044 *     3.3044    0.0000     2          
    49  Na    c      2.2030 *     1.1015 *    -7.7103 *  0.0000     4          
    50  Na    c      2.2030 *     5.5074 *     5.5074    0.0000     2          
    51  Na    c      6.6089 *    -3.3044 *    -3.3044    0.0000     2          
    52  O     c      0.0000      -3.3044 *    -7.7103 *  0.0000     2          
    53  Na    c      0.0000      -3.3044 *     7.7103 *  0.0000     2          
    54  Na    c      0.0000      -7.7103 *     3.3044 *  0.0000     2          
    55  Cl    c      2.2030 *     3.3044 *     7.7103 *  0.0000     4          
    56  Cl    c      6.6089 *    -1.1015 *    -5.5074 *  0.0000     4          
    57  Na    c      2.2030 *    -3.3044 *    -7.7103 *  0.0000     4          
    58  Na    c      6.6089 *     1.1015 *     5.5074 *  0.0000     4          
    59  O     c      4.4059 *     1.1015 *    -7.7103 *  0.0000     4          
    60  O     c      4.4059 *     5.5074 *     5.5074    0.0000     2          
    61  Na    c      4.4059 *     1.1015 *     7.7103 *  0.0000     4          
    62  Na    c      4.4059 *     5.5074 *    -5.5074 *  0.0000     4          
    63  Na    c      4.4059 *    -1.1015 *    -7.7103 *  0.0000     4          
    64  O     c      8.8118 *     1.1015 *     1.1015    0.0000     2          
    65  Na    c      8.8118 *     1.1015 *    -1.1015 *  0.0000     4          
    66  Cl    c      6.6089 *     3.3044 *    -5.5074 *  0.0000     4          
    67  Na    c      6.6089 *     5.5074 *    -3.3044 *  0.0000     4          
    68  O     c      0.0000       5.5074 *    -7.7103 *  0.0000     2          
    69  O     c      4.4059 *    -3.3044 *    -7.7103 *  0.0000     4          
    70  Na    c      0.0000       5.5074 *     7.7103 *  0.0000     2          
    71  Na    c      0.0000      -7.7103 *    -5.5074 *  0.0000     2          
    72  Na    c      4.4059 *    -3.3044 *     7.7103 *  0.0000     4          
    73  Na    c      4.4059 *     3.3044 *    -7.7103 *  0.0000     4          
    74  O     c      8.8118 *     1.1015 *    -3.3044 *  0.0000     4          
    75  Na    c      8.8118 *     1.1015 *     3.3044 *  0.0000     4          
    76  Na    c      8.8118 *    -3.3044 *    -1.1015 *  0.0000     4          
    77  Cl    c      2.2030 *     7.7103 *    -5.5074 *  0.0000     4          
    78  Na    c      2.2030 *     5.5074 *    -7.7103 *  0.0000     4          
    79  O     c      0.0000       1.1015 *     9.9133 *  0.0000     2          
    80  O     c      8.8118 *    -3.3044 *    -3.3044    0.0000     2          
    81  Na    c      0.0000       1.1015 *    -9.9133 *  0.0000     2          
    82  Na    c      0.0000       9.9133 *    -1.1015 *  0.0000     2          
    83  Na    c      8.8118 *    -3.3044 *     3.3044 *  0.0000     4          
    84  Cl    c      2.2030 *    -1.1015 *    -9.9133 *  0.0000     4          
    85  Cl    c      6.6089 *    -1.1015 *     7.7103 *  0.0000     4          
    86  Cl    c      6.6089 *    -5.5074 *    -5.5074    0.0000     2          
    87  Na    c      2.2030 *     1.1015 *     9.9133 *  0.0000     4          
    88  Na    c      6.6089 *     1.1015 *    -7.7103 *  0.0000     4          
    89  Na    c      6.6089 *     5.5074 *     5.5074    0.0000     2          
    90  O     c      0.0000       9.9133 *    -3.3044 *  0.0000     2          
    91  O     c      4.4059 *     5.5074 *    -7.7103 *  0.0000     4          
    92  O     c      8.8118 *     1.1015 *     5.5074 *  0.0000     4          
    93  Na    c      0.0000       9.9133 *     3.3044 *  0.0000     2          
    94  Na    c      0.0000      -3.3044 *    -9.9133 *  0.0000     2          
    95  Na    c      4.4059 *     5.5074 *     7.7103 *  0.0000     4          
    96  Na    c      4.4059 *    -7.7103 *    -5.5074 *  0.0000     4          
    97  Na    c      8.8118 *     1.1015 *    -5.5074 *  0.0000     4          
    98  Na    c      8.8118 *     5.5074 *    -1.1015 *  0.0000     4          
    99  Cl    c      6.6089 *     7.7103 *     3.3044 *  0.0000     4          
   100  Na    c      6.6089 *    -7.7103 *    -3.3044 *  0.0000     4          
   101  Cl    c      2.2030 *     3.3044 *    -9.9133 *  0.0000     4          
   102  Na    c      2.2030 *     9.9133 *    -3.3044 *  0.0000     4          
   103  O     c      0.0000      -7.7103 *    -7.7103    0.0000     1          
   104  O     c      4.4059 *     1.1015 *     9.9133 *  0.0000     4          
   105  O     c      8.8118 *     5.5074 *    -3.3044 *  0.0000     4          
   106  Na    c      0.0000      -7.7103 *     7.7103 *  0.0000     2          
   107  Na    c      4.4059 *     1.1015 *    -9.9133 *  0.0000     4          
   108  Na    c      4.4059 *     9.9133 *    -1.1015 *  0.0000     4          
   109  Na    c      8.8118 *     5.5074 *     3.3044 *  0.0000     4          
   110  Na    c      8.8118 *    -3.3044 *    -5.5074 *  0.0000     4          
   111  Cl    c      2.2030 *     7.7103 *     7.7103    0.0000     2          
   112  Cl    c     11.0148 *    -1.1015 *    -1.1015    0.0000     2          
   113  Na    c      2.2030 *    -7.7103 *    -7.7103    0.0000     2          
   114  Na    c     11.0148 *     1.1015 *     1.1015    0.0000     2          
   115  O     c      4.4059 *     9.9133 *    -3.3044 *  0.0000     4          
   116  Na    c      4.4059 *     9.9133 *     3.3044 *  0.0000     4          
   117  Na    c      4.4059 *    -9.9133 *    -3.3044 *  0.0000     4          
   118  O     c      0.0000       5.5074 *     9.9133 *  0.0000     2          
   119  Na    c      0.0000       5.5074 *    -9.9133 *  0.0000     2          
   120  Na    c      0.0000       9.9133 *    -5.5074 *  0.0000     2          
   121  Cl    c      2.2030 *    -5.5074 *    -9.9133 *  0.0000     4          
   122  Cl    c      6.6089 *     7.7103 *    -5.5074 *  0.0000     4          
   123  Cl    c     11.0148 *    -1.1015 *     3.3044 *  0.0000     4          
   124  Na    c      2.2030 *     5.5074 *     9.9133 *  0.0000     4          
   125  Na    c      6.6089 *     5.5074 *    -7.7103 *  0.0000     4          
   126  Na    c     11.0148 *     1.1015 *    -3.3044 *  0.0000     4          
   127  O     c      4.4059 *    -7.7103 *    -7.7103    0.0000     2          
   128  O     c      8.8118 *     1.1015 *    -7.7103 *  0.0000     4          
   129  O     c      8.8118 *     5.5074 *     5.5074    0.0000     2          
   130  Na    c      4.4059 *    -7.7103 *     7.7103 *  0.0000     4          
   131  Na    c      8.8118 *     1.1015 *     7.7103 *  0.0000     4          
   132  Na    c      8.8118 *     5.5074 *    -5.5074 *  0.0000     4          
   133  Na    c      8.8118 *    -1.1015 *    -7.7103 *  0.0000     4          
   134  Cl    c     11.0148 *     3.3044 *     3.3044    0.0000     2          
   135  Na    c     11.0148 *    -3.3044 *    -3.3044    0.0000     2          
   136  Cl    c      6.6089 *    -1.1015 *    -9.9133 *  0.0000     4          
   137  Na    c      6.6089 *     1.1015 *     9.9133 *  0.0000     4          
   138  O     s      0.0000       1.1015 *     1.1015    0.0000     1          
   139  Cl    s      2.2030 *    -1.1015 *    -1.1015    0.0000     2          
   140  O     s      0.0000       1.1015 *    -3.3044 *  0.0000     2          
   141  Cl    s      2.2030 *    -1.1015 *     3.3044 *  0.0000     4          
   142  O     s      0.0000      -3.3044 *    -3.3044    0.0000     1          
   143  O     s      4.4059 *     1.1015 *     1.1015    0.0000     2          
   144  Cl    s      2.2030 *     3.3044 *     3.3044    0.0000     2          
   145  O     s      0.0000       1.1015 *     5.5074 *  0.0000     2          
   146  O     s      4.4059 *     1.1015 *    -3.3044 *  0.0000     4          
   147  Cl    s      2.2030 *    -1.1015 *    -5.5074 *  0.0000     4          
   148  O     s      0.0000       5.5074 *    -3.3044 *  0.0000     2          
   149  O     s      4.4059 *    -3.3044 *    -3.3044    0.0000     2          
   150  Cl    s      6.6089 *    -1.1015 *    -1.1015    0.0000     2          
   151  Cl    s      2.2030 *     3.3044 *    -5.5074 *  0.0000     4          
   152  O     s      4.4059 *     1.1015 *     5.5074 *  0.0000     4          
   153  Cl    s      6.6089 *    -1.1015 *     3.3044 *  0.0000     4          
   154  O     s      0.0000       1.1015 *    -7.7103 *  0.0000     2          
   155  O     s      0.0000       5.5074 *     5.5074    0.0000     1          
   156  O     s      4.4059 *     5.5074 *    -3.3044 *  0.0000     4          
   157  Cl    s      2.2030 *    -1.1015 *     7.7103 *  0.0000     4          
   158  Cl    s      2.2030 *    -5.5074 *    -5.5074    0.0000     2          
   159  Cl    s      6.6089 *     3.3044 *     3.3044    0.0000     2          
   160  O     s      0.0000      -3.3044 *    -7.7103 *  0.0000     2          
   161  Cl    s      2.2030 *     3.3044 *     7.7103 *  0.0000     4          
   162  Cl    s      6.6089 *    -1.1015 *    -5.5074 *  0.0000     4          
   163  O     s      4.4059 *     1.1015 *    -7.7103 *  0.0000     4          
   164  O     s      4.4059 *     5.5074 *     5.5074    0.0000     2          
   165  O     s      8.8118 *     1.1015 *     1.1015    0.0000     2          
   166  Cl    s      6.6089 *     3.3044 *    -5.5074 *  0.0000     4          
   167  O     s      0.0000       5.5074 *    -7.7103 *  0.0000     2          
   168  O     s      4.4059 *    -3.3044 *    -7.7103 *  0.0000     4          
   169  O     s      8.8118 *     1.1015 *    -3.3044 *  0.0000     4          
   170  Cl    s      2.2030 *     7.7103 *    -5.5074 *  0.0000     4          
   171  O     s      0.0000       1.1015 *     9.9133 *  0.0000     2          
   172  O     s      8.8118 *    -3.3044 *    -3.3044    0.0000     2          
   173  Cl    s      2.2030 *    -1.1015 *    -9.9133 *  0.0000     4          
   174  Cl    s      6.6089 *    -1.1015 *     7.7103 *  0.0000     4          
   175  Cl    s      6.6089 *    -5.5074 *    -5.5074    0.0000     2          
   176  O     s      0.0000       9.9133 *    -3.3044 *  0.0000     2          
   177  O     s      4.4059 *     5.5074 *    -7.7103 *  0.0000     4          
   178  O     s      8.8118 *     1.1015 *     5.5074 *  0.0000     4          
   179  Cl    s      6.6089 *     7.7103 *     3.3044 *  0.0000     4          
   180  Cl    s      2.2030 *     3.3044 *    -9.9133 *  0.0000     4          
   181  O     s      0.0000      -7.7103 *    -7.7103    0.0000     1          
   182  O     s      4.4059 *     1.1015 *     9.9133 *  0.0000     4          
   183  O     s      8.8118 *     5.5074 *    -3.3044 *  0.0000     4          
   184  Cl    s      2.2030 *     7.7103 *     7.7103    0.0000     2          
   185  Cl    s     11.0148 *    -1.1015 *    -1.1015    0.0000     2          
   186  O     s      4.4059 *     9.9133 *    -3.3044 *  0.0000     4          
   187  O     s      0.0000       5.5074 *     9.9133 *  0.0000     2          
   188  Cl    s      2.2030 *    -5.5074 *    -9.9133 *  0.0000     4          
   189  Cl    s      6.6089 *     7.7103 *    -5.5074 *  0.0000     4          
   190  Cl    s     11.0148 *    -1.1015 *     3.3044 *  0.0000     4          
   191  O     s      4.4059 *    -7.7103 *    -7.7103    0.0000     2          
   192  O     s      8.8118 *     1.1015 *    -7.7103 *  0.0000     4          
   193  O     s      8.8118 *     5.5074 *     5.5074    0.0000     2          
   194  Cl    s     11.0148 *     3.3044 *     3.3044    0.0000     2          
   195  Cl    s      6.6089 *    -1.1015 *    -9.9133 *  0.0000     4          
--------------------------------------------------------------------------------


  Constraints on symmetry reduced coordinates :

--------------------------------------------------------------------------------
  Constraint no.      Unconstrained     Constrained    Coefficient    
                         Variable         Variable
--------------------------------------------------------------------------------
           1                 2 y             2 z         1.00000
           2                 3 y             3 z         1.00000
           3                 4 y             4 z         1.00000
           4                10 y            10 z         1.00000
           5                12 y            12 z         1.00000
           6                14 y            14 z         1.00000
           7                15 y            15 z         1.00000
           8                27 y            27 z         1.00000
           9                29 y            29 z         1.00000
          10                30 y            30 z         1.00000
          11                39 y            39 z         1.00000
          12                47 y            47 z         1.00000
          13                48 y            48 z         1.00000
          14                50 y            50 z         1.00000
          15                51 y            51 z         1.00000
          16                60 y            60 z         1.00000
          17                64 y            64 z         1.00000
          18                80 y            80 z         1.00000
          19                86 y            86 z         1.00000
          20                89 y            89 z         1.00000
          21               103 y           103 z         1.00000
          22               111 y           111 z         1.00000
          23               112 y           112 z         1.00000
          24               113 y           113 z         1.00000
          25               114 y           114 z         1.00000
          26               127 y           127 z         1.00000
          27               129 y           129 z         1.00000
          28               134 y           134 z         1.00000
          29               135 y           135 z         1.00000
          30               138 y           138 z         1.00000
          31               139 y           139 z         1.00000
          32               142 y           142 z         1.00000
          33               143 y           143 z         1.00000
          34               144 y           144 z         1.00000
          35               149 y           149 z         1.00000
          36               150 y           150 z         1.00000
          37               155 y           155 z         1.00000
          38               158 y           158 z         1.00000
          39               159 y           159 z         1.00000
          40               164 y           164 z         1.00000
          41               165 y           165 z         1.00000
          42               172 y           172 z         1.00000
          43               175 y           175 z         1.00000
          44               181 y           181 z         1.00000
          45               184 y           184 z         1.00000
          46               185 y           185 z         1.00000
          47               191 y           191 z         1.00000
          48               193 y           193 z         1.00000
          49               194 y           194 z         1.00000
--------------------------------------------------------------------------------


  Components of defect energy : 

--------------------------------------------------------------------------------
  Region 1 - region 1                   =      8.99311711 eV
  Region 1 - region 2a (unrelaxed)      =     -0.03856823 eV
  Region 1 - 2a (relaxed - correction)  =     -0.27728453 eV
  Region 1 (Total)                      =      8.67726435 eV
  Region 2a                             =      0.13859013 eV
  Region 2b                             =     -0.40816230 eV
--------------------------------------------------------------------------------
  Total defect energy                   =      8.40769218 eV
--------------------------------------------------------------------------------

  Largest displacement in region 2 =   0.0172 Angstroms


  Number of variables =      486

  Maximum number of calculations  =        1000
  Maximum Hessian update interval =          10
  Maximum step size               =   1.0000000
  Maximum parameter tolerance     =   0.0000100
  Maximum function  tolerance     =   0.0000100
  Maximum gradient  tolerance     =   0.0010000

  Symmetry adapted optimisation

  Symmetry to be used for second derivatives

  Newton-Raphson optimiser to be used

  BFGS hessian update to be used

  Lower half triangular hessian to be used

  Start of defect optimisation :

  Cycle:      0 Defect Energy:   8.407692  Gnorm:     0.047004  CPU:    2.090
  ** Hessian calculated **
  Cycle:      1 Defect Energy:   6.521532  Gnorm:     0.029272  CPU:    6.030
  Cycle:      2 Defect Energy:   5.350015  Gnorm:     0.001335  CPU:    8.413
  Cycle:      3 Defect Energy:   5.336480  Gnorm:     0.001019  CPU:   11.361
  Cycle:      4 Defect Energy:   5.328325  Gnorm:     0.000685  CPU:   13.746
  Cycle:      5 Defect Energy:   5.323751  Gnorm:     0.000437  CPU:   14.440
  Cycle:      6 Defect Energy:   5.321773  Gnorm:     0.000291  CPU:   15.036
  Cycle:      7 Defect Energy:   5.320926  Gnorm:     0.000194  CPU:   15.625
  Cycle:      8 Defect Energy:   5.320510  Gnorm:     0.000139  CPU:   16.215
  Cycle:      9 Defect Energy:   5.320291  Gnorm:     0.000087  CPU:   16.812
  Cycle:     10 Defect Energy:   5.320194  Gnorm:     0.000060  CPU:   17.410
  ** Hessian calculated **
  Cycle:     11 Defect Energy:   5.320149  Gnorm:     0.000042  CPU:   19.501
  Cycle:     12 Defect Energy:   5.320125  Gnorm:     0.000029  CPU:   20.079
  Cycle:     13 Defect Energy:   5.320112  Gnorm:     0.000021  CPU:   20.661


  **** Optimisation achieved ****


  Final defect energy  =        5.32010409
  Final defect Gnorm   =        0.00001441

  Components of defect energy : 

--------------------------------------------------------------------------------
  Region 1 - region 1                   =      6.69649505 eV
  Region 1 - region 2a (unrelaxed)      =     -0.85962635 eV
  Region 1 - 2a (relaxed - correction)  =     -0.21864214 eV
  Region 1 (Total)                      =      5.61822657 eV
  Region 2a                             =      0.10934755 eV
  Region 2b                             =     -0.40747002 eV
--------------------------------------------------------------------------------
  Total defect energy                   =      5.32010409 eV
--------------------------------------------------------------------------------

  Largest displacement in region 2 =   0.0172 Angstroms

  Final coordinates of region 1 :

--------------------------------------------------------------------------------
   No.  Atomic        x           y           z          Radius      Charge
        Label       (Angs)      (Angs)      (Angs)       (Angs)       (e) 
--------------------------------------------------------------------------------
     1  Na    c     2.202951    0.550738    0.550738    0.000000    1.000000
     2  O     c     2.202951    2.132776    2.132776    0.000000    0.183000
     3  Cl    c     4.647170   -0.109883   -0.109883    0.000000    1.485000
     4  Cl    c    -0.241268   -0.109883   -0.109883    0.000000    1.485000
     5  Na    c     4.342747    2.080724    2.080724    0.000000    1.000000
     6  Na    c     0.063156    2.080724    2.080724    0.000000    1.000000
     7  O     c     2.202951    2.109518   -2.302514    0.000000    0.183000
     8  O     c     2.202951   -2.302514    2.109518    0.000000    0.183000
     9  Na    c     2.202951    1.893484    4.268235    0.000000    1.000000
    10  Na    c     2.202951    4.268235    1.893484    0.000000    1.000000
    11  Na    c     2.202951   -2.510245   -0.023302    0.000000    1.000000
    12  Na    c     2.202951   -0.023302   -2.510245    0.000000    1.000000
    13  Cl    c     4.521856   -0.027377    4.491569    0.000000    1.485000
    14  Cl    c    -0.115954   -0.027377    4.491569    0.000000    1.485000
    15  Cl    c     4.521856    4.491569   -0.027377    0.000000    1.485000
    16  Cl    c    -0.115954    4.491569   -0.027377    0.000000    1.485000
    17  Na    c     4.339299    2.150710   -1.981376    0.000000    1.000000
    18  Na    c     0.066603    2.150710   -1.981376    0.000000    1.000000
    19  Na    c     4.339299   -1.981376    2.150710    0.000000    1.000000
    20  Na    c     0.066603   -1.981376    2.150710    0.000000    1.000000
    21  O     c     2.202951   -2.227169   -2.227169    0.000000    0.183000
    22  Na    c     2.202951   -1.844769    4.256414    0.000000    1.000000
    23  Na    c     2.202951    4.256414   -1.844769    0.000000    1.000000
    24  O     c     6.599903    2.189282    2.189282    0.000000    0.183000
    25  O     c    -2.194000    2.189282    2.189282    0.000000    0.183000
    26  Na    c     6.679111    2.194177   -0.005407    0.000000    1.000000
    27  Na    c    -2.273209    2.194177   -0.005407    0.000000    1.000000
    28  Na    c     6.679111   -0.005407    2.194177    0.000000    1.000000
    29  Na    c    -2.273209   -0.005407    2.194177    0.000000    1.000000
    30  Cl    c     4.477001    4.439045    4.439045    0.000000    1.485000
    31  Cl    c    -0.071099    4.439045    4.439045    0.000000    1.485000
    32  Na    c     4.416875   -2.192470   -2.192470    0.000000    1.000000
    33  Na    c    -0.010972   -2.192470   -2.192470    0.000000    1.000000
    34  O     c     2.202951    2.165589    6.566968    0.000000    0.183000
    35  O     c     2.202951    6.566968    2.165589    0.000000    0.183000
    36  O     c     6.594571    2.197752   -2.202507    0.000000    0.183000
    37  O     c    -2.188669    2.197752   -2.202507    0.000000    0.183000
    38  O     c     6.594571   -2.202507    2.197752    0.000000    0.183000
    39  O     c    -2.188669   -2.202507    2.197752    0.000000    0.183000
    40  Na    c     2.202951    2.384504   -4.420402    0.000000    1.000000
    41  Na    c     2.202951   -4.420402    2.384504    0.000000    1.000000
    42  Na    c     2.202951    6.724803   -0.008499    0.000000    1.000000
    43  Na    c     2.202951   -0.008499    6.724803    0.000000    1.000000
    44  Na    c     6.529458    2.193529    4.388948    0.000000    1.000000
    45  Na    c    -2.123556    2.193529    4.388948    0.000000    1.000000
    46  Na    c     6.529458    4.388948    2.193529    0.000000    1.000000
    47  Na    c    -2.123556    4.388948    2.193529    0.000000    1.000000
    48  Na    c     6.618276   -0.010445   -2.217888    0.000000    1.000000
    49  Na    c    -2.212373   -0.010445   -2.217888    0.000000    1.000000
    50  Na    c     6.618276   -2.217888   -0.010445    0.000000    1.000000
    51  Na    c    -2.212373   -2.217888   -0.010445    0.000000    1.000000
    52  Cl    c     4.430306   -0.083491   -4.478085    0.000000    1.485000
    53  Cl    c     4.430306   -4.478085   -0.083491    0.000000    1.485000
    54  Cl    c    -0.024404   -0.083491   -4.478085    0.000000    1.485000
    55  Cl    c    -0.024404   -4.478085   -0.083491    0.000000    1.485000
    56  Na    c     4.396957    2.189721    6.550710    0.000000    1.000000
    57  Na    c     4.396957    6.550710    2.189721    0.000000    1.000000
    58  Na    c     0.008945    2.189721    6.550710    0.000000    1.000000
    59  Na    c     0.008945    6.550710    2.189721    0.000000    1.000000
    60  O     c     2.202951    6.546592   -2.183759    0.000000    0.183000
    61  O     c     2.202951   -2.183759    6.546592    0.000000    0.183000
    62  Na    c     2.202951    6.458479    4.354160    0.000000    1.000000
    63  Na    c     2.202951    4.354160    6.458479    0.000000    1.000000
    64  Na    c     2.202951   -2.301621   -4.435762    0.000000    1.000000
    65  Na    c     2.202951   -4.435762   -2.301621    0.000000    1.000000
    66  O     c     6.628176   -2.228603   -2.228603    0.000000    0.183000
    67  O     c    -2.222274   -2.228603   -2.228603    0.000000    0.183000
    68  Na    c     6.571937   -2.196023    4.396288    0.000000    1.000000
    69  Na    c    -2.166035   -2.196023    4.396288    0.000000    1.000000
    70  Na    c     6.571937    4.396288   -2.196023    0.000000    1.000000
    71  Na    c    -2.166035    4.396288   -2.196023    0.000000    1.000000
    72  Cl    c     8.849361   -0.005306   -0.005306    0.000000    1.485000
    73  Cl    c    -4.443459   -0.005306   -0.005306    0.000000    1.485000
    74  Na    c     8.802412    2.255089    2.255089    0.000000    1.000000
    75  Na    c    -4.396510    2.255089    2.255089    0.000000    1.000000
    76  Cl    c     4.448171    4.430730   -4.476890    0.000000    1.485000
    77  Cl    c     4.448171   -4.476890    4.430730    0.000000    1.485000
    78  Cl    c    -0.042268    4.430730   -4.476890    0.000000    1.485000
    79  Cl    c    -0.042268   -4.476890    4.430730    0.000000    1.485000
    80  Na    c     4.399133    6.540354   -2.203050    0.000000    1.000000
    81  Na    c     4.399133   -2.203050    6.540354    0.000000    1.000000
    82  Na    c     0.006769    6.540354   -2.203050    0.000000    1.000000
    83  Na    c     0.006769   -2.203050    6.540354    0.000000    1.000000
    84  O     c     6.608201    2.203000    6.603451    0.000000    0.183000
    85  O     c     6.608201    6.603451    2.203000    0.000000    0.183000
    86  O     c    -2.202298    2.203000    6.603451    0.000000    0.183000
    87  O     c    -2.202298    6.603451    2.203000    0.000000    0.183000
    88  Na    c     6.473903    2.210872   -4.390539    0.000000    1.000000
    89  Na    c    -2.068001    2.210872   -4.390539    0.000000    1.000000
    90  Na    c     6.473903   -4.390539    2.210872    0.000000    1.000000
    91  Na    c    -2.068001   -4.390539    2.210872    0.000000    1.000000
    92  Na    c     6.590260    6.592896   -0.005644    0.000000    1.000000
    93  Na    c    -2.184358    6.592896   -0.005644    0.000000    1.000000
    94  Na    c     6.590260   -0.005644    6.592896    0.000000    1.000000
    95  Na    c    -2.184358   -0.005644    6.592896    0.000000    1.000000
    96  Cl    c     8.839884   -0.003491    4.400451    0.000000    1.485000
    97  Cl    c     8.839884    4.400451   -0.003491    0.000000    1.485000
    98  Cl    c    -4.433982   -0.003491    4.400451    0.000000    1.485000
    99  Cl    c    -4.433982    4.400451   -0.003491    0.000000    1.485000
   100  Na    c     8.797018    2.216341   -2.273541    0.000000    1.000000
   101  Na    c     8.797018   -2.273541    2.216341    0.000000    1.000000
   102  Na    c    -4.391115    2.216341   -2.273541    0.000000    1.000000
   103  Na    c    -4.391115   -2.273541    2.216341    0.000000    1.000000
   104  O     c     2.202951    2.207686   -6.631959    0.000000    0.183000
   105  O     c     2.202951   -6.631959    2.207686    0.000000    0.183000
   106  O     c     2.202951    6.573250    6.573250    0.000000    0.183000
   107  Na    c     2.202951    2.269182    8.787578    0.000000    1.000000
   108  Na    c     2.202951    8.787578    2.269182    0.000000    1.000000
   109  Na    c     2.202951    6.393910   -4.379950    0.000000    1.000000
   110  Na    c     2.202951   -4.379950    6.393910    0.000000    1.000000
   111  Na    c     2.202951   -6.531717   -0.000428    0.000000    1.000000
   112  Na    c     2.202951   -0.000428   -6.531717    0.000000    1.000000
   113  O     c     6.614618    6.608928   -2.216555    0.000000    0.183000
   114  O     c     6.614618   -2.216555    6.608928    0.000000    0.183000
   115  O     c    -2.208716    6.608928   -2.216555    0.000000    0.183000
   116  O     c    -2.208716   -2.216555    6.608928    0.000000    0.183000
   117  Na    c     6.597594    6.587963    4.402500    0.000000    1.000000
   118  Na    c    -2.191691    6.587963    4.402500    0.000000    1.000000
   119  Na    c     6.597594    4.402500    6.587963    0.000000    1.000000
   120  Na    c    -2.191691    4.402500    6.587963    0.000000    1.000000
   121  Na    c     6.592024   -2.211543   -4.418133    0.000000    1.000000
   122  Na    c    -2.186122   -2.211543   -4.418133    0.000000    1.000000
   123  Na    c     6.592024   -4.418133   -2.211543    0.000000    1.000000
   124  Na    c    -2.186122   -4.418133   -2.211543    0.000000    1.000000
   125  Cl    c     4.403219   -0.007614    8.828698    0.000000    1.485000
   126  Cl    c     0.002684   -0.007614    8.828698    0.000000    1.485000
   127  Cl    c     4.403219    8.828698   -0.007614    0.000000    1.485000
   128  Cl    c     0.002684    8.828698   -0.007614    0.000000    1.485000
   129  Cl    c     4.392732   -4.433355   -4.433355    0.000000    1.485000
   130  Cl    c     0.013170   -4.433355   -4.433355    0.000000    1.485000
   131  Cl    c     8.839480    4.406555    4.406555    0.000000    1.485000
   132  Cl    c    -4.433577    4.406555    4.406555    0.000000    1.485000
   133  Na    c     4.398681    2.189032   -6.633331    0.000000    1.000000
   134  Na    c     0.007221    2.189032   -6.633331    0.000000    1.000000
   135  Na    c     4.398681   -6.633331    2.189032    0.000000    1.000000
   136  Na    c     0.007221   -6.633331    2.189032    0.000000    1.000000
   137  Na    c     4.404325    6.578316    6.578316    0.000000    1.000000
   138  Na    c     0.001577    6.578316    6.578316    0.000000    1.000000
   139  Na    c     8.813761   -2.222783   -2.222783    0.000000    1.000000
   140  Na    c    -4.407858   -2.222783   -2.222783    0.000000    1.000000
   141  O     c     2.202951   -2.217239   -6.624629    0.000000    0.183000
   142  O     c     2.202951   -6.624629   -2.217239    0.000000    0.183000
   143  Na    c     2.202951   -2.297534    8.773851    0.000000    1.000000
   144  Na    c     2.202951    8.773851   -2.297534    0.000000    1.000000
   145  Na    c     2.202951   -6.723999    4.403935    0.000000    1.000000
   146  Na    c     2.202951    4.403935   -6.723999    0.000000    1.000000
   147  Cl    c     4.405976    4.402758    8.823995    0.000000    1.485000
   148  Cl    c    -0.000074    4.402758    8.823995    0.000000    1.485000
   149  Cl    c     4.405976    8.823995    4.402758    0.000000    1.485000
   150  Cl    c    -0.000074    8.823995    4.402758    0.000000    1.485000
   151  Cl    c     8.829140   -0.006106   -4.418630    0.000000    1.485000
   152  Cl    c    -4.423238   -0.006106   -4.418630    0.000000    1.485000
   153  Cl    c     8.829140   -4.418630   -0.006106    0.000000    1.485000
   154  Cl    c    -4.423238   -4.418630   -0.006106    0.000000    1.485000
   155  Na    c     4.408662   -2.186605   -6.614614    0.000000    1.000000
   156  Na    c    -0.002759   -2.186605   -6.614614    0.000000    1.000000
   157  Na    c     4.408662   -6.614614   -2.186605    0.000000    1.000000
   158  Na    c    -0.002759   -6.614614   -2.186605    0.000000    1.000000
   159  Na    c     8.803207    2.199246    6.572217    0.000000    1.000000
   160  Na    c    -4.397305    2.199246    6.572217    0.000000    1.000000
   161  Na    c     8.803207    6.572217    2.199246    0.000000    1.000000
   162  Na    c    -4.397305    6.572217    2.199246    0.000000    1.000000
   163  O     c     6.599421    2.196323   -6.605575    0.000000    0.183000
   164  O     c    -2.193518    2.196323   -6.605575    0.000000    0.183000
   165  O     c     6.599421   -6.605575    2.196323    0.000000    0.183000
   166  O     c    -2.193518   -6.605575    2.196323    0.000000    0.183000
   167  O     c     6.615607    6.610839    6.610839    0.000000    0.183000
   168  O     c    -2.209705    6.610839    6.610839    0.000000    0.183000
   169  Na    c     6.592170    2.202188    8.799259    0.000000    1.000000
   170  Na    c    -2.186267    2.202188    8.799259    0.000000    1.000000
   171  Na    c     6.592170    8.799259    2.202188    0.000000    1.000000
   172  Na    c    -2.186267    8.799259    2.202188    0.000000    1.000000
   173  Na    c     6.605897    6.594270   -4.409000    0.000000    1.000000
   174  Na    c    -2.199995    6.594270   -4.409000    0.000000    1.000000
   175  Na    c     6.605897   -4.409000    6.594270    0.000000    1.000000
   176  Na    c    -2.199995   -4.409000    6.594270    0.000000    1.000000
   177  Na    c     6.618706   -0.004191   -6.587232    0.000000    1.000000
   178  Na    c    -2.212804   -0.004191   -6.587232    0.000000    1.000000
   179  Na    c     6.618706   -6.587232   -0.004191    0.000000    1.000000
   180  Na    c    -2.212804   -6.587232   -0.004191    0.000000    1.000000
   181  O     c    11.010842    2.204210    2.204210    0.000000    0.183000
   182  O     c    -6.604940    2.204210    2.204210    0.000000    0.183000
   183  Na    c    10.951696    2.197755   -0.001776    0.000000    1.000000
   184  Na    c    -6.545794    2.197755   -0.001776    0.000000    1.000000
   185  Na    c    10.951696   -0.001776    2.197755    0.000000    1.000000
   186  Na    c    -6.545794   -0.001776    2.197755    0.000000    1.000000
   187  Cl    c     8.832685    4.410017   -4.414294    0.000000    1.485000
   188  Cl    c     8.832685   -4.414294    4.410017    0.000000    1.485000
   189  Cl    c    -4.426783    4.410017   -4.414294    0.000000    1.485000
   190  Cl    c    -4.426783   -4.414294    4.410017    0.000000    1.485000
   191  Na    c     8.808031    6.602018   -2.198348    0.000000    1.000000
   192  Na    c     8.808031   -2.198348    6.602018    0.000000    1.000000
   193  Na    c    -4.402129    6.602018   -2.198348    0.000000    1.000000
   194  Na    c    -4.402129   -2.198348    6.602018    0.000000    1.000000
   195  O     c     2.202951    6.592883   -6.605766    0.000000    0.183000
   196  O     c     2.202951   -6.605766    6.592883    0.000000    0.183000
   197  O     c     6.616410   -2.212502   -6.621483    0.000000    0.183000
   198  O     c    -2.210508   -2.212502   -6.621483    0.000000    0.183000
   199  O     c     6.616410   -6.621483   -2.212502    0.000000    0.183000
   200  O     c    -2.210508   -6.621483   -2.212502    0.000000    0.183000
   201  Na    c     2.202951    6.557080    8.783150    0.000000    1.000000
   202  Na    c     2.202951    8.783150    6.557080    0.000000    1.000000
   203  Na    c     2.202951   -6.646250   -4.416841    0.000000    1.000000
   204  Na    c     2.202951   -4.416841   -6.646250    0.000000    1.000000
   205  Na    c     6.590481   -2.210550    8.805476    0.000000    1.000000
   206  Na    c    -2.184579   -2.210550    8.805476    0.000000    1.000000
   207  Na    c     6.590481    8.805476   -2.210550    0.000000    1.000000
   208  Na    c    -2.184579    8.805476   -2.210550    0.000000    1.000000
   209  Na    c     6.587377    4.404330   -6.599858    0.000000    1.000000
   210  Na    c    -2.181475    4.404330   -6.599858    0.000000    1.000000
   211  Na    c     6.587377   -6.599858    4.404330    0.000000    1.000000
   212  Na    c    -2.181475   -6.599858    4.404330    0.000000    1.000000
   213  O     c    11.008836    2.203232   -2.207478    0.000000    0.183000
   214  O     c    11.008836   -2.207478    2.203232    0.000000    0.183000
   215  O     c    -6.602934    2.203232   -2.207478    0.000000    0.183000
   216  O     c    -6.602934   -2.207478    2.203232    0.000000    0.183000
   217  Na    c    11.028552    2.197262    4.404645    0.000000    1.000000
   218  Na    c    -6.622649    2.197262    4.404645    0.000000    1.000000
   219  Na    c    11.028552    4.404645    2.197262    0.000000    1.000000
   220  Na    c    -6.622649    4.404645    2.197262    0.000000    1.000000
   221  Na    c    10.988741   -2.199220    0.000915    0.000000    1.000000
   222  Na    c    -6.582839   -2.199220    0.000915    0.000000    1.000000
   223  Na    c    10.988741    0.000915   -2.199220    0.000000    1.000000
   224  Na    c    -6.582839    0.000915   -2.199220    0.000000    1.000000
   225  Cl    c     4.410260    8.825829   -4.408321    0.000000    1.485000
   226  Cl    c     4.410260   -4.408321    8.825829    0.000000    1.485000
   227  Cl    c    -0.004357    8.825829   -4.408321    0.000000    1.485000
   228  Cl    c    -0.004357   -4.408321    8.825829    0.000000    1.485000
   229  Na    c     4.404961    6.606186   -6.582469    0.000000    1.000000
   230  Na    c     4.404961   -6.582469    6.606186    0.000000    1.000000
   231  Na    c     0.000942    6.606186   -6.582469    0.000000    1.000000
   232  Na    c     0.000942   -6.582469    6.606186    0.000000    1.000000
   233  O     c     2.202951    2.206923   11.005536    0.000000    0.183000
   234  O     c     2.202951   11.005536    2.206923    0.000000    0.183000
   235  O     c    11.015870   -2.204471   -2.204471    0.000000    0.183000
   236  O     c    -6.609967   -2.204471   -2.204471    0.000000    0.183000
   237  Na    c     2.202951    2.156501   -8.822793    0.000000    1.000000
   238  Na    c     2.202951   -8.822793    2.156501    0.000000    1.000000
   239  Na    c     2.202951   10.956525   -0.004621    0.000000    1.000000
   240  Na    c     2.202951   -0.004621   10.956525    0.000000    1.000000
   241  Na    c    11.007895   -2.193530    4.405781    0.000000    1.000000
   242  Na    c    -6.601993   -2.193530    4.405781    0.000000    1.000000
   243  Na    c    11.007895    4.405781   -2.193530    0.000000    1.000000
   244  Na    c    -6.601993    4.405781   -2.193530    0.000000    1.000000
   245  Cl    c     4.407612   -0.004170   -8.838795    0.000000    1.485000
   246  Cl    c    -0.001709   -0.004170   -8.838795    0.000000    1.485000
   247  Cl    c     4.407612   -8.838795   -0.004170    0.000000    1.485000
   248  Cl    c    -0.001709   -8.838795   -0.004170    0.000000    1.485000
   249  Cl    c     8.823063   -0.000627    8.819935    0.000000    1.485000
   250  Cl    c     8.823063    8.819935   -0.000627    0.000000    1.485000
   251  Cl    c    -4.417161   -0.000627    8.819935    0.000000    1.485000
   252  Cl    c    -4.417161    8.819935   -0.000627    0.000000    1.485000
   253  Cl    c     8.825941   -4.425316   -4.425316    0.000000    1.485000
   254  Cl    c    -4.420039   -4.425316   -4.425316    0.000000    1.485000
   255  Na    c     4.402478    2.190788   11.002376    0.000000    1.000000
   256  Na    c     0.003424    2.190788   11.002376    0.000000    1.000000
   257  Na    c     4.402478   11.002376    2.190788    0.000000    1.000000
   258  Na    c     0.003424   11.002376    2.190788    0.000000    1.000000
   259  Na    c     8.802150    2.220626   -6.555234    0.000000    1.000000
   260  Na    c     8.802150   -6.555234    2.220626    0.000000    1.000000
   261  Na    c    -4.396248    2.220626   -6.555234    0.000000    1.000000
   262  Na    c    -4.396248   -6.555234    2.220626    0.000000    1.000000
   263  Na    c     8.811866    6.608378    6.608378    0.000000    1.000000
   264  Na    c    -4.405964    6.608378    6.608378    0.000000    1.000000
   265  O     c     2.202951   11.002223   -2.214467    0.000000    0.183000
   266  O     c     2.202951   -2.214467   11.002223    0.000000    0.183000
   267  O     c     6.613741    6.613049   -6.613644    0.000000    0.183000
   268  O     c     6.613741   -6.613644    6.613049    0.000000    0.183000
   269  O     c    -2.207839    6.613049   -6.613644    0.000000    0.183000
   270  O     c    -2.207839   -6.613644    6.613049    0.000000    0.183000
   271  O     c    11.016754    2.202437    6.605400    0.000000    0.183000
   272  O     c    11.016754    6.605400    2.202437    0.000000    0.183000
   273  O     c    -6.610852    2.202437    6.605400    0.000000    0.183000
   274  O     c    -6.610852    6.605400    2.202437    0.000000    0.183000
   275  Na    c     2.202951   11.020197    4.405830    0.000000    1.000000
   276  Na    c     2.202951    4.405830   11.020197    0.000000    1.000000
   277  Na    c     2.202951   -2.175015   -8.813123    0.000000    1.000000
   278  Na    c     2.202951   -8.813123   -2.175015    0.000000    1.000000
   279  Na    c     6.605551    6.606379    8.806852    0.000000    1.000000
   280  Na    c    -2.199649    6.606379    8.806852    0.000000    1.000000
   281  Na    c     6.605551    8.806852    6.606379    0.000000    1.000000
   282  Na    c    -2.199649    8.806852    6.606379    0.000000    1.000000
   283  Na    c     6.607426   -6.617551   -4.410191    0.000000    1.000000
   284  Na    c    -2.201524   -6.617551   -4.410191    0.000000    1.000000
   285  Na    c     6.607426   -4.410191   -6.617551    0.000000    1.000000
   286  Na    c    -2.201524   -4.410191   -6.617551    0.000000    1.000000
   287  Na    c    11.039088    2.205696   -4.405420    0.000000    1.000000
   288  Na    c    -6.633186    2.205696   -4.405420    0.000000    1.000000
   289  Na    c    11.039088   -4.405420    2.205696    0.000000    1.000000
   290  Na    c    -6.633186   -4.405420    2.205696    0.000000    1.000000
   291  Na    c    11.005562    6.612685    0.000639    0.000000    1.000000
   292  Na    c    -6.599660    6.612685    0.000639    0.000000    1.000000
   293  Na    c    11.005562    0.000639    6.612685    0.000000    1.000000
   294  Na    c    -6.599660    0.000639    6.612685    0.000000    1.000000
   295  Cl    c     8.826055    8.822316    4.410692    0.000000    1.485000
   296  Cl    c    -4.420153    8.822316    4.410692    0.000000    1.485000
   297  Cl    c     8.826055    4.410692    8.822316    0.000000    1.485000
   298  Cl    c    -4.420153    4.410692    8.822316    0.000000    1.485000
   299  Na    c     8.812637   -6.601814   -2.215403    0.000000    1.000000
   300  Na    c    -4.406735   -6.601814   -2.215403    0.000000    1.000000
   301  Na    c     8.812637   -2.215403   -6.601814    0.000000    1.000000
   302  Na    c    -4.406735   -2.215403   -6.601814    0.000000    1.000000
   303  Cl    c     4.408664    4.405608   -8.836265    0.000000    1.485000
   304  Cl    c     4.408664   -8.836265    4.405608    0.000000    1.485000
   305  Cl    c    -0.002762    4.405608   -8.836265    0.000000    1.485000
   306  Cl    c    -0.002762   -8.836265    4.405608    0.000000    1.485000
   307  Na    c     4.403163   10.996899   -2.194258    0.000000    1.000000
   308  Na    c     4.403163   -2.194258   10.996899    0.000000    1.000000
   309  Na    c     0.002739   10.996899   -2.194258    0.000000    1.000000
   310  Na    c     0.002739   -2.194258   10.996899    0.000000    1.000000
   311  O     c     2.202951   -6.618860   -6.618860    0.000000    0.183000
   312  O     c     6.608231    2.201037   11.012668    0.000000    0.183000
   313  O     c     6.608231   11.012668    2.201037    0.000000    0.183000
   314  O     c    -2.202328    2.201037   11.012668    0.000000    0.183000
   315  O     c    -2.202328   11.012668    2.201037    0.000000    0.183000
   316  O     c    11.017201    6.611063   -2.202078    0.000000    0.183000
   317  O     c    11.017201   -2.202078    6.611063    0.000000    0.183000
   318  O     c    -6.611299    6.611063   -2.202078    0.000000    0.183000
   319  O     c    -6.611299   -2.202078    6.611063    0.000000    0.183000
   320  Na    c     2.202951   -6.534455    8.795227    0.000000    1.000000
   321  Na    c     2.202951    8.795227   -6.534455    0.000000    1.000000
   322  Na    c     6.620339    2.199752   -8.805889    0.000000    1.000000
   323  Na    c    -2.214437    2.199752   -8.805889    0.000000    1.000000
   324  Na    c     6.620339   -8.805889    2.199752    0.000000    1.000000
   325  Na    c    -2.214437   -8.805889    2.199752    0.000000    1.000000
   326  Na    c     6.608548   11.001942   -0.001317    0.000000    1.000000
   327  Na    c    -2.202646   11.001942   -0.001317    0.000000    1.000000
   328  Na    c     6.608548   -0.001317   11.001942    0.000000    1.000000
   329  Na    c    -2.202646   -0.001317   11.001942    0.000000    1.000000
   330  Na    c    11.004384    6.605376    4.405304    0.000000    1.000000
   331  Na    c    -6.598482    6.605376    4.405304    0.000000    1.000000
   332  Na    c    11.004384    4.405304    6.605376    0.000000    1.000000
   333  Na    c    -6.598482    4.405304    6.605376    0.000000    1.000000
   334  Na    c    11.017469   -2.196192   -4.404882    0.000000    1.000000
   335  Na    c    -6.611567   -2.196192   -4.404882    0.000000    1.000000
   336  Na    c    11.017469   -4.404882   -2.196192    0.000000    1.000000
   337  Na    c    -6.611567   -4.404882   -2.196192    0.000000    1.000000
   338  Cl    c     4.414197    8.818252    8.818252    0.000000    1.485000
   339  Cl    c    -0.008294    8.818252    8.818252    0.000000    1.485000
   340  Cl    c    13.241512   -0.002609   -0.002609    0.000000    1.485000
   341  Cl    c    -8.835610   -0.002609   -0.002609    0.000000    1.485000
   342  Na    c     4.406774   -6.606606   -6.606606    0.000000    1.000000
   343  Na    c    -0.000872   -6.606606   -6.606606    0.000000    1.000000
   344  Na    c    13.210875    2.183023    2.183023    0.000000    1.000000
   345  Na    c    -8.804973    2.183023    2.183023    0.000000    1.000000
   346  O     c     6.611632   11.018329   -2.205351    0.000000    0.183000
   347  O     c    -2.205730   11.018329   -2.205351    0.000000    0.183000
   348  O     c     6.611632   -2.205351   11.018329    0.000000    0.183000
   349  O     c    -2.205730   -2.205351   11.018329    0.000000    0.183000
   350  Na    c     6.596873   11.001308    4.403095    0.000000    1.000000
   351  Na    c    -2.190971   11.001308    4.403095    0.000000    1.000000
   352  Na    c     6.596873    4.403095   11.001308    0.000000    1.000000
   353  Na    c    -2.190971    4.403095   11.001308    0.000000    1.000000
   354  Na    c     6.612500   -8.813124   -2.194658    0.000000    1.000000
   355  Na    c    -2.206597   -8.813124   -2.194658    0.000000    1.000000
   356  Na    c     6.612500   -2.194658   -8.813124    0.000000    1.000000
   357  Na    c    -2.206597   -2.194658   -8.813124    0.000000    1.000000
   358  O     c     2.202951    6.608681   11.010855    0.000000    0.183000
[...]
    115 y         11.014756     11.018329     0.003574    Cartesian    0.03
    115 z         -2.202951     -2.205351    -0.002399    Cartesian    0.11
    116 x          6.608853      6.596873    -0.011980    Cartesian   -0.18
    116 y         11.014756     11.001308    -0.013447    Cartesian   -0.12
    116 z          4.405902      4.403095    -0.002807    Cartesian   -0.06
    117 x          6.608853      6.612500     0.003646    Cartesian    0.06
    117 y         -8.811805     -8.813124    -0.001320    Cartesian    0.01
    117 z         -2.202951     -2.194658     0.008293    Cartesian   -0.38
    118 x          2.202951      2.202951     0.000000    Cartesian    0.00
    118 y          6.608853      6.608681    -0.000172    Cartesian   -0.00
    118 z         11.014756     11.010855    -0.003900    Cartesian   -0.04
    119 x          2.202951      2.202951     0.000000    Cartesian    0.00
    119 y          6.608853      6.647391     0.038538    Cartesian    0.58
    119 z         -8.811805     -8.806306     0.005498    Cartesian   -0.06
    120 x          2.202951      2.202951     0.000000    Cartesian    0.00
    120 y         11.014756     11.023102     0.008347    Cartesian    0.08
    120 z         -4.405902     -4.406333    -0.000431    Cartesian    0.01
    121 x          4.405902      4.410690     0.004788    Cartesian    0.11
    121 y         -4.405902     -4.423721    -0.017818    Cartesian    0.40
    121 z         -8.811805     -8.831982    -0.020178    Cartesian    0.23
    122 x          8.811805      8.827257     0.015452    Cartesian    0.18
    122 y          8.811805      8.827797     0.015993    Cartesian    0.18
    122 z         -4.405902     -4.418388    -0.012485    Cartesian    0.28
    123 x         13.217707     13.239420     0.021713    Cartesian    0.16
    123 y          0.000000     -0.002815    -0.002815    Cartesian    0.00
    123 z          4.405902      4.409242     0.003340    Cartesian    0.08
    124 x          4.405902      4.403148    -0.002754    Cartesian   -0.06
    124 y          6.608853      6.606718    -0.002135    Cartesian   -0.03
    124 z         11.014756     10.990341    -0.024415    Cartesian   -0.22
    125 x          8.811805      8.809321    -0.002484    Cartesian   -0.03
    125 y          6.608853      6.601776    -0.007078    Cartesian   -0.11
    125 z         -6.608853     -6.604112     0.004741    Cartesian   -0.07
    126 x         13.217707     13.209762    -0.007945    Cartesian   -0.06
    126 y          2.202951      2.198302    -0.004649    Cartesian   -0.21
    126 z         -2.202951     -2.177270     0.025681    Cartesian   -1.17
    127 x          6.608853      6.612089     0.003236    Cartesian    0.05
    127 y         -6.608853     -6.615745    -0.006892    Cartesian    0.10
    127 z         -6.608853     -6.615745    -0.006892    Cartesian    0.10
    128 x         11.014756     11.019633     0.004878    Cartesian    0.04
    128 y          2.202951      2.205545     0.002594    Cartesian    0.12
    128 z         -6.608853     -6.610293    -0.001439    Cartesian    0.02
    129 x         11.014756     11.019916     0.005160    Cartesian    0.05
    129 y          6.608853      6.612551     0.003698    Cartesian    0.06
    129 z          6.608853      6.612551     0.003698    Cartesian    0.06
    130 x          6.608853      6.604504    -0.004349    Cartesian   -0.07
    130 y         -6.608853     -6.598320     0.010533    Cartesian   -0.16
    130 z          8.811805      8.809272    -0.002533    Cartesian   -0.03
    131 x         11.014756     10.993227    -0.021528    Cartesian   -0.20
    131 y          2.202951      2.204172     0.001220    Cartesian    0.06
    131 z          8.811805      8.806035    -0.005770    Cartesian   -0.07
    132 x         11.014756     10.998817    -0.015938    Cartesian   -0.14
    132 y          6.608853      6.600245    -0.008608    Cartesian   -0.13
    132 z         -4.405902     -4.403114     0.002788    Cartesian   -0.06
    133 x         11.014756     10.990943    -0.023813    Cartesian   -0.22
    133 y          0.000000      0.002599     0.002599    Cartesian    0.00
    133 z         -6.608853     -6.602871     0.005982    Cartesian   -0.09
    134 x         13.217707     13.238404     0.020697    Cartesian    0.16
    134 y          4.405902      4.411267     0.005364    Cartesian    0.12
    134 z          4.405902      4.411267     0.005364    Cartesian    0.12
    135 x         13.217707     13.212013    -0.005694    Cartesian   -0.04
    135 y         -2.202951     -2.189901     0.013051    Cartesian   -0.59
    135 z         -2.202951     -2.189901     0.013051    Cartesian   -0.59
    136 x          8.811805      8.823411     0.011606    Cartesian    0.13
    136 y          0.000000     -0.005101    -0.005101    Cartesian    0.00
    136 z         -8.811805     -8.834902    -0.023097    Cartesian    0.26
    137 x          8.811805      8.806905    -0.004900    Cartesian   -0.06
    137 y          2.202951      2.203767     0.000816    Cartesian    0.04
    137 z         11.014756     10.995284    -0.019472    Cartesian   -0.18
    138 x          2.202951      2.202951     0.000000    Cartesian    0.00
    138 y          2.202951      2.132910    -0.070041    Cartesian   -3.18
    138 z          2.202951      2.132910    -0.070041    Cartesian   -3.18
    139 x          4.405902      4.632765     0.226863    Cartesian    5.15
    139 y          0.000000     -0.107648    -0.107648    Cartesian    0.00
    139 z          0.000000     -0.107648    -0.107648    Cartesian    0.00
    140 x          2.202951      2.202951     0.000000    Cartesian    0.00
    140 y          2.202951      2.109515    -0.093437    Cartesian   -4.24
    140 z         -2.202951     -2.302806    -0.099855    Cartesian    4.53
    141 x          4.405902      4.530031     0.124128    Cartesian    2.82
    141 y          0.000000     -0.033337    -0.033337    Cartesian    0.00
    141 z          4.405902      4.504318     0.098416    Cartesian    2.23
    142 x          2.202951      2.202951     0.000000    Cartesian    0.00
    142 y         -2.202951     -2.227232    -0.024281    Cartesian    1.10
    142 z         -2.202951     -2.227232    -0.024281    Cartesian    1.10
    143 x          6.608853      6.599968    -0.008885    Cartesian   -0.13
    143 y          2.202951      2.189274    -0.013677    Cartesian   -0.62
    143 z          2.202951      2.189274    -0.013677    Cartesian   -0.62
    144 x          4.405902      4.489044     0.083141    Cartesian    1.89
    144 y          4.405902      4.450235     0.044332    Cartesian    1.01
    144 z          4.405902      4.450235     0.044332    Cartesian    1.01
    145 x          2.202951      2.202951     0.000000    Cartesian    0.00
    145 y          2.202951      2.165568    -0.037383    Cartesian   -1.70
    145 z          6.608853      6.567062    -0.041791    Cartesian   -0.63
    146 x          6.608853      6.594632    -0.014221    Cartesian   -0.22
    146 y          2.202951      2.197762    -0.005189    Cartesian   -0.24
    146 z         -2.202951     -2.202498     0.000453    Cartesian   -0.02
    147 x          4.405902      4.431097     0.025194    Cartesian    0.57
    147 y          0.000000     -0.093368    -0.093368    Cartesian    0.00
    147 z         -4.405902     -4.484455    -0.078553    Cartesian    1.78
    148 x          2.202951      2.202951     0.000000    Cartesian    0.00
    148 y          6.608853      6.546680    -0.062174    Cartesian   -0.94
    148 z         -2.202951     -2.183720     0.019231    Cartesian   -0.87
    149 x          6.608853      6.628191     0.019337    Cartesian    0.29
    149 y         -2.202951     -2.228623    -0.025672    Cartesian    1.17
    149 z         -2.202951     -2.228623    -0.025672    Cartesian    1.17
    150 x          8.811805      8.854440     0.042636    Cartesian    0.48
    150 y          0.000000     -0.004663    -0.004663    Cartesian    0.00
    150 z          0.000000     -0.004663    -0.004663    Cartesian    0.00
    151 x          4.405902      4.453791     0.047888    Cartesian    1.09
    151 y          4.405902      4.436644     0.030741    Cartesian    0.70
    151 z         -4.405902     -4.487453    -0.081550    Cartesian    1.85
    152 x          6.608853      6.608199    -0.000655    Cartesian   -0.01
    152 y          2.202951      2.203006     0.000055    Cartesian    0.00
    152 z          6.608853      6.603455    -0.005399    Cartesian   -0.08
    153 x          8.811805      8.844353     0.032549    Cartesian    0.37
    153 y          0.000000     -0.003483    -0.003483    Cartesian    0.00
    153 z          4.405902      4.399444    -0.006459    Cartesian   -0.15
    154 x          2.202951      2.202951     0.000000    Cartesian    0.00
    154 y          2.202951      2.207714     0.004763    Cartesian    0.22
    154 z         -6.608853     -6.631991    -0.023138    Cartesian    0.35
    155 x          2.202951      2.202951     0.000000    Cartesian    0.00
    155 y          6.608853      6.573243    -0.035610    Cartesian   -0.54
    155 z          6.608853      6.573243    -0.035610    Cartesian   -0.54
    156 x          6.608853      6.614628     0.005774    Cartesian    0.09
    156 y          6.608853      6.608929     0.000075    Cartesian    0.00
    156 z         -2.202951     -2.216567    -0.013616    Cartesian    0.62
    157 x          4.405902      4.402642    -0.003260    Cartesian   -0.07
    157 y          0.000000     -0.007722    -0.007722    Cartesian    0.00
    157 z          8.811805      8.831898     0.020093    Cartesian    0.23
    158 x          4.405902      4.389332    -0.016570    Cartesian   -0.38
    158 y         -4.405902     -4.434129    -0.028227    Cartesian    0.64
    158 z         -4.405902     -4.434129    -0.028227    Cartesian    0.64
    159 x          8.811805      8.844106     0.032301    Cartesian    0.37
    159 y          4.405902      4.406543     0.000641    Cartesian    0.01
    159 z          4.405902      4.406543     0.000641    Cartesian    0.01
    160 x          2.202951      2.202951     0.000000    Cartesian    0.00
    160 y         -2.202951     -2.217258    -0.014307    Cartesian    0.65
    160 z         -6.608853     -6.624616    -0.015762    Cartesian    0.24
    161 x          4.405902      4.406556     0.000653    Cartesian    0.01
    161 y          4.405902      4.403310    -0.002592    Cartesian   -0.06
    161 z          8.811805      8.828765     0.016960    Cartesian    0.19
    162 x          8.811805      8.832695     0.020890    Cartesian    0.24
    162 y          0.000000     -0.007153    -0.007153    Cartesian    0.00
    162 z         -4.405902     -4.419891    -0.013988    Cartesian    0.32
    163 x          6.608853      6.599401    -0.009452    Cartesian   -0.14
    163 y          2.202951      2.196321    -0.006631    Cartesian   -0.30
    163 z         -6.608853     -6.605588     0.003265    Cartesian   -0.05
    164 x          6.608853      6.615615     0.006762    Cartesian    0.10
    164 y          6.608853      6.610843     0.001990    Cartesian    0.03
    164 z          6.608853      6.610843     0.001990    Cartesian    0.03
    165 x         11.014756     11.010839    -0.003917    Cartesian   -0.04
    165 y          2.202951      2.204220     0.001269    Cartesian    0.06
    165 z          2.202951      2.204220     0.001269    Cartesian    0.06
    166 x          8.811805      8.837005     0.025200    Cartesian    0.29
    166 y          4.405902      4.410631     0.004729    Cartesian    0.11
    166 z         -4.405902     -4.415633    -0.009730    Cartesian    0.22
    167 x          2.202951      2.202951     0.000000    Cartesian    0.00
    167 y          6.608853      6.592852    -0.016001    Cartesian   -0.24
    167 z         -6.608853     -6.605805     0.003048    Cartesian   -0.05
    168 x          6.608853      6.616417     0.007564    Cartesian    0.11
    168 y         -2.202951     -2.212508    -0.009556    Cartesian    0.43
    168 z         -6.608853     -6.621486    -0.012632    Cartesian    0.19
    169 x         11.014756     11.008841    -0.005914    Cartesian   -0.05
    169 y          2.202951      2.203233     0.000282    Cartesian    0.01
    169 z         -2.202951     -2.207489    -0.004538    Cartesian    0.21
    170 x          4.405902      4.410921     0.005019    Cartesian    0.11
    170 y          8.811805      8.830298     0.018494    Cartesian    0.21
    170 z         -4.405902     -4.409242    -0.003339    Cartesian    0.08
    171 x          2.202951      2.202951     0.000000    Cartesian    0.00
    171 y          2.202951      2.206943     0.003992    Cartesian    0.18
    171 z         11.014756     11.005537    -0.009219    Cartesian   -0.08
    172 x         11.014756     11.015868     0.001112    Cartesian    0.01
    172 y         -2.202951     -2.204475    -0.001524    Cartesian    0.07
    172 z         -2.202951     -2.204475    -0.001524    Cartesian    0.07
    173 x          4.405902      4.407069     0.001166    Cartesian    0.03
    173 y          0.000000     -0.004262    -0.004262    Cartesian    0.00
    173 z         -8.811805     -8.842197    -0.030393    Cartesian    0.34
    174 x          8.811805      8.825668     0.013863    Cartesian    0.16
    174 y          0.000000     -0.000340    -0.000340    Cartesian    0.00
    174 z          8.811805      8.821994     0.010190    Cartesian    0.12
    175 x          8.811805      8.827713     0.015909    Cartesian    0.18
    175 y         -4.405902     -4.427013    -0.021111    Cartesian    0.48
    175 z         -4.405902     -4.427013    -0.021111    Cartesian    0.48
    176 x          2.202951      2.202951     0.000000    Cartesian    0.00
    176 y         11.014756     11.002233    -0.012522    Cartesian   -0.11
    176 z         -2.202951     -2.214493    -0.011542    Cartesian    0.52
    177 x          6.608853      6.613748     0.004895    Cartesian    0.07
    177 y          6.608853      6.613056     0.004203    Cartesian    0.06
    177 z         -6.608853     -6.613639    -0.004786    Cartesian    0.07
    178 x         11.014756     11.016763     0.002007    Cartesian    0.02
    178 y          2.202951      2.202435    -0.000517    Cartesian   -0.02
    178 z          6.608853      6.605397    -0.003457    Cartesian   -0.05
    179 x          8.811805      8.828701     0.016897    Cartesian    0.19
    179 y          8.811805      8.824582     0.012778    Cartesian    0.15
    179 z          4.405902      4.411319     0.005417    Cartesian    0.12
    180 x          4.405902      4.408069     0.002167    Cartesian    0.05
    180 y          4.405902      4.405297    -0.000606    Cartesian   -0.01
    180 z         -8.811805     -8.837038    -0.025233    Cartesian    0.29
    181 x          2.202951      2.202951     0.000000    Cartesian    0.00
    181 y         -6.608853     -6.618870    -0.010017    Cartesian    0.15
    181 z         -6.608853     -6.618870    -0.010017    Cartesian    0.15
    182 x          6.608853      6.608234    -0.000619    Cartesian   -0.01
    182 y          2.202951      2.201037    -0.001914    Cartesian   -0.09
    182 z         11.014756     11.012669    -0.002087    Cartesian   -0.02
    183 x         11.014756     11.017204     0.002448    Cartesian    0.02
    183 y          6.608853      6.611065     0.002211    Cartesian    0.03
    183 z         -2.202951     -2.202078     0.000874    Cartesian   -0.04
    184 x          4.405902      4.416807     0.010905    Cartesian    0.25
    184 y          8.811805      8.820365     0.008560    Cartesian    0.10
    184 z          8.811805      8.820365     0.008560    Cartesian    0.10
    185 x         13.217707     13.246109     0.028402    Cartesian    0.21
    185 y          0.000000     -0.003149    -0.003149    Cartesian    0.00
    185 z          0.000000     -0.003149    -0.003149    Cartesian    0.00
    186 x          6.608853      6.611637     0.002783    Cartesian    0.04
    186 y         11.014756     11.018337     0.003581    Cartesian    0.03
    186 z         -2.202951     -2.205353    -0.002402    Cartesian    0.11
    187 x          2.202951      2.202951     0.000000    Cartesian    0.00
    187 y          6.608853      6.608672    -0.000182    Cartesian   -0.00
    187 z         11.014756     11.010874    -0.003881    Cartesian   -0.04
    188 x          4.405902      4.410998     0.005095    Cartesian    0.12
    188 y         -4.405902     -4.426396    -0.020493    Cartesian    0.47
    188 z         -8.811805     -8.833643    -0.021838    Cartesian    0.25
    189 x          8.811805      8.829275     0.017470    Cartesian    0.20
    189 y          8.811805      8.829782     0.017978    Cartesian    0.20
    189 z         -4.405902     -4.420144    -0.014242    Cartesian    0.32
    190 x         13.217707     13.242459     0.024752    Cartesian    0.19
    190 y          0.000000     -0.003184    -0.003184    Cartesian    0.00
    190 z          4.405902      4.409994     0.004092    Cartesian    0.09
    191 x          6.608853      6.612093     0.003240    Cartesian    0.05
    191 y         -6.608853     -6.615753    -0.006899    Cartesian    0.10
    191 z         -6.608853     -6.615753    -0.006899    Cartesian    0.10
    192 x         11.014756     11.019653     0.004897    Cartesian    0.04
    192 y          2.202951      2.205550     0.002599    Cartesian    0.12
    192 z         -6.608853     -6.610286    -0.001432    Cartesian    0.02
    193 x         11.014756     11.019921     0.005165    Cartesian    0.05
    193 y          6.608853      6.612557     0.003704    Cartesian    0.06
    193 z          6.608853      6.612557     0.003704    Cartesian    0.06
    194 x         13.217707     13.240590     0.022883    Cartesian    0.17
    194 y          4.405902      4.412169     0.006267    Cartesian    0.14
    194 z          4.405902      4.412169     0.006267    Cartesian    0.14
    195 x          8.811805      8.824682     0.012877    Cartesian    0.15
    195 y          0.000000     -0.006375    -0.006375    Cartesian    0.00
    195 z         -8.811805     -8.838468    -0.026663    Cartesian    0.30
--------------------------------------------------------------------------------


  Time to end of optimisation  =       21.0052 seconds


  Peak dynamic memory used =      82.62 MB 


  Timing analysis for GULP :

--------------------------------------------------------------------------------
  Task / Subroutine                                          Time (Seconds)
--------------------------------------------------------------------------------
  Calculation of reciprocal space energy and derivatives          0.0007
  Calculation of reciprocal space energy using symmetry           0.0011
  Calculation of real space energy and derivatives                0.0038
  Calculation of real space energy using symmetry                 0.0117
  Calculation for region 1 energy and derivatives (2-b)          11.5266
  Calculation for region 2a energy                                7.7403
  Calculation for region 2b energy                                0.0043
  Calculation and manipulation of Hessian matrix                  1.4763
  Calculation of matrix inversion                                 0.1280
  Symmetry generation of equivalent positions                     0.0044
--------------------------------------------------------------------------------
  Total CPU time                                                 21.0053
--------------------------------------------------------------------------------


  Dump file written as Na3OCl.grs


  Job Finished at 13:02.26 26th September  2021                               

