********************************************************************************
*                       GENERAL UTILITY LATTICE PROGRAM                        *
*                                 Julian Gale                                  *
*                       Curtin Institute for Computation                       *
*                    School of Molecular and Life Sciences                     *
*                    Curtin University, Western Australia                      *
********************************************************************************
* Version = 5.2.0 * Last modified =  10th September 2020                       *
********************************************************************************
*  optimise     - perform optimisation run                                     *
*  conp         - constant pressure calculation                                *
*  property     - calculate properties for final geometry                      *
*  defect       - perform defect calculation after bulk run                    *
*  compare      - compare initial and final structures                         *
********************************************************************************

  Job Started  at 13:02.26 26th September  2021                               

  Number of CPUs =     1


  Total number of configurations input =      1

********************************************************************************
*  Input for Configuration =   1                                               *
********************************************************************************

  Formula = ClONa3                                                      

  Number of irreducible atoms/shells =       5


  Total number atoms/shells =       7

  Dimensionality = 3               :  Bulk   


  Symmetry :

  Crystal family                   :  Cubic       
  Crystal class  (Groth - 1921)    :  Cubic Hexakisoctahedral              

  Space group (centrosymmetric)    :  P M 3 M         

  Patterson group                  :  P m -3 m 

  Cartesian lattice vectors (Angstroms) :

        4.504000    0.000000    0.000000
        0.000000    4.504000    0.000000
        0.000000    0.000000    4.504000

  Cell parameters (Angstroms/Degrees):

  a =       4.5040    alpha =  90.0000
  b =       4.5040    beta  =  90.0000
  c =       4.5040    gamma =  90.0000

  Initial cell volume =          91.368216 Angs**3

  Temperature of configuration =   0.00     K 

  Pressure of configuration =         0.000 GPa 

  Fractional coordinates of asymmetric unit :

--------------------------------------------------------------------------------
   No.  Atomic       x           y          z         Charge      Occupancy
        Label      (Frac)      (Frac)     (Frac)        (e)         (Frac)  
--------------------------------------------------------------------------------
      1 Cl    c    0.000000    0.000000    0.000000     1.48500    1.000000    
      2 O     c    0.500000    0.500000    0.500000     0.18300    1.000000    
      3 Na    c    0.500000    0.500000    0.000000     1.00000    1.000000    
      4 Cl    s    0.000000    0.000000    0.000000    -2.48500    1.000000    
      5 O     s    0.500000    0.500000    0.500000    -2.18300    1.000000    
--------------------------------------------------------------------------------


  Constraints : 

--------------------------------------------------------------------------------
  Constraint no.      Unconstrained     Constrained    Coefficient    Offset
                         Variable         Variable
--------------------------------------------------------------------------------
           1              Strain 1        Strain 2       1.00000      0.0000
           2              Strain 1        Strain 3       1.00000      0.0000
--------------------------------------------------------------------------------


********************************************************************************
*  General input information                                                   *
********************************************************************************

  Species output for all configurations : 

--------------------------------------------------------------------------------
  Species    Type    Atomic    Atomic    Charge       Radii (Angs)     Library
                     Number     Mass       (e)     Cova   Ionic  VDW   Symbol
--------------------------------------------------------------------------------
    Na       Core       11      22.99   1.000000   0.970  0.000  2.300          
    O        Core        8      16.00   0.183000   0.730  0.000  1.360          
    O        Shell       8       0.00  -2.183000   0.730  0.000  1.360          
    Cl       Core       17      35.45   1.485000   0.990  0.000  1.650          
    Cl       Shell      17       0.00  -2.485000   0.990  0.000  1.650          
    Mg       Core       12      24.31   0.415000   1.100  0.000  0.000          
    Mg       Shell      12       0.00   1.585000   1.100  0.000  0.000          
    Ca       Core       20      40.08  -1.135000   0.990  0.000  0.000          
    Ca       Shell      20       0.00   3.135000   0.990  0.000  0.000          
    Sr       Core       38      87.62  -1.251000   1.120  0.000  0.000          
    Sr       Shell      38       0.00   3.251000   1.120  0.000  0.000          
    Ba       Core       56     137.33  -7.203000   1.340  0.000  0.000          
    Ba       Shell      56       0.00   9.203000   1.340  0.000  0.000          
    Al       Core       13      26.98   3.000000   1.350  0.000  0.000          
    Ga       Core       31      69.72   3.000000   1.220  0.000  0.000          
--------------------------------------------------------------------------------


  Lattice summation method               =    Ewald          (3-D)
                                         =    Parry          (2-D)
                                         =    Saunders et al (1-D)
  Accuracy factor for lattice sums       =   12.000


  Analytic derivatives to be used

  Time limit = Infinity

  Maximum range for interatomic potentials =    100000.000000 Angstroms

  General interatomic potentials :

--------------------------------------------------------------------------------
Atom  Types   Potential      Parameter       Value         Units   Cutoffs(Ang)
  1     2                                                            Min /  Max 
--------------------------------------------------------------------------------
O    c O    s Spring (c-s)  Spring k 2       593.71600    eV*Ang^-2 0.000  0.800
                            Spring k 4       0.0000000    eV*Ang^-4 
--------------------------------------------------------------------------------
Cl   c Cl   s Spring (c-s)  Spring k 2       29.380000    eV*Ang^-2 0.000  0.800
                            Spring k 4       0.0000000    eV*Ang^-4 
--------------------------------------------------------------------------------
Mg   c Mg   s Spring (c-s)  Spring k 2       361.60000    eV*Ang^-2 0.000  0.800
                            Spring k 4       0.0000000    eV*Ang^-4 
--------------------------------------------------------------------------------
Ca   c Ca   s Spring (c-s)  Spring k 2       110.20000    eV*Ang^-2 0.000  0.800
                            Spring k 4       0.0000000    eV*Ang^-4 
--------------------------------------------------------------------------------
Sr   c Sr   s Spring (c-s)  Spring k 2       71.700000    eV*Ang^-2 0.000  0.800
                            Spring k 4       0.0000000    eV*Ang^-4 
--------------------------------------------------------------------------------
Ba   c Ba   s Spring (c-s)  Spring k 2       495.20000    eV*Ang^-2 0.000  0.800
                            Spring k 4       0.0000000    eV*Ang^-4 
--------------------------------------------------------------------------------
Na   c Na   c Buckingham    Buckingham A     1788.1900    eV        0.000 12.000
                            Buckingham rho  0.15900000    Ang       
                            Buckingham C     0.0000000    eV*Ang^6  
--------------------------------------------------------------------------------
Na   c O    s Buckingham    Buckingham A     588.38000    eV        0.000 12.000
                            Buckingham rho  0.33800000    Ang       
                            Buckingham C     0.0000000    eV*Ang^6  
--------------------------------------------------------------------------------
Na   c Cl   s Buckingham    Buckingham A     1170.4100    eV        0.000 12.000
                            Buckingham rho  0.31500000    Ang       
                            Buckingham C     0.0000000    eV*Ang^6  
--------------------------------------------------------------------------------
O    s O    s Buckingham    Buckingham A     22764.300    eV        0.000 12.000
                            Buckingham rho  0.14900000    Ang       
                            Buckingham C     13.190000    eV*Ang^6  
--------------------------------------------------------------------------------
O    s Cl   s Buckingham    Buckingham A     8286.9100    eV        0.000 12.000
                            Buckingham rho  0.25900000    Ang       
                            Buckingham C     62.200000    eV*Ang^6  
--------------------------------------------------------------------------------
Cl   s Cl   s Buckingham    Buckingham A     1227.2000    eV        0.000 12.000
                            Buckingham rho  0.32100000    Ang       
                            Buckingham C     14.530000    eV*Ang^6  
--------------------------------------------------------------------------------
O    s Mg   s Buckingham    Buckingham A     1428.5000    eV        0.000 12.000
                            Buckingham rho  0.29450000    Ang       
                            Buckingham C     0.0000000    eV*Ang^6  
--------------------------------------------------------------------------------
Mg   s Cl   s Buckingham    Buckingham A     4914.5400    eV        0.000 12.000
                            Buckingham rho  0.25700000    Ang       
                            Buckingham C     0.0000000    eV*Ang^6  
--------------------------------------------------------------------------------
O    s Ca   s Buckingham    Buckingham A     1090.4000    eV        0.000 12.000
                            Buckingham rho  0.34370000    Ang       
                            Buckingham C     0.0000000    eV*Ang^6  
--------------------------------------------------------------------------------
Cl   s Ca   s Buckingham    Buckingham A     2302.0000    eV        0.000 12.000
                            Buckingham rho  0.34020000    Ang       
                            Buckingham C     0.0000000    eV*Ang^6  
--------------------------------------------------------------------------------
O    s Sr   s Buckingham    Buckingham A     959.10000    eV        0.000 12.000
                            Buckingham rho  0.37210000    Ang       
                            Buckingham C     0.0000000    eV*Ang^6  
--------------------------------------------------------------------------------
Cl   s Sr   s Buckingham    Buckingham A     2191.0900    eV        0.000 12.000
                            Buckingham rho  0.34570000    Ang       
                            Buckingham C     0.0000000    eV*Ang^6  
--------------------------------------------------------------------------------
O    s Ba   s Buckingham    Buckingham A     905.70000    eV        0.000 12.000
                            Buckingham rho  0.39760000    Ang       
                            Buckingham C     0.0000000    eV*Ang^6  
--------------------------------------------------------------------------------
Cl   s Ba   s Buckingham    Buckingham A     2704.5500    eV        0.000 12.000
                            Buckingham rho  0.35280000    Ang       
                            Buckingham C     0.0000000    eV*Ang^6  
--------------------------------------------------------------------------------
Al   c O    s Buckingham    Buckingham A     1725.0000    eV        0.000 12.000
                            Buckingham rho  0.28970000    Ang       
                            Buckingham C     0.0000000    eV*Ang^6  
--------------------------------------------------------------------------------
Al   c Cl   s Buckingham    Buckingham A     1736.1200    eV        0.000 12.000
                            Buckingham rho  0.29170000    Ang       
                            Buckingham C     0.0000000    eV*Ang^6  
--------------------------------------------------------------------------------
Ga   c O    s Buckingham    Buckingham A     2901.1200    eV        0.000 12.000
                            Buckingham rho  0.27420000    Ang       
                            Buckingham C     0.0000000    eV*Ang^6  
--------------------------------------------------------------------------------
Ga   c Cl   s Buckingham    Buckingham A     924.20000    eV        0.000 12.000
                            Buckingham rho  0.34280000    Ang       
                            Buckingham C     0.0000000    eV*Ang^6  
--------------------------------------------------------------------------------

********************************************************************************
*  Output for configuration   1                                                *
********************************************************************************


  Components of energy : 

--------------------------------------------------------------------------------
  Interatomic potentials     =           4.94315381 eV    
  Monopole - monopole (real) =         -10.03624526 eV    
  Monopole - monopole (recip)=         -29.53581274 eV    
  Monopole - monopole (total)=         -39.57205800 eV    
--------------------------------------------------------------------------------
  Total lattice energy       =         -34.62890419 eV    
--------------------------------------------------------------------------------
  Total lattice energy       =           -3341.1599 kJ/(mole unit cells)
--------------------------------------------------------------------------------


  Number of variables =        1

  Maximum number of calculations  =          1000
  Maximum Hessian update interval =            10
  Maximum step size               =   1.000000000
  Maximum parameter tolerance     =   0.000010000
  Maximum function  tolerance     =   0.000010000
  Maximum gradient  tolerance     =   0.001000000
  Maximum gradient  component     =   0.010000000

  Symmetry constrained optimisation

  Symmetry used for second derivatives

  Cell parameters to be optimised using strains

  Newton-Raphson optimiser to be used

  BFGS hessian update to be used

  Lower half triangular hessian to be used

  Start of bulk optimisation :

  Cycle:      0 Energy:       -34.628904  Gnorm:      4.328237  CPU:    0.016
  ** Hessian calculated **
  Cycle:      1 Energy:       -34.677667  Gnorm:      0.044008  CPU:    0.019
  Cycle:      2 Energy:       -34.677671  Gnorm:      0.003653  CPU:    0.022


  **** Optimisation achieved ****


  Final energy =     -34.67767136 eV
  Final Gnorm  =       0.00000010

  Components of energy : 

--------------------------------------------------------------------------------
  Interatomic potentials     =           5.77546103 eV    
  Monopole - monopole (real) =         -10.25970290 eV    
  Monopole - monopole (recip)=         -30.19342950 eV    
  Monopole - monopole (total)=         -40.45313239 eV    
--------------------------------------------------------------------------------
  Total lattice energy       =         -34.67767136 eV    
--------------------------------------------------------------------------------
  Total lattice energy       =           -3345.8652 kJ/(mole unit cells)
--------------------------------------------------------------------------------

  Final asymmetric unit coordinates :

--------------------------------------------------------------------------------
   No.  Atomic        x           y           z         Radius
        Label       (Frac)      (Frac)      (Frac)       (Angs) 
--------------------------------------------------------------------------------
     1  Cl    c     0.000000    0.000000    0.000000    0.000000
     2  O     c     0.500000    0.500000    0.500000    0.000000
     3  Na    c     0.500000    0.500000    0.000000    0.000000
     4  Cl    s     0.000000    0.000000    0.000000    0.000000
     5  O     s     0.500000    0.500000    0.500000    0.000000
--------------------------------------------------------------------------------

  Final Cartesian lattice vectors (Angstroms) :

        4.405902    0.000000    0.000000
        0.000000    4.405902    0.000000
        0.000000    0.000000    4.405902


  Final cell parameters and derivatives :

--------------------------------------------------------------------------------
       a            4.405902 Angstrom     dE/de1(xx)     0.000000 eV/strain
       b            4.405902 Angstrom     dE/de2(yy)     0.000000 eV/strain
       c            4.405902 Angstrom     dE/de3(zz)     0.000000 eV/strain
       alpha       90.000000 Degrees      dE/de4(yz)     0.000000 eV/strain
       beta        90.000000 Degrees      dE/de5(xz)     0.000000 eV/strain
       gamma       90.000000 Degrees      dE/de6(xy)     0.000000 eV/strain
--------------------------------------------------------------------------------

  Primitive cell volume =            85.527266 Angs**3

  Density of cell =      2.338030 g/cm**3

  Non-primitive cell volume =            85.527266 Angs**3


  Final internal derivatives :

--------------------------------------------------------------------------------
   No.  Atomic          a             b             c           Radius
        Label          (eV)          (eV)          (eV)        (eV/Angs)
--------------------------------------------------------------------------------
      1 Cl    c       0.000000      0.000000      0.000000      0.000000
      2 O     c       0.000000      0.000000      0.000000      0.000000
      3 Na    c       0.000000      0.000000      0.000000      0.000000
      4 Cl    s       0.000000      0.000000      0.000000      0.000000
      5 O     s       0.000000      0.000000      0.000000      0.000000
--------------------------------------------------------------------------------
  Maximum abs         0.000000      0.000000      0.000000      0.000000
--------------------------------------------------------------------------------

  Comparison of initial and final structures : 

--------------------------------------------------------------------------------
  Parameter   Initial value   Final value   Difference    Units      Percent
--------------------------------------------------------------------------------
    Volume        91.368216     85.527266    -5.840950    Angs**3     -6.39
    a              4.504000      4.405902    -0.098098    Angstroms   -2.18
    b              4.504000      4.405902    -0.098098    Angstroms   -2.18
    c              4.504000      4.405902    -0.098098    Angstroms   -2.18
    alpha         90.000000     90.000000     0.000000    Degrees      0.00
    beta          90.000000     90.000000     0.000000    Degrees      0.00
    gamma         90.000000     90.000000     0.000000    Degrees      0.00
      1 x          0.000000      0.000000     0.000000    Fractional   0.00
      1 y          0.000000      0.000000     0.000000    Fractional   0.00
      1 z          0.000000      0.000000     0.000000    Fractional   0.00
      2 x          0.500000      0.500000     0.000000    Fractional   0.00
      2 y          0.500000      0.500000     0.000000    Fractional   0.00
      2 z          0.500000      0.500000     0.000000    Fractional   0.00
      3 x          0.500000      0.500000     0.000000    Fractional   0.00
      3 y          0.500000      0.500000     0.000000    Fractional   0.00
      3 z          0.000000      0.000000     0.000000    Fractional   0.00
      4 x          0.000000      0.000000     0.000000    Fractional   0.00
      4 y          0.000000      0.000000     0.000000    Fractional   0.00
      4 z          0.000000      0.000000     0.000000    Fractional   0.00
      5 x          0.500000      0.500000     0.000000    Fractional   0.00
      5 y          0.500000      0.500000     0.000000    Fractional   0.00
      5 z          0.500000      0.500000     0.000000    Fractional   0.00
--------------------------------------------------------------------------------


  Born effective charge tensors : 

-------------------------------------------------------------------------------
  Atom             x           y             z
-------------------------------------------------------------------------------
    1 Cl    x      -0.9918     -0.0000     -0.0000
            y      -0.0000     -0.9918     -0.0000
            z      -0.0000     -0.0000     -0.9918
-------------------------------------------------------------------------------
    2 O     x      -2.2939      0.0000      0.0000
            y       0.0000     -2.2939      0.0000
            z       0.0000      0.0000     -2.2939
-------------------------------------------------------------------------------
    3 Na    x       1.2243      0.0000      0.0000
            y       0.0000      1.2243     -0.0000
            z       0.0000      0.0000      0.8372
-------------------------------------------------------------------------------




  Elastic Constant Matrix: (Units=GPa)

-------------------------------------------------------------------------------
  Indices      1         2         3         4         5         6    
-------------------------------------------------------------------------------
       1     82.7680   24.3534   24.3534   -0.0000    0.0000   -0.0000
       2     24.3534   82.7680   24.3534    0.0000   -0.0000   -0.0000
       3     24.3534   24.3534   82.7680    0.0000   -0.0000    0.0000
       4     -0.0000    0.0000    0.0000   24.3534   -0.0000    0.0000
       5      0.0000   -0.0000   -0.0000   -0.0000   24.3534    0.0000
       6     -0.0000   -0.0000    0.0000    0.0000    0.0000   24.3534
-------------------------------------------------------------------------------


  Elastic Compliance Matrix: (Units=1/GPa)

-------------------------------------------------------------------------------
  Indices      1         2         3         4         5         6    
-------------------------------------------------------------------------------
       1    0.013948 -0.003171 -0.003171  0.000000 -0.000000  0.000000
       2   -0.003171  0.013948 -0.003171 -0.000000  0.000000 -0.000000
       3   -0.003171 -0.003171  0.013948 -0.000000  0.000000 -0.000000
       4    0.000000 -0.000000 -0.000000  0.041062  0.000000 -0.000000
       5   -0.000000  0.000000  0.000000  0.000000  0.041062 -0.000000
       6    0.000000 -0.000000 -0.000000 -0.000000 -0.000000  0.041062
-------------------------------------------------------------------------------

  Mechanical properties :

-------------------------------------------------------------------------------
  Convention :                    Reuss         Voigt         Hill
-------------------------------------------------------------------------------
  Bulk  Modulus (GPa)     =      43.82493      43.82493      43.82493
  Shear Modulus (GPa)     =      26.08758      26.29496      26.19127
-------------------------------------------------------------------------------
  Velocity S-wave (km/s)  =       3.34035       3.35360       3.34698
  Velocity P-wave (km/s)  =       5.79842       5.80861       5.80351
-------------------------------------------------------------------------------
  Compressibility (1/GPa) =    0.02281806
-------------------------------------------------------------------------------
  Stress axis :                     x             y             z
-------------------------------------------------------------------------------
  Youngs Moduli (GPa)     =      71.69479      71.69479      71.69479
-------------------------------------------------------------------------------
  Poissons Ratio (x)      =                     0.22734       0.22734
  Poissons Ratio (y)      =       0.22734                     0.22734
  Poissons Ratio (z)      =       0.22734       0.22734
-------------------------------------------------------------------------------


  Piezoelectric Strain Matrix: (Units=C/m**2)

-------------------------------------------------------------------------------
  Indices      1         2         3         4         5         6    
-------------------------------------------------------------------------------
       x    -0.00000  -0.00000  -0.00000  -0.00000   0.00000  -0.00000
       y     0.00000  -0.00000   0.00000   0.00000  -0.00000   0.00000
       z    -0.00000  -0.00000   0.00000  -0.00000   0.00000  -0.00000
-------------------------------------------------------------------------------


  Piezoelectric Stress Matrix: (Units=10**-11 C/N)

-------------------------------------------------------------------------------
  Indices      1         2         3         4         5         6    
-------------------------------------------------------------------------------
       x     0.00000  -0.00000  -0.00000  -0.00000   0.00000  -0.00000
       y     0.00000  -0.00000   0.00000   0.00000  -0.00000   0.00000
       z    -0.00000  -0.00000   0.00000  -0.00000   0.00000  -0.00000
-------------------------------------------------------------------------------


  Static dielectric constant tensor : 

-------------------------------------------------------------------------------
              x         y         z
-------------------------------------------------------------------------------
       x    11.08357   0.00000   0.00000
       y     0.00000  11.08357   0.00000
       z     0.00000   0.00000  11.08357
--------------------------------------------------------------------------------

  High frequency dielectric constant tensor : 

-------------------------------------------------------------------------------
              x         y         z
-------------------------------------------------------------------------------
       x     1.50771   0.00000   0.00000
       y     0.00000   1.50771   0.00000
       z     0.00000   0.00000   1.50771
-------------------------------------------------------------------------------

  Static refractive indices : 

-------------------------------------------------------------------------------
    1 =    3.32920      2 =    3.32920      3 =    3.32920
-------------------------------------------------------------------------------

  High frequency refractive indices : 

-------------------------------------------------------------------------------
    1 =    1.22789      2 =    1.22789      3 =    1.22789
-------------------------------------------------------------------------------


  Time to end of optimisation =       0.0313 seconds

********************************************************************************
*  Defect calculation for configuration   1 :                                  *
********************************************************************************

  Total number of defects =      3

  Total charge on defect  =  -1.00

  Defect centre is at   0.5000   0.2500   0.2500  Frac

  Region 1 radius =  12.0000      Number of ions =    593

  Number of symmetry inequivalent region 1 ions  =    195

  Region 2 radius =  16.0000      Number of ions =    832

  Number of symmetry inequivalent region 2a ions =    242

  Region 2a mode = 4 : screened electrostatics due to region 1 
                       neglect correction to region 1 forces from 2a
                       region 2a displacements based on defects only

  Region 2a ions will only interact with defects in region 1

  Vacancies:

--------------------------------------------------------------------------------
    Specification type     Symbol/Number         x          y          z
--------------------------------------------------------------------------------
    Fractional                               0.500000   0.500000   0.000000
    Fractional                               0.500000   0.000000   0.500000
--------------------------------------------------------------------------------

  Interstitials:

--------------------------------------------------------------------------------
    Specification type     Symbol/Number         x          y          z
--------------------------------------------------------------------------------
    Atom/Fractional         Na               0.500000   0.100000   0.100000
--------------------------------------------------------------------------------


  Symmetry reduced region 1 (Relative to defect centre) :

--------------------------------------------------------------------------------
   No.   Atomic       x            y             z       Radius  Multiplicity   
         Label      (Angs)       (Angs)        (Angs)    (Angs)     
--------------------------------------------------------------------------------
     1  Na    c      0.0000      -0.6609      -0.6609    0.0000     1    Defect
     2  O     c      0.0000       1.1015 *     1.1015    0.0000     1          
     3  Cl    c      2.2030 *    -1.1015 *    -1.1015    0.0000     2          
     4  Na    c      2.2030 *     1.1015 *     1.1015    0.0000     2          
     5  O     c      0.0000       1.1015 *    -3.3044 *  0.0000     2          
     6  Na    c      0.0000       1.1015 *     3.3044 *  0.0000     2          
     7  Na    c      0.0000      -3.3044 *    -1.1015 *  0.0000     2          
     8  Cl    c      2.2030 *    -1.1015 *     3.3044 *  0.0000     4          
     9  Na    c      2.2030 *     1.1015 *    -3.3044 *  0.0000     4          
    10  O     c      0.0000      -3.3044 *    -3.3044    0.0000     1          
    11  Na    c      0.0000      -3.3044 *     3.3044 *  0.0000     2          
    12  O     c      4.4059 *     1.1015 *     1.1015    0.0000     2          
    13  Na    c      4.4059 *     1.1015 *    -1.1015 *  0.0000     4          
    14  Cl    c      2.2030 *     3.3044 *     3.3044    0.0000     2          
    15  Na    c      2.2030 *    -3.3044 *    -3.3044    0.0000     2          
    16  O     c      0.0000       1.1015 *     5.5074 *  0.0000     2          
    17  O     c      4.4059 *     1.1015 *    -3.3044 *  0.0000     4          
    18  Na    c      0.0000       1.1015 *    -5.5074 *  0.0000     2          
    19  Na    c      0.0000       5.5074 *    -1.1015 *  0.0000     2          
    20  Na    c      4.4059 *     1.1015 *     3.3044 *  0.0000     4          
    21  Na    c      4.4059 *    -1.1015 *    -3.3044 *  0.0000     4          
    22  Cl    c      2.2030 *    -1.1015 *    -5.5074 *  0.0000     4          
    23  Na    c      2.2030 *     1.1015 *     5.5074 *  0.0000     4          
    24  O     c      0.0000       5.5074 *    -3.3044 *  0.0000     2          
    25  Na    c      0.0000       5.5074 *     3.3044 *  0.0000     2          
    26  Na    c      0.0000      -3.3044 *    -5.5074 *  0.0000     2          
    27  O     c      4.4059 *    -3.3044 *    -3.3044    0.0000     2          
    28  Na    c      4.4059 *    -3.3044 *     3.3044 *  0.0000     4          
    29  Cl    c      6.6089 *    -1.1015 *    -1.1015    0.0000     2          
    30  Na    c      6.6089 *     1.1015 *     1.1015    0.0000     2          
    31  Cl    c      2.2030 *     3.3044 *    -5.5074 *  0.0000     4          
    32  Na    c      2.2030 *     5.5074 *    -3.3044 *  0.0000     4          
    33  O     c      4.4059 *     1.1015 *     5.5074 *  0.0000     4          
    34  Na    c      4.4059 *     1.1015 *    -5.5074 *  0.0000     4          
    35  Na    c      4.4059 *     5.5074 *    -1.1015 *  0.0000     4          
    36  Cl    c      6.6089 *    -1.1015 *     3.3044 *  0.0000     4          
    37  Na    c      6.6089 *     1.1015 *    -3.3044 *  0.0000     4          
    38  O     c      0.0000       1.1015 *    -7.7103 *  0.0000     2          
    39  O     c      0.0000       5.5074 *     5.5074    0.0000     1          
    40  Na    c      0.0000       1.1015 *     7.7103 *  0.0000     2          
    41  Na    c      0.0000       5.5074 *    -5.5074 *  0.0000     2          
    42  Na    c      0.0000      -7.7103 *    -1.1015 *  0.0000     2          
    43  O     c      4.4059 *     5.5074 *    -3.3044 *  0.0000     4          
    44  Na    c      4.4059 *     5.5074 *     3.3044 *  0.0000     4          
    45  Na    c      4.4059 *    -3.3044 *    -5.5074 *  0.0000     4          
    46  Cl    c      2.2030 *    -1.1015 *     7.7103 *  0.0000     4          
    47  Cl    c      2.2030 *    -5.5074 *    -5.5074    0.0000     2          
    48  Cl    c      6.6089 *     3.3044 *     3.3044    0.0000     2          
    49  Na    c      2.2030 *     1.1015 *    -7.7103 *  0.0000     4          
    50  Na    c      2.2030 *     5.5074 *     5.5074    0.0000     2          
    51  Na    c      6.6089 *    -3.3044 *    -3.3044    0.0000     2          
    52  O     c      0.0000      -3.3044 *    -7.7103 *  0.0000     2          
    53  Na    c      0.0000      -3.3044 *     7.7103 *  0.0000     2          
    54  Na    c      0.0000      -7.7103 *     3.3044 *  0.0000     2          
    55  Cl    c      2.2030 *     3.3044 *     7.7103 *  0.0000     4          
    56  Cl    c      6.6089 *    -1.1015 *    -5.5074 *  0.0000     4          
    57  Na    c      2.2030 *    -3.3044 *    -7.7103 *  0.0000     4          
    58  Na    c      6.6089 *     1.1015 *     5.5074 *  0.0000     4          
    59  O     c      4.4059 *     1.1015 *    -7.7103 *  0.0000     4          
    60  O     c      4.4059 *     5.5074 *     5.5074    0.0000     2          
    61  Na    c      4.4059 *     1.1015 *     7.7103 *  0.0000     4          
    62  Na    c      4.4059 *     5.5074 *    -5.5074 *  0.0000     4          
    63  Na    c      4.4059 *    -1.1015 *    -7.7103 *  0.0000     4          
    64  O     c      8.8118 *     1.1015 *     1.1015    0.0000     2          
    65  Na    c      8.8118 *     1.1015 *    -1.1015 *  0.0000     4          
    66  Cl    c      6.6089 *     3.3044 *    -5.5074 *  0.0000     4          
    67  Na    c      6.6089 *     5.5074 *    -3.3044 *  0.0000     4          
    68  O     c      0.0000       5.5074 *    -7.7103 *  0.0000     2          
    69  O     c      4.4059 *    -3.3044 *    -7.7103 *  0.0000     4          
    70  Na    c      0.0000       5.5074 *     7.7103 *  0.0000     2          
    71  Na    c      0.0000      -7.7103 *    -5.5074 *  0.0000     2          
    72  Na    c      4.4059 *    -3.3044 *     7.7103 *  0.0000     4          
    73  Na    c      4.4059 *     3.3044 *    -7.7103 *  0.0000     4          
    74  O     c      8.8118 *     1.1015 *    -3.3044 *  0.0000     4          
    75  Na    c      8.8118 *     1.1015 *     3.3044 *  0.0000     4          
    76  Na    c      8.8118 *    -3.3044 *    -1.1015 *  0.0000     4          
    77  Cl    c      2.2030 *     7.7103 *    -5.5074 *  0.0000     4          
    78  Na    c      2.2030 *     5.5074 *    -7.7103 *  0.0000     4          
    79  O     c      0.0000       1.1015 *     9.9133 *  0.0000     2          
    80  O     c      8.8118 *    -3.3044 *    -3.3044    0.0000     2          
    81  Na    c      0.0000       1.1015 *    -9.9133 *  0.0000     2          
    82  Na    c      0.0000       9.9133 *    -1.1015 *  0.0000     2          
    83  Na    c      8.8118 *    -3.3044 *     3.3044 *  0.0000     4          
    84  Cl    c      2.2030 *    -1.1015 *    -9.9133 *  0.0000     4          
    85  Cl    c      6.6089 *    -1.1015 *     7.7103 *  0.0000     4          
    86  Cl    c      6.6089 *    -5.5074 *    -5.5074    0.0000     2          
    87  Na    c      2.2030 *     1.1015 *     9.9133 *  0.0000     4          
    88  Na    c      6.6089 *     1.1015 *    -7.7103 *  0.0000     4          
    89  Na    c      6.6089 *     5.5074 *     5.5074    0.0000     2          
    90  O     c      0.0000       9.9133 *    -3.3044 *  0.0000     2          
    91  O     c      4.4059 *     5.5074 *    -7.7103 *  0.0000     4          
    92  O     c      8.8118 *     1.1015 *     5.5074 *  0.0000     4          
    93  Na    c      0.0000       9.9133 *     3.3044 *  0.0000     2          
    94  Na    c      0.0000      -3.3044 *    -9.9133 *  0.0000     2          
    95  Na    c      4.4059 *     5.5074 *     7.7103 *  0.0000     4          
    96  Na    c      4.4059 *    -7.7103 *    -5.5074 *  0.0000     4          
    97  Na    c      8.8118 *     1.1015 *    -5.5074 *  0.0000     4          
    98  Na    c      8.8118 *     5.5074 *    -1.1015 *  0.0000     4          
    99  Cl    c      6.6089 *     7.7103 *     3.3044 *  0.0000     4          
   100  Na    c      6.6089 *    -7.7103 *    -3.3044 *  0.0000     4          
   101  Cl    c      2.2030 *     3.3044 *    -9.9133 *  0.0000     4          
   102  Na    c      2.2030 *     9.9133 *    -3.3044 *  0.0000     4          
   103  O     c      0.0000      -7.7103 *    -7.7103    0.0000     1          
   104  O     c      4.4059 *     1.1015 *     9.9133 *  0.0000     4          
   105  O     c      8.8118 *     5.5074 *    -3.3044 *  0.0000     4          
   106  Na    c      0.0000      -7.7103 *     7.7103 *  0.0000     2          
   107  Na    c      4.4059 *     1.1015 *    -9.9133 *  0.0000     4          
   108  Na    c      4.4059 *     9.9133 *    -1.1015 *  0.0000     4          
   109  Na    c      8.8118 *     5.5074 *     3.3044 *  0.0000     4          
   110  Na    c      8.8118 *    -3.3044 *    -5.5074 *  0.0000     4          
   111  Cl    c      2.2030 *     7.7103 *     7.7103    0.0000     2          
   112  Cl    c     11.0148 *    -1.1015 *    -1.1015    0.0000     2          
   113  Na    c      2.2030 *    -7.7103 *    -7.7103    0.0000     2          
   114  Na    c     11.0148 *     1.1015 *     1.1015    0.0000     2          
   115  O     c      4.4059 *     9.9133 *    -3.3044 *  0.0000     4          
   116  Na    c      4.4059 *     9.9133 *     3.3044 *  0.0000     4          
   117  Na    c      4.4059 *    -9.9133 *    -3.3044 *  0.0000     4          
   118  O     c      0.0000       5.5074 *     9.9133 *  0.0000     2          
   119  Na    c      0.0000       5.5074 *    -9.9133 *  0.0000     2          
   120  Na    c      0.0000       9.9133 *    -5.5074 *  0.0000     2          
   121  Cl    c      2.2030 *    -5.5074 *    -9.9133 *  0.0000     4          
   122  Cl    c      6.6089 *     7.7103 *    -5.5074 *  0.0000     4          
   123  Cl    c     11.0148 *    -1.1015 *     3.3044 *  0.0000     4          
   124  Na    c      2.2030 *     5.5074 *     9.9133 *  0.0000     4          
   125  Na    c      6.6089 *     5.5074 *    -7.7103 *  0.0000     4          
   126  Na    c     11.0148 *     1.1015 *    -3.3044 *  0.0000     4          
   127  O     c      4.4059 *    -7.7103 *    -7.7103    0.0000     2          
   128  O     c      8.8118 *     1.1015 *    -7.7103 *  0.0000     4          
   129  O     c      8.8118 *     5.5074 *     5.5074    0.0000     2          
   130  Na    c      4.4059 *    -7.7103 *     7.7103 *  0.0000     4          
   131  Na    c      8.8118 *     1.1015 *     7.7103 *  0.0000     4          
   132  Na    c      8.8118 *     5.5074 *    -5.5074 *  0.0000     4          
   133  Na    c      8.8118 *    -1.1015 *    -7.7103 *  0.0000     4          
   134  Cl    c     11.0148 *     3.3044 *     3.3044    0.0000     2          
   135  Na    c     11.0148 *    -3.3044 *    -3.3044    0.0000     2          
   136  Cl    c      6.6089 *    -1.1015 *    -9.9133 *  0.0000     4          
   137  Na    c      6.6089 *     1.1015 *     9.9133 *  0.0000     4          
   138  O     s      0.0000       1.1015 *     1.1015    0.0000     1          
   139  Cl    s      2.2030 *    -1.1015 *    -1.1015    0.0000     2          
   140  O     s      0.0000       1.1015 *    -3.3044 *  0.0000     2          
   141  Cl    s      2.2030 *    -1.1015 *     3.3044 *  0.0000     4          
   142  O     s      0.0000      -3.3044 *    -3.3044    0.0000     1          
   143  O     s      4.4059 *     1.1015 *     1.1015    0.0000     2          
   144  Cl    s      2.2030 *     3.3044 *     3.3044    0.0000     2          
   145  O     s      0.0000       1.1015 *     5.5074 *  0.0000     2          
   146  O     s      4.4059 *     1.1015 *    -3.3044 *  0.0000     4          
   147  Cl    s      2.2030 *    -1.1015 *    -5.5074 *  0.0000     4          
   148  O     s      0.0000       5.5074 *    -3.3044 *  0.0000     2          
   149  O     s      4.4059 *    -3.3044 *    -3.3044    0.0000     2          
   150  Cl    s      6.6089 *    -1.1015 *    -1.1015    0.0000     2          
   151  Cl    s      2.2030 *     3.3044 *    -5.5074 *  0.0000     4          
   152  O     s      4.4059 *     1.1015 *     5.5074 *  0.0000     4          
   153  Cl    s      6.6089 *    -1.1015 *     3.3044 *  0.0000     4          
   154  O     s      0.0000       1.1015 *    -7.7103 *  0.0000     2          
   155  O     s      0.0000       5.5074 *     5.5074    0.0000     1          
   156  O     s      4.4059 *     5.5074 *    -3.3044 *  0.0000     4          
   157  Cl    s      2.2030 *    -1.1015 *     7.7103 *  0.0000     4          
   158  Cl    s      2.2030 *    -5.5074 *    -5.5074    0.0000     2          
   159  Cl    s      6.6089 *     3.3044 *     3.3044    0.0000     2          
   160  O     s      0.0000      -3.3044 *    -7.7103 *  0.0000     2          
   161  Cl    s      2.2030 *     3.3044 *     7.7103 *  0.0000     4          
   162  Cl    s      6.6089 *    -1.1015 *    -5.5074 *  0.0000     4          
   163  O     s      4.4059 *     1.1015 *    -7.7103 *  0.0000     4          
   164  O     s      4.4059 *     5.5074 *     5.5074    0.0000     2          
   165  O     s      8.8118 *     1.1015 *     1.1015    0.0000     2          
   166  Cl    s      6.6089 *     3.3044 *    -5.5074 *  0.0000     4          
   167  O     s      0.0000       5.5074 *    -7.7103 *  0.0000     2          
   168  O     s      4.4059 *    -3.3044 *    -7.7103 *  0.0000     4          
   169  O     s      8.8118 *     1.1015 *    -3.3044 *  0.0000     4          
   170  Cl    s      2.2030 *     7.7103 *    -5.5074 *  0.0000     4          
   171  O     s      0.0000       1.1015 *     9.9133 *  0.0000     2          
   172  O     s      8.8118 *    -3.3044 *    -3.3044    0.0000     2          
   173  Cl    s      2.2030 *    -1.1015 *    -9.9133 *  0.0000     4          
   174  Cl    s      6.6089 *    -1.1015 *     7.7103 *  0.0000     4          
   175  Cl    s      6.6089 *    -5.5074 *    -5.5074    0.0000     2          
   176  O     s      0.0000       9.9133 *    -3.3044 *  0.0000     2          
   177  O     s      4.4059 *     5.5074 *    -7.7103 *  0.0000     4          
   178  O     s      8.8118 *     1.1015 *     5.5074 *  0.0000     4          
   179  Cl    s      6.6089 *     7.7103 *     3.3044 *  0.0000     4          
   180  Cl    s      2.2030 *     3.3044 *    -9.9133 *  0.0000     4          
   181  O     s      0.0000      -7.7103 *    -7.7103    0.0000     1          
   182  O     s      4.4059 *     1.1015 *     9.9133 *  0.0000     4          
   183  O     s      8.8118 *     5.5074 *    -3.3044 *  0.0000     4          
   184  Cl    s      2.2030 *     7.7103 *     7.7103    0.0000     2          
   185  Cl    s     11.0148 *    -1.1015 *    -1.1015    0.0000     2          
   186  O     s      4.4059 *     9.9133 *    -3.3044 *  0.0000     4          
   187  O     s      0.0000       5.5074 *     9.9133 *  0.0000     2          
   188  Cl    s      2.2030 *    -5.5074 *    -9.9133 *  0.0000     4          
   189  Cl    s      6.6089 *     7.7103 *    -5.5074 *  0.0000     4          
   190  Cl    s     11.0148 *    -1.1015 *     3.3044 *  0.0000     4          
   191  O     s      4.4059 *    -7.7103 *    -7.7103    0.0000     2          
   192  O     s      8.8118 *     1.1015 *    -7.7103 *  0.0000     4          
   193  O     s      8.8118 *     5.5074 *     5.5074    0.0000     2          
   194  Cl    s     11.0148 *     3.3044 *     3.3044    0.0000     2          
   195  Cl    s      6.6089 *    -1.1015 *    -9.9133 *  0.0000     4          
--------------------------------------------------------------------------------


  Constraints on symmetry reduced coordinates :

--------------------------------------------------------------------------------
  Constraint no.      Unconstrained     Constrained    Coefficient    
                         Variable         Variable
--------------------------------------------------------------------------------
           1                 2 y             2 z         1.00000
           2                 3 y             3 z         1.00000
           3                 4 y             4 z         1.00000
           4                10 y            10 z         1.00000
           5                12 y            12 z         1.00000
           6                14 y            14 z         1.00000
           7                15 y            15 z         1.00000
           8                27 y            27 z         1.00000
           9                29 y            29 z         1.00000
          10                30 y            30 z         1.00000
          11                39 y            39 z         1.00000
          12                47 y            47 z         1.00000
          13                48 y            48 z         1.00000
          14                50 y            50 z         1.00000
          15                51 y            51 z         1.00000
          16                60 y            60 z         1.00000
          17                64 y            64 z         1.00000
          18                80 y            80 z         1.00000
          19                86 y            86 z         1.00000
          20                89 y            89 z         1.00000
          21               103 y           103 z         1.00000
          22               111 y           111 z         1.00000
          23               112 y           112 z         1.00000
          24               113 y           113 z         1.00000
          25               114 y           114 z         1.00000
          26               127 y           127 z         1.00000
          27               129 y           129 z         1.00000
          28               134 y           134 z         1.00000
          29               135 y           135 z         1.00000
          30               138 y           138 z         1.00000
          31               139 y           139 z         1.00000
          32               142 y           142 z         1.00000
          33               143 y           143 z         1.00000
          34               144 y           144 z         1.00000
          35               149 y           149 z         1.00000
          36               150 y           150 z         1.00000
          37               155 y           155 z         1.00000
          38               158 y           158 z         1.00000
          39               159 y           159 z         1.00000
          40               164 y           164 z         1.00000
          41               165 y           165 z         1.00000
          42               172 y           172 z         1.00000
          43               175 y           175 z         1.00000
          44               181 y           181 z         1.00000
          45               184 y           184 z         1.00000
          46               185 y           185 z         1.00000
          47               191 y           191 z         1.00000
          48               193 y           193 z         1.00000
          49               194 y           194 z         1.00000
--------------------------------------------------------------------------------


  Components of defect energy : 

--------------------------------------------------------------------------------
  Region 1 - region 1                   =      9.50287118 eV
  Region 1 - region 2a (unrelaxed)      =     -0.04049415 eV
  Region 1 - 2a (relaxed - correction)  =     -0.27799868 eV
  Region 1 (Total)                      =      9.18437835 eV
  Region 2a                             =      0.13894632 eV
  Region 2b                             =     -0.40845460 eV
--------------------------------------------------------------------------------
  Total defect energy                   =      8.91487008 eV
--------------------------------------------------------------------------------

  Largest displacement in region 2 =   0.0174 Angstroms


  Number of variables =      486

  Maximum number of calculations  =        1000
  Maximum Hessian update interval =          10
  Maximum step size               =   1.0000000
  Maximum parameter tolerance     =   0.0000100
  Maximum function  tolerance     =   0.0000100
  Maximum gradient  tolerance     =   0.0010000

  Symmetry adapted optimisation

  Symmetry to be used for second derivatives

  Newton-Raphson optimiser to be used

  BFGS hessian update to be used

  Lower half triangular hessian to be used

  Start of defect optimisation :

  Cycle:      0 Defect Energy:   8.914870  Gnorm:     0.048372  CPU:    1.964
  ** Hessian calculated **
  Cycle:      1 Defect Energy:   7.019410  Gnorm:     0.032315  CPU:    5.696
  Cycle:      2 Defect Energy:   5.574812  Gnorm:     0.005490  CPU:    8.520
  Cycle:      3 Defect Energy:   5.534663  Gnorm:     0.003758  CPU:    9.158
  Cycle:      4 Defect Energy:   5.507997  Gnorm:     0.002253  CPU:    9.796
  Cycle:      5 Defect Energy:   5.494656  Gnorm:     0.001450  CPU:   10.525
  Cycle:      6 Defect Energy:   5.487191  Gnorm:     0.000844  CPU:   11.148
  Cycle:      7 Defect Energy:   5.484423  Gnorm:     0.000486  CPU:   11.753
  Cycle:      8 Defect Energy:   5.483417  Gnorm:     0.000328  CPU:   12.355
  Cycle:      9 Defect Energy:   5.482921  Gnorm:     0.000203  CPU:   12.957
  Cycle:     10 Defect Energy:   5.482672  Gnorm:     0.000121  CPU:   13.557
  ** Hessian calculated **
  Cycle:     11 Defect Energy:   5.482600  Gnorm:     0.000084  CPU:   15.729
  Cycle:     12 Defect Energy:   5.482566  Gnorm:     0.000059  CPU:   16.322
  Cycle:     13 Defect Energy:   5.482551  Gnorm:     0.000041  CPU:   16.914


  **** Optimisation achieved ****


  Final defect energy  =        5.48254420
  Final defect Gnorm   =        0.00002901

  Components of defect energy : 

--------------------------------------------------------------------------------
  Region 1 - region 1                   =      6.82939815 eV
  Region 1 - region 2a (unrelaxed)      =     -0.82993414 eV
  Region 1 - 2a (relaxed - correction)  =     -0.21887772 eV
  Region 1 (Total)                      =      5.78058629 eV
  Region 2a                             =      0.10946798 eV
  Region 2b                             =     -0.40751007 eV
--------------------------------------------------------------------------------
  Total defect energy                   =      5.48254420 eV
--------------------------------------------------------------------------------

  Largest displacement in region 2 =   0.0174 Angstroms

  Final coordinates of region 1 :

--------------------------------------------------------------------------------
   No.  Atomic        x           y           z          Radius      Charge
        Label       (Angs)      (Angs)      (Angs)       (Angs)       (e) 
--------------------------------------------------------------------------------
     1  Na    c     2.202951    0.440590    0.440590    0.000000    1.000000
     2  O     c     2.202951    2.087457    2.087457    0.000000    0.183000
     3  Cl    c     4.680157   -0.119034   -0.119034    0.000000    1.485000
     4  Cl    c    -0.274255   -0.119034   -0.119034    0.000000    1.485000
     5  Na    c     4.332946    2.025206    2.025206    0.000000    1.000000
     6  Na    c     0.072956    2.025206    2.025206    0.000000    1.000000
     7  O     c     2.202951    2.092734   -2.312134    0.000000    0.183000
     8  O     c     2.202951   -2.312134    2.092734    0.000000    0.183000
     9  Na    c     2.202951    1.870085    4.233049    0.000000    1.000000
    10  Na    c     2.202951    4.233049    1.870085    0.000000    1.000000
    11  Na    c     2.202951   -2.575953   -0.031309    0.000000    1.000000
    12  Na    c     2.202951   -0.031309   -2.575953    0.000000    1.000000
    13  Cl    c     4.520405   -0.038185    4.486240    0.000000    1.485000
    14  Cl    c    -0.114503   -0.038185    4.486240    0.000000    1.485000
    15  Cl    c     4.520405    4.486240   -0.038185    0.000000    1.485000
    16  Cl    c    -0.114503    4.486240   -0.038185    0.000000    1.485000
    17  Na    c     4.340576    2.141762   -1.981112    0.000000    1.000000
    18  Na    c     0.065326    2.141762   -1.981112    0.000000    1.000000
    19  Na    c     4.340576   -1.981112    2.141762    0.000000    1.000000
    20  Na    c     0.065326   -1.981112    2.141762    0.000000    1.000000
    21  O     c     2.202951   -2.227271   -2.227271    0.000000    0.183000
    22  Na    c     2.202951   -1.847777    4.245327    0.000000    1.000000
    23  Na    c     2.202951    4.245327   -1.847777    0.000000    1.000000
    24  O     c     6.597664    2.180821    2.180821    0.000000    0.183000
    25  O     c    -2.191762    2.180821    2.180821    0.000000    0.183000
    26  Na    c     6.693463    2.190221   -0.011803    0.000000    1.000000
    27  Na    c    -2.287561    2.190221   -0.011803    0.000000    1.000000
    28  Na    c     6.693463   -0.011803    2.190221    0.000000    1.000000
    29  Na    c    -2.287561   -0.011803    2.190221    0.000000    1.000000
    30  Cl    c     4.473347    4.435706    4.435706    0.000000    1.485000
    31  Cl    c    -0.067445    4.435706    4.435706    0.000000    1.485000
    32  Na    c     4.420481   -2.189674   -2.189674    0.000000    1.000000
    33  Na    c    -0.014579   -2.189674   -2.189674    0.000000    1.000000
    34  O     c     2.202951    2.159967    6.553806    0.000000    0.183000
    35  O     c     2.202951    6.553806    2.159967    0.000000    0.183000
    36  O     c     6.597318    2.195741   -2.208116    0.000000    0.183000
    37  O     c    -2.191416    2.195741   -2.208116    0.000000    0.183000
    38  O     c     6.597318   -2.208116    2.195741    0.000000    0.183000
    39  O     c    -2.191416   -2.208116    2.195741    0.000000    0.183000
    40  Na    c     2.202951    2.398927   -4.426625    0.000000    1.000000
    41  Na    c     2.202951   -4.426625    2.398927    0.000000    1.000000
    42  Na    c     2.202951    6.712917   -0.011385    0.000000    1.000000
    43  Na    c     2.202951   -0.011385    6.712917    0.000000    1.000000
    44  Na    c     6.508253    2.189744    4.379331    0.000000    1.000000
    45  Na    c    -2.102351    2.189744    4.379331    0.000000    1.000000
    46  Na    c     6.508253    4.379331    2.189744    0.000000    1.000000
    47  Na    c    -2.102351    4.379331    2.189744    0.000000    1.000000
    48  Na    c     6.629638   -0.013464   -2.222215    0.000000    1.000000
    49  Na    c    -2.223736   -0.013464   -2.222215    0.000000    1.000000
    50  Na    c     6.629638   -2.222215   -0.013464    0.000000    1.000000
    51  Na    c    -2.223736   -2.222215   -0.013464    0.000000    1.000000
    52  Cl    c     4.430426   -0.089745   -4.484618    0.000000    1.485000
    53  Cl    c     4.430426   -4.484618   -0.089745    0.000000    1.485000
    54  Cl    c    -0.024524   -0.089745   -4.484618    0.000000    1.485000
    55  Cl    c    -0.024524   -4.484618   -0.089745    0.000000    1.485000
    56  Na    c     4.393335    2.187522    6.541138    0.000000    1.000000
    57  Na    c     4.393335    6.541138    2.187522    0.000000    1.000000
    58  Na    c     0.012568    2.187522    6.541138    0.000000    1.000000
    59  Na    c     0.012568    6.541138    2.187522    0.000000    1.000000
    60  O     c     2.202951    6.541157   -2.186713    0.000000    0.183000
    61  O     c     2.202951   -2.186713    6.541157    0.000000    0.183000
    62  Na    c     2.202951    6.445621    4.348072    0.000000    1.000000
    63  Na    c     2.202951    4.348072    6.445621    0.000000    1.000000
    64  Na    c     2.202951   -2.321525   -4.441247    0.000000    1.000000
    65  Na    c     2.202951   -4.441247   -2.321525    0.000000    1.000000
    66  O     c     6.632022   -2.233230   -2.233230    0.000000    0.183000
    67  O     c    -2.226120   -2.233230   -2.233230    0.000000    0.183000
    68  Na    c     6.569398   -2.198249    4.394460    0.000000    1.000000
    69  Na    c    -2.163496   -2.198249    4.394460    0.000000    1.000000
    70  Na    c     6.569398    4.394460   -2.198249    0.000000    1.000000
    71  Na    c    -2.163496    4.394460   -2.198249    0.000000    1.000000
    72  Cl    c     8.854311   -0.009579   -0.009579    0.000000    1.485000
    73  Cl    c    -4.448409   -0.009579   -0.009579    0.000000    1.485000
    74  Na    c     8.800102    2.262071    2.262071    0.000000    1.000000
    75  Na    c    -4.394199    2.262071    2.262071    0.000000    1.000000
    76  Cl    c     4.445719    4.427293   -4.479588    0.000000    1.485000
    77  Cl    c     4.445719   -4.479588    4.427293    0.000000    1.485000
    78  Cl    c    -0.039817    4.427293   -4.479588    0.000000    1.485000
    79  Cl    c    -0.039817   -4.479588    4.427293    0.000000    1.485000
    80  Na    c     4.398522    6.537574   -2.204378    0.000000    1.000000
    81  Na    c     4.398522   -2.204378    6.537574    0.000000    1.000000
    82  Na    c     0.007380    6.537574   -2.204378    0.000000    1.000000
    83  Na    c     0.007380   -2.204378    6.537574    0.000000    1.000000
    84  O     c     6.604540    2.200600    6.596801    0.000000    0.183000
    85  O     c     6.604540    6.596801    2.200600    0.000000    0.183000
    86  O     c    -2.198638    2.200600    6.596801    0.000000    0.183000
    87  O     c    -2.198638    6.596801    2.200600    0.000000    0.183000
    88  Na    c     6.471528    2.210411   -4.393436    0.000000    1.000000
    89  Na    c    -2.065625    2.210411   -4.393436    0.000000    1.000000
    90  Na    c     6.471528   -4.393436    2.210411    0.000000    1.000000
    91  Na    c    -2.065625   -4.393436    2.210411    0.000000    1.000000
    92  Na    c     6.589520    6.589605   -0.007002    0.000000    1.000000
    93  Na    c    -2.183617    6.589605   -0.007002    0.000000    1.000000
    94  Na    c     6.589520   -0.007002    6.589605    0.000000    1.000000
    95  Na    c    -2.183617   -0.007002    6.589605    0.000000    1.000000
    96  Cl    c     8.840342   -0.007319    4.397662    0.000000    1.485000
    97  Cl    c     8.840342    4.397662   -0.007319    0.000000    1.485000
    98  Cl    c    -4.434440   -0.007319    4.397662    0.000000    1.485000
    99  Cl    c    -4.434440    4.397662   -0.007319    0.000000    1.485000
   100  Na    c     8.799063    2.220647   -2.283529    0.000000    1.000000
   101  Na    c     8.799063   -2.283529    2.220647    0.000000    1.000000
   102  Na    c    -4.393161    2.220647   -2.283529    0.000000    1.000000
   103  Na    c    -4.393161   -2.283529    2.220647    0.000000    1.000000
   104  O     c     2.202951    2.207611   -6.634874    0.000000    0.183000
   105  O     c     2.202951   -6.634874    2.207611    0.000000    0.183000
   106  O     c     2.202951    6.569256    6.569256    0.000000    0.183000
   107  Na    c     2.202951    2.265394    8.780559    0.000000    1.000000
   108  Na    c     2.202951    8.780559    2.265394    0.000000    1.000000
   109  Na    c     2.202951    6.392740   -4.381673    0.000000    1.000000
   110  Na    c     2.202951   -4.381673    6.392740    0.000000    1.000000
   111  Na    c     2.202951   -6.533454   -0.001546    0.000000    1.000000
   112  Na    c     2.202951   -0.001546   -6.533454    0.000000    1.000000
   113  O     c     6.614387    6.607359   -2.218104    0.000000    0.183000
   114  O     c     6.614387   -2.218104    6.607359    0.000000    0.183000
   115  O     c    -2.208485    6.607359   -2.218104    0.000000    0.183000
   116  O     c    -2.208485   -2.218104    6.607359    0.000000    0.183000
   117  Na    c     6.596146    6.584021    4.400103    0.000000    1.000000
   118  Na    c    -2.190243    6.584021    4.400103    0.000000    1.000000
   119  Na    c     6.596146    4.400103    6.584021    0.000000    1.000000
   120  Na    c    -2.190243    4.400103    6.584021    0.000000    1.000000
   121  Na    c     6.591332   -2.214253   -4.420790    0.000000    1.000000
   122  Na    c    -2.185430   -2.214253   -4.420790    0.000000    1.000000
   123  Na    c     6.591332   -4.420790   -2.214253    0.000000    1.000000
   124  Na    c    -2.185430   -4.420790   -2.214253    0.000000    1.000000
   125  Cl    c     4.401994   -0.009653    8.825736    0.000000    1.485000
   126  Cl    c     0.003908   -0.009653    8.825736    0.000000    1.485000
   127  Cl    c     4.401994    8.825736   -0.009653    0.000000    1.485000
   128  Cl    c     0.003908    8.825736   -0.009653    0.000000    1.485000
   129  Cl    c     4.387920   -4.434105   -4.434105    0.000000    1.485000
   130  Cl    c     0.017983   -4.434105   -4.434105    0.000000    1.485000
   131  Cl    c     8.839436    4.404847    4.404847    0.000000    1.485000
   132  Cl    c    -4.433534    4.404847    4.404847    0.000000    1.485000
   133  Na    c     4.398746    2.188325   -6.637358    0.000000    1.000000
   134  Na    c     0.007157    2.188325   -6.637358    0.000000    1.000000
   135  Na    c     4.398746   -6.637358    2.188325    0.000000    1.000000
   136  Na    c     0.007157   -6.637358    2.188325    0.000000    1.000000
   137  Na    c     4.403343    6.575245    6.575245    0.000000    1.000000
   138  Na    c     0.002559    6.575245    6.575245    0.000000    1.000000
   139  Na    c     8.816503   -2.228674   -2.228674    0.000000    1.000000
   140  Na    c    -4.410601   -2.228674   -2.228674    0.000000    1.000000
   141  O     c     2.202951   -2.219683   -6.626863    0.000000    0.183000
   142  O     c     2.202951   -6.626863   -2.219683    0.000000    0.183000
   143  Na    c     2.202951   -2.294861    8.770996    0.000000    1.000000
   144  Na    c     2.202951    8.770996   -2.294861    0.000000    1.000000
   145  Na    c     2.202951   -6.731834    4.404851    0.000000    1.000000
   146  Na    c     2.202951    4.404851   -6.731834    0.000000    1.000000
   147  Cl    c     4.405735    4.400027    8.822010    0.000000    1.485000
   148  Cl    c     0.000167    4.400027    8.822010    0.000000    1.485000
   149  Cl    c     4.405735    8.822010    4.400027    0.000000    1.485000
   150  Cl    c     0.000167    8.822010    4.400027    0.000000    1.485000
   151  Cl    c     8.829710   -0.007578   -4.421060    0.000000    1.485000
   152  Cl    c    -4.423807   -0.007578   -4.421060    0.000000    1.485000
   153  Cl    c     8.829710   -4.421060   -0.007578    0.000000    1.485000
   154  Cl    c    -4.423807   -4.421060   -0.007578    0.000000    1.485000
   155  Na    c     4.409035   -2.186152   -6.618145    0.000000    1.000000
   156  Na    c    -0.003133   -2.186152   -6.618145    0.000000    1.000000
   157  Na    c     4.409035   -6.618145   -2.186152    0.000000    1.000000
   158  Na    c    -0.003133   -6.618145   -2.186152    0.000000    1.000000
   159  Na    c     8.800167    2.198811    6.561073    0.000000    1.000000
   160  Na    c    -4.394264    2.198811    6.561073    0.000000    1.000000
   161  Na    c     8.800167    6.561073    2.198811    0.000000    1.000000
   162  Na    c    -4.394264    6.561073    2.198811    0.000000    1.000000
   163  O     c     6.599394    2.195530   -6.607107    0.000000    0.183000
   164  O     c    -2.193492    2.195530   -6.607107    0.000000    0.183000
   165  O     c     6.599394   -6.607107    2.195530    0.000000    0.183000
   166  O     c    -2.193492   -6.607107    2.195530    0.000000    0.183000
   167  O     c     6.614831    6.608962    6.608962    0.000000    0.183000
   168  O     c    -2.208929    6.608962    6.608962    0.000000    0.183000
   169  Na    c     6.590207    2.201573    8.795034    0.000000    1.000000
   170  Na    c    -2.184304    2.201573    8.795034    0.000000    1.000000
   171  Na    c     6.590207    8.795034    2.201573    0.000000    1.000000
   172  Na    c    -2.184304    8.795034    2.201573    0.000000    1.000000
   173  Na    c     6.606815    6.595567   -4.409562    0.000000    1.000000
   174  Na    c    -2.200913    6.595567   -4.409562    0.000000    1.000000
   175  Na    c     6.606815   -4.409562    6.595567    0.000000    1.000000
   176  Na    c    -2.200913   -4.409562    6.595567    0.000000    1.000000
   177  Na    c     6.620970   -0.004994   -6.589518    0.000000    1.000000
   178  Na    c    -2.215068   -0.004994   -6.589518    0.000000    1.000000
   179  Na    c     6.620970   -6.589518   -0.004994    0.000000    1.000000
   180  Na    c    -2.215068   -6.589518   -0.004994    0.000000    1.000000
   181  O     c    11.009599    2.203705    2.203705    0.000000    0.183000
   182  O     c    -6.603697    2.203705    2.203705    0.000000    0.183000
   183  Na    c    10.946251    2.196845   -0.002320    0.000000    1.000000
   184  Na    c    -6.540348    2.196845   -0.002320    0.000000    1.000000
   185  Na    c    10.946251   -0.002320    2.196845    0.000000    1.000000
   186  Na    c    -6.540348   -0.002320    2.196845    0.000000    1.000000
   187  Cl    c     8.832991    4.409298   -4.416741    0.000000    1.485000
   188  Cl    c     8.832991   -4.416741    4.409298    0.000000    1.485000
   189  Cl    c    -4.427089    4.409298   -4.416741    0.000000    1.485000
   190  Cl    c    -4.427089   -4.416741    4.409298    0.000000    1.485000
   191  Na    c     8.807875    6.600447   -2.198217    0.000000    1.000000
   192  Na    c     8.807875   -2.198217    6.600447    0.000000    1.000000
   193  Na    c    -4.401972    6.600447   -2.198217    0.000000    1.000000
   194  Na    c    -4.401972   -2.198217    6.600447    0.000000    1.000000
   195  O     c     2.202951    6.592926   -6.607450    0.000000    0.183000
   196  O     c     2.202951   -6.607450    6.592926    0.000000    0.183000
   197  O     c     6.616811   -2.213715   -6.623244    0.000000    0.183000
   198  O     c    -2.210909   -2.213715   -6.623244    0.000000    0.183000
   199  O     c     6.616811   -6.623244   -2.213715    0.000000    0.183000
   200  O     c    -2.210909   -6.623244   -2.213715    0.000000    0.183000
   201  Na    c     2.202951    6.552926    8.780118    0.000000    1.000000
   202  Na    c     2.202951    8.780118    6.552926    0.000000    1.000000
   203  Na    c     2.202951   -6.653695   -4.419203    0.000000    1.000000
   204  Na    c     2.202951   -4.419203   -6.653695    0.000000    1.000000
   205  Na    c     6.590098   -2.209491    8.804474    0.000000    1.000000
   206  Na    c    -2.184196   -2.209491    8.804474    0.000000    1.000000
   207  Na    c     6.590098    8.804474   -2.209491    0.000000    1.000000
   208  Na    c    -2.184196    8.804474   -2.209491    0.000000    1.000000
   209  Na    c     6.587434    4.404170   -6.600487    0.000000    1.000000
   210  Na    c    -2.181532    4.404170   -6.600487    0.000000    1.000000
   211  Na    c     6.587434   -6.600487    4.404170    0.000000    1.000000
   212  Na    c    -2.181532   -6.600487    4.404170    0.000000    1.000000
   213  O     c    11.009436    2.203103   -2.208794    0.000000    0.183000
   214  O     c    11.009436   -2.208794    2.203103    0.000000    0.183000
   215  O     c    -6.603534    2.203103   -2.208794    0.000000    0.183000
   216  O     c    -6.603534   -2.208794    2.203103    0.000000    0.183000
   217  Na    c    11.031912    2.196402    4.403770    0.000000    1.000000
   218  Na    c    -6.626009    2.196402    4.403770    0.000000    1.000000
   219  Na    c    11.031912    4.403770    2.196402    0.000000    1.000000
   220  Na    c    -6.626009    4.403770    2.196402    0.000000    1.000000
   221  Na    c    10.987380   -2.198551    0.000520    0.000000    1.000000
   222  Na    c    -6.581478   -2.198551    0.000520    0.000000    1.000000
   223  Na    c    10.987380    0.000520   -2.198551    0.000000    1.000000
   224  Na    c    -6.581478    0.000520   -2.198551    0.000000    1.000000
   225  Cl    c     4.410111    8.824369   -4.409598    0.000000    1.485000
   226  Cl    c     4.410111   -4.409598    8.824369    0.000000    1.485000
   227  Cl    c    -0.004208    8.824369   -4.409598    0.000000    1.485000
   228  Cl    c    -0.004208   -4.409598    8.824369    0.000000    1.485000
   229  Na    c     4.404923    6.607033   -6.582493    0.000000    1.000000
   230  Na    c     4.404923   -6.582493    6.607033    0.000000    1.000000
   231  Na    c     0.000979    6.607033   -6.582493    0.000000    1.000000
   232  Na    c     0.000979   -6.582493    6.607033    0.000000    1.000000
   233  O     c     2.202951    2.206180   11.002539    0.000000    0.183000
   234  O     c     2.202951   11.002539    2.206180    0.000000    0.183000
   235  O     c    11.017227   -2.205572   -2.205572    0.000000    0.183000
   236  O     c    -6.611324   -2.205572   -2.205572    0.000000    0.183000
   237  Na    c     2.202951    2.155288   -8.824371    0.000000    1.000000
   238  Na    c     2.202951   -8.824371    2.155288    0.000000    1.000000
   239  Na    c     2.202951   10.954980   -0.004557    0.000000    1.000000
   240  Na    c     2.202951   -0.004557   10.954980    0.000000    1.000000
   241  Na    c    11.010176   -2.191848    4.405890    0.000000    1.000000
   242  Na    c    -6.604274   -2.191848    4.405890    0.000000    1.000000
   243  Na    c    11.010176    4.405890   -2.191848    0.000000    1.000000
   244  Na    c    -6.604274    4.405890   -2.191848    0.000000    1.000000
   245  Cl    c     4.406963   -0.005201   -8.839570    0.000000    1.485000
   246  Cl    c    -0.001060   -0.005201   -8.839570    0.000000    1.485000
   247  Cl    c     4.406963   -8.839570   -0.005201    0.000000    1.485000
   248  Cl    c    -0.001060   -8.839570   -0.005201    0.000000    1.485000
   249  Cl    c     8.822239   -0.001690    8.818346    0.000000    1.485000
   250  Cl    c     8.822239    8.818346   -0.001690    0.000000    1.485000
   251  Cl    c    -4.416337   -0.001690    8.818346    0.000000    1.485000
   252  Cl    c    -4.416337    8.818346   -0.001690    0.000000    1.485000
   253  Cl    c     8.825906   -4.427475   -4.427475    0.000000    1.485000
   254  Cl    c    -4.420003   -4.427475   -4.427475    0.000000    1.485000
   255  Na    c     4.402109    2.191326   10.999603    0.000000    1.000000
   256  Na    c     0.003793    2.191326   10.999603    0.000000    1.000000
   257  Na    c     4.402109   10.999603    2.191326    0.000000    1.000000
   258  Na    c     0.003793   10.999603    2.191326    0.000000    1.000000
   259  Na    c     8.802598    2.221534   -6.553820    0.000000    1.000000
   260  Na    c     8.802598   -6.553820    2.221534    0.000000    1.000000
   261  Na    c    -4.396695    2.221534   -6.553820    0.000000    1.000000
   262  Na    c    -4.396695   -6.553820    2.221534    0.000000    1.000000
   263  Na    c     8.810997    6.607985    6.607985    0.000000    1.000000
   264  Na    c    -4.405095    6.607985    6.607985    0.000000    1.000000
   265  O     c     2.202951   11.001066   -2.214540    0.000000    0.183000
   266  O     c     2.202951   -2.214540   11.001066    0.000000    0.183000
   267  O     c     6.613547    6.612693   -6.613942    0.000000    0.183000
   268  O     c     6.613547   -6.613942    6.612693    0.000000    0.183000
   269  O     c    -2.207645    6.612693   -6.613942    0.000000    0.183000
   270  O     c    -2.207645   -6.613942    6.612693    0.000000    0.183000
   271  O     c    11.015745    2.201923    6.603857    0.000000    0.183000
   272  O     c    11.015745    6.603857    2.201923    0.000000    0.183000
   273  O     c    -6.609842    2.201923    6.603857    0.000000    0.183000
   274  O     c    -6.609842    6.603857    2.201923    0.000000    0.183000
   275  Na    c     2.202951   11.017217    4.404906    0.000000    1.000000
   276  Na    c     2.202951    4.404906   11.017217    0.000000    1.000000
   277  Na    c     2.202951   -2.174195   -8.814438    0.000000    1.000000
   278  Na    c     2.202951   -8.814438   -2.174195    0.000000    1.000000
   279  Na    c     6.604401    6.605316    8.805721    0.000000    1.000000
   280  Na    c    -2.198498    6.605316    8.805721    0.000000    1.000000
   281  Na    c     6.604401    8.805721    6.605316    0.000000    1.000000
   282  Na    c    -2.198498    8.805721    6.605316    0.000000    1.000000
   283  Na    c     6.608577   -6.619726   -4.410832    0.000000    1.000000
   284  Na    c    -2.202675   -6.619726   -4.410832    0.000000    1.000000
   285  Na    c     6.608577   -4.410832   -6.619726    0.000000    1.000000
   286  Na    c    -2.202675   -4.410832   -6.619726    0.000000    1.000000
   287  Na    c    11.043887    2.205794   -4.406029    0.000000    1.000000
   288  Na    c    -6.637985    2.205794   -4.406029    0.000000    1.000000
   289  Na    c    11.043887   -4.406029    2.205794    0.000000    1.000000
   290  Na    c    -6.637985   -4.406029    2.205794    0.000000    1.000000
   291  Na    c    11.004379    6.614224    0.000716    0.000000    1.000000
   292  Na    c    -6.598477    6.614224    0.000716    0.000000    1.000000
   293  Na    c    11.004379    0.000716    6.614224    0.000000    1.000000
   294  Na    c    -6.598477    0.000716    6.614224    0.000000    1.000000
   295  Cl    c     8.825197    8.821005    4.409792    0.000000    1.485000
   296  Cl    c    -4.419294    8.821005    4.409792    0.000000    1.485000
   297  Cl    c     8.825197    4.409792    8.821005    0.000000    1.485000
   298  Cl    c    -4.419294    4.409792    8.821005    0.000000    1.485000
   299  Na    c     8.813236   -6.600938   -2.216086    0.000000    1.000000
   300  Na    c    -4.407334   -6.600938   -2.216086    0.000000    1.000000
   301  Na    c     8.813236   -2.216086   -6.600938    0.000000    1.000000
   302  Na    c    -4.407334   -2.216086   -6.600938    0.000000    1.000000
   303  Cl    c     4.408780    4.404994   -8.837131    0.000000    1.485000
   304  Cl    c     4.408780   -8.837131    4.404994    0.000000    1.485000
   305  Cl    c    -0.002878    4.404994   -8.837131    0.000000    1.485000
   306  Cl    c    -0.002878   -8.837131    4.404994    0.000000    1.485000
   307  Na    c     4.402973   10.996082   -2.193880    0.000000    1.000000
   308  Na    c     4.402973   -2.193880   10.996082    0.000000    1.000000
   309  Na    c     0.002929   10.996082   -2.193880    0.000000    1.000000
   310  Na    c     0.002929   -2.193880   10.996082    0.000000    1.000000
   311  O     c     2.202951   -6.620088   -6.620088    0.000000    0.183000
   312  O     c     6.607907    2.200666   11.010899    0.000000    0.183000
   313  O     c     6.607907   11.010899    2.200666    0.000000    0.183000
   314  O     c    -2.202004    2.200666   11.010899    0.000000    0.183000
   315  O     c    -2.202004   11.010899    2.200666    0.000000    0.183000
   316  O     c    11.017278    6.610952   -2.202202    0.000000    0.183000
   317  O     c    11.017278   -2.202202    6.610952    0.000000    0.183000
   318  O     c    -6.611376    6.610952   -2.202202    0.000000    0.183000
   319  O     c    -6.611376   -2.202202    6.610952    0.000000    0.183000
   320  Na    c     2.202951   -6.533443    8.795461    0.000000    1.000000
   321  Na    c     2.202951    8.795461   -6.533443    0.000000    1.000000
   322  Na    c     6.622015    2.200292   -8.806555    0.000000    1.000000
   323  Na    c    -2.216113    2.200292   -8.806555    0.000000    1.000000
   324  Na    c     6.622015   -8.806555    2.200292    0.000000    1.000000
   325  Na    c    -2.216113   -8.806555    2.200292    0.000000    1.000000
   326  Na    c     6.608333   11.001108   -0.001151    0.000000    1.000000
   327  Na    c    -2.202431   11.001108   -0.001151    0.000000    1.000000
   328  Na    c     6.608333   -0.001151   11.001108    0.000000    1.000000
   329  Na    c    -2.202431   -0.001151   11.001108    0.000000    1.000000
   330  Na    c    11.002790    6.605054    4.404887    0.000000    1.000000
   331  Na    c    -6.596888    6.605054    4.404887    0.000000    1.000000
   332  Na    c    11.002790    4.404887    6.605054    0.000000    1.000000
   333  Na    c    -6.596888    4.404887    6.605054    0.000000    1.000000
   334  Na    c    11.020974   -2.195598   -4.405375    0.000000    1.000000
   335  Na    c    -6.615072   -2.195598   -4.405375    0.000000    1.000000
   336  Na    c    11.020974   -4.405375   -2.195598    0.000000    1.000000
   337  Na    c    -6.615072   -4.405375   -2.195598    0.000000    1.000000
   338  Cl    c     4.414749    8.817383    8.817383    0.000000    1.485000
   339  Cl    c    -0.008847    8.817383    8.817383    0.000000    1.485000
   340  Cl    c    13.242472   -0.003054   -0.003054    0.000000    1.485000
   341  Cl    c    -8.836570   -0.003054   -0.003054    0.000000    1.485000
   342  Na    c     4.406902   -6.607229   -6.607229    0.000000    1.000000
   343  Na    c    -0.000999   -6.607229   -6.607229    0.000000    1.000000
   344  Na    c    13.210301    2.180866    2.180866    0.000000    1.000000
   345  Na    c    -8.804399    2.180866    2.180866    0.000000    1.000000
   346  O     c     6.611512   11.017835   -2.205467    0.000000    0.183000
   347  O     c    -2.205609   11.017835   -2.205467    0.000000    0.183000
   348  O     c     6.611512   -2.205467   11.017835    0.000000    0.183000
   349  O     c    -2.205609   -2.205467   11.017835    0.000000    0.183000
   350  Na    c     6.596559   11.000076    4.402758    0.000000    1.000000
   351  Na    c    -2.190657   11.000076    4.402758    0.000000    1.000000
   352  Na    c     6.596559    4.402758   11.000076    0.000000    1.000000
   353  Na    c    -2.190657    4.402758   11.000076    0.000000    1.000000
   354  Na    c     6.614304   -8.813994   -2.194735    0.000000    1.000000
   355  Na    c    -2.208402   -8.813994   -2.194735    0.000000    1.000000
   356  Na    c     6.614304   -2.194735   -8.813994    0.000000    1.000000
   357  Na    c    -2.208402   -2.194735   -8.813994    0.000000    1.000000
   358  O     c     2.202951    6.608155   11.009689    0.000000    0.183000
[...]
    115 y         11.014756     11.017835     0.003079    Cartesian    0.03
    115 z         -2.202951     -2.205467    -0.002516    Cartesian    0.11
    116 x          6.608853      6.596559    -0.012294    Cartesian   -0.19
    116 y         11.014756     11.000076    -0.014680    Cartesian   -0.13
    116 z          4.405902      4.402758    -0.003145    Cartesian   -0.07
    117 x          6.608853      6.614304     0.005451    Cartesian    0.08
    117 y         -8.811805     -8.813994    -0.002190    Cartesian    0.02
    117 z         -2.202951     -2.194735     0.008216    Cartesian   -0.37
    118 x          2.202951      2.202951     0.000000    Cartesian    0.00
    118 y          6.608853      6.608155    -0.000699    Cartesian   -0.01
    118 z         11.014756     11.009689    -0.005067    Cartesian   -0.05
    119 x          2.202951      2.202951     0.000000    Cartesian    0.00
    119 y          6.608853      6.650413     0.041560    Cartesian    0.63
    119 z         -8.811805     -8.807062     0.004743    Cartesian   -0.05
    120 x          2.202951      2.202951     0.000000    Cartesian    0.00
    120 y         11.014756     11.022188     0.007432    Cartesian    0.07
    120 z         -4.405902     -4.405952    -0.000049    Cartesian    0.00
    121 x          4.405902      4.410330     0.004428    Cartesian    0.10
    121 y         -4.405902     -4.424779    -0.018877    Cartesian    0.43
    121 z         -8.811805     -8.832199    -0.020394    Cartesian    0.23
    122 x          8.811805      8.827105     0.015300    Cartesian    0.17
    122 y          8.811805      8.827272     0.015468    Cartesian    0.18
    122 z         -4.405902     -4.419346    -0.013444    Cartesian    0.31
    123 x         13.217707     13.239647     0.021940    Cartesian    0.17
    123 y          0.000000     -0.003101    -0.003101    Cartesian    0.00
    123 z          4.405902      4.408789     0.002886    Cartesian    0.07
    124 x          4.405902      4.402900    -0.003002    Cartesian   -0.07
    124 y          6.608853      6.606957    -0.001896    Cartesian   -0.03
    124 z         11.014756     10.989755    -0.025000    Cartesian   -0.23
    125 x          8.811805      8.809415    -0.002390    Cartesian   -0.03
    125 y          6.608853      6.601947    -0.006907    Cartesian   -0.10
    125 z         -6.608853     -6.604175     0.004678    Cartesian   -0.07
    126 x         13.217707     13.209926    -0.007781    Cartesian   -0.06
    126 y          2.202951      2.197522    -0.005430    Cartesian   -0.25
    126 z         -2.202951     -2.175024     0.027927    Cartesian   -1.27
    127 x          6.608853      6.611868     0.003015    Cartesian    0.05
    127 y         -6.608853     -6.615921    -0.007068    Cartesian    0.11
    127 z         -6.608853     -6.615921    -0.007068    Cartesian    0.11
    128 x         11.014756     11.020037     0.005281    Cartesian    0.05
    128 y          2.202951      2.205381     0.002430    Cartesian    0.11
    128 z         -6.608853     -6.610537    -0.001684    Cartesian    0.03
    129 x         11.014756     11.019532     0.004777    Cartesian    0.04
    129 y          6.608853      6.612322     0.003469    Cartesian    0.05
    129 z          6.608853      6.612322     0.003469    Cartesian    0.05
    130 x          6.608853      6.604582    -0.004272    Cartesian   -0.06
    130 y         -6.608853     -6.598266     0.010588    Cartesian   -0.16
    130 z          8.811805      8.809350    -0.002455    Cartesian   -0.03
    131 x         11.014756     10.989864    -0.024892    Cartesian   -0.23
    131 y          2.202951      2.204817     0.001866    Cartesian    0.08
    131 z          8.811805      8.804933    -0.006872    Cartesian   -0.08
    132 x         11.014756     10.998757    -0.015999    Cartesian   -0.15
    132 y          6.608853      6.600258    -0.008595    Cartesian   -0.13
    132 z         -4.405902     -4.403066     0.002836    Cartesian   -0.06
    133 x         11.014756     10.990289    -0.024467    Cartesian   -0.22
    133 y          0.000000      0.002618     0.002618    Cartesian    0.00
    133 z         -6.608853     -6.603194     0.005660    Cartesian   -0.09
    134 x         13.217707     13.238453     0.020746    Cartesian    0.16
    134 y          4.405902      4.410510     0.004608    Cartesian    0.10
    134 z          4.405902      4.410510     0.004608    Cartesian    0.10
    135 x         13.217707     13.212654    -0.005053    Cartesian   -0.04
    135 y         -2.202951     -2.188739     0.014212    Cartesian   -0.65
    135 z         -2.202951     -2.188739     0.014212    Cartesian   -0.65
    136 x          8.811805      8.823046     0.011242    Cartesian    0.13
    136 y          0.000000     -0.005547    -0.005547    Cartesian    0.00
    136 z         -8.811805     -8.835492    -0.023687    Cartesian    0.27
    137 x          8.811805      8.806342    -0.005463    Cartesian   -0.06
    137 y          2.202951      2.204019     0.001068    Cartesian    0.05
    137 z         11.014756     10.993972    -0.020784    Cartesian   -0.19
    138 x          2.202951      2.202951     0.000000    Cartesian    0.00
    138 y          2.202951      2.087642    -0.115309    Cartesian   -5.23
    138 z          2.202951      2.087642    -0.115309    Cartesian   -5.23
    139 x          4.405902      4.664093     0.258191    Cartesian    5.86
    139 y          0.000000     -0.117166    -0.117166    Cartesian    0.00
    139 z          0.000000     -0.117166    -0.117166    Cartesian    0.00
    140 x          2.202951      2.202951     0.000000    Cartesian    0.00
    140 y          2.202951      2.092729    -0.110222    Cartesian   -5.00
    140 z         -2.202951     -2.312432    -0.109481    Cartesian    4.97
    141 x          4.405902      4.528139     0.122237    Cartesian    2.77
    141 y          0.000000     -0.044570    -0.044570    Cartesian    0.00
    141 z          4.405902      4.498983     0.093081    Cartesian    2.11
    142 x          2.202951      2.202951     0.000000    Cartesian    0.00
    142 y         -2.202951     -2.227343    -0.024392    Cartesian    1.11
    142 z         -2.202951     -2.227343    -0.024392    Cartesian    1.11
    143 x          6.608853      6.597741    -0.011112    Cartesian   -0.17
    143 y          2.202951      2.180810    -0.022141    Cartesian   -1.01
    143 z          2.202951      2.180810    -0.022141    Cartesian   -1.01
    144 x          4.405902      4.485562     0.079660    Cartesian    1.81
    144 y          4.405902      4.447454     0.041551    Cartesian    0.94
    144 z          4.405902      4.447454     0.041551    Cartesian    0.94
    145 x          2.202951      2.202951     0.000000    Cartesian    0.00
    145 y          2.202951      2.159945    -0.043006    Cartesian   -1.95
    145 z          6.608853      6.553915    -0.054938    Cartesian   -0.83
    146 x          6.608853      6.597383    -0.011470    Cartesian   -0.17
    146 y          2.202951      2.195752    -0.007200    Cartesian   -0.33
    146 z         -2.202951     -2.208109    -0.005158    Cartesian    0.23
    147 x          4.405902      4.429620     0.023718    Cartesian    0.54
    147 y          0.000000     -0.099937    -0.099937    Cartesian    0.00
    147 z         -4.405902     -4.490283    -0.084380    Cartesian    1.92
    148 x          2.202951      2.202951     0.000000    Cartesian    0.00
    148 y          6.608853      6.541247    -0.067606    Cartesian   -1.02
    148 z         -2.202951     -2.186675     0.016276    Cartesian   -0.74
    149 x          6.608853      6.632039     0.023186    Cartesian    0.35
    149 y         -2.202951     -2.233254    -0.030302    Cartesian    1.38
    149 z         -2.202951     -2.233254    -0.030302    Cartesian    1.38
    150 x          8.811805      8.859528     0.047723    Cartesian    0.54
    150 y          0.000000     -0.009112    -0.009112    Cartesian    0.00
    150 z          0.000000     -0.009112    -0.009112    Cartesian    0.00
    151 x          4.405902      4.450824     0.044922    Cartesian    1.02
    151 y          4.405902      4.432623     0.026721    Cartesian    0.61
    151 z         -4.405902     -4.490155    -0.084253    Cartesian    1.91
    152 x          6.608853      6.604536    -0.004317    Cartesian   -0.07
    152 y          2.202951      2.200605    -0.002346    Cartesian   -0.11
    152 z          6.608853      6.596806    -0.012047    Cartesian   -0.18
    153 x          8.811805      8.844960     0.033155    Cartesian    0.38
    153 y          0.000000     -0.007680    -0.007680    Cartesian    0.00
    153 z          4.405902      4.396365    -0.009538    Cartesian   -0.22
    154 x          2.202951      2.202951     0.000000    Cartesian    0.00
    154 y          2.202951      2.207641     0.004689    Cartesian    0.21
    154 z         -6.608853     -6.634907    -0.026054    Cartesian    0.39
    155 x          2.202951      2.202951     0.000000    Cartesian    0.00
    155 y          6.608853      6.569251    -0.039603    Cartesian   -0.60
    155 z          6.608853      6.569251    -0.039603    Cartesian   -0.60
    156 x          6.608853      6.614397     0.005543    Cartesian    0.08
    156 y          6.608853      6.607359    -0.001495    Cartesian   -0.02
    156 z         -2.202951     -2.218116    -0.015165    Cartesian    0.69
    157 x          4.405902      4.401440    -0.004462    Cartesian   -0.10
    157 y          0.000000     -0.009980    -0.009980    Cartesian    0.00
    157 z          8.811805      8.829052     0.017247    Cartesian    0.20
    158 x          4.405902      4.383348    -0.022554    Cartesian   -0.51
    158 y         -4.405902     -4.434472    -0.028570    Cartesian    0.65
    158 z         -4.405902     -4.434472    -0.028570    Cartesian    0.65
    159 x          8.811805      8.844466     0.032662    Cartesian    0.37
    159 y          4.405902      4.404750    -0.001152    Cartesian   -0.03
    159 z          4.405902      4.404750    -0.001152    Cartesian   -0.03
    160 x          2.202951      2.202951     0.000000    Cartesian    0.00
    160 y         -2.202951     -2.219706    -0.016755    Cartesian    0.76
    160 z         -6.608853     -6.626850    -0.017996    Cartesian    0.27
    161 x          4.405902      4.406418     0.000516    Cartesian    0.01
    161 y          4.405902      4.400503    -0.005400    Cartesian   -0.12
    161 z          8.811805      8.826979     0.015174    Cartesian    0.17
    162 x          8.811805      8.833073     0.021268    Cartesian    0.24
    162 y          0.000000     -0.008682    -0.008682    Cartesian    0.00
    162 z         -4.405902     -4.422300    -0.016398    Cartesian    0.37
    163 x          6.608853      6.599375    -0.009479    Cartesian   -0.14
    163 y          2.202951      2.195528    -0.007424    Cartesian   -0.34
    163 z         -6.608853     -6.607120     0.001733    Cartesian   -0.03
    164 x          6.608853      6.614839     0.005986    Cartesian    0.09
    164 y          6.608853      6.608966     0.000112    Cartesian    0.00
    164 z          6.608853      6.608966     0.000112    Cartesian    0.00
    165 x         11.014756     11.009597    -0.005159    Cartesian   -0.05
    165 y          2.202951      2.203717     0.000766    Cartesian    0.03
    165 z          2.202951      2.203717     0.000766    Cartesian    0.03
    166 x          8.811805      8.837267     0.025463    Cartesian    0.29
    166 y          4.405902      4.409620     0.003718    Cartesian    0.08
    166 z         -4.405902     -4.418183    -0.012281    Cartesian    0.28
    167 x          2.202951      2.202951     0.000000    Cartesian    0.00
    167 y          6.608853      6.592895    -0.015959    Cartesian   -0.24
    167 z         -6.608853     -6.607491     0.001362    Cartesian   -0.02
    168 x          6.608853      6.616819     0.007966    Cartesian    0.12
    168 y         -2.202951     -2.213721    -0.010770    Cartesian    0.49
    168 z         -6.608853     -6.623247    -0.014393    Cartesian    0.22
    169 x         11.014756     11.009440    -0.005316    Cartesian   -0.05
    169 y          2.202951      2.203104     0.000153    Cartesian    0.01
    169 z         -2.202951     -2.208808    -0.005856    Cartesian    0.27
    170 x          4.405902      4.410793     0.004891    Cartesian    0.11
    170 y          8.811805      8.828708     0.016903    Cartesian    0.19
    170 z         -4.405902     -4.410777    -0.004874    Cartesian    0.11
    171 x          2.202951      2.202951     0.000000    Cartesian    0.00
    171 y          2.202951      2.206198     0.003247    Cartesian    0.15
    171 z         11.014756     11.002541    -0.012215    Cartesian   -0.11
    172 x         11.014756     11.017224     0.002468    Cartesian    0.02
    172 y         -2.202951     -2.205578    -0.002627    Cartesian    0.12
    172 z         -2.202951     -2.205578    -0.002627    Cartesian    0.12
    173 x          4.405902      4.406229     0.000326    Cartesian    0.01
    173 y          0.000000     -0.005395    -0.005395    Cartesian    0.00
    173 z         -8.811805     -8.842917    -0.031112    Cartesian    0.35
    174 x          8.811805      8.824892     0.013087    Cartesian    0.15
    174 y          0.000000     -0.001629    -0.001629    Cartesian    0.00
    174 z          8.811805      8.820416     0.008611    Cartesian    0.10
    175 x          8.811805      8.827546     0.015742    Cartesian    0.18
    175 y         -4.405902     -4.429258    -0.023356    Cartesian    0.53
    175 z         -4.405902     -4.429258    -0.023356    Cartesian    0.53
    176 x          2.202951      2.202951     0.000000    Cartesian    0.00
    176 y         11.014756     11.001077    -0.013679    Cartesian   -0.12
    176 z         -2.202951     -2.214566    -0.011615    Cartesian    0.53
    177 x          6.608853      6.613554     0.004701    Cartesian    0.07
    177 y          6.608853      6.612701     0.003847    Cartesian    0.06
    177 z         -6.608853     -6.613938    -0.005084    Cartesian    0.08
    178 x         11.014756     11.015755     0.000999    Cartesian    0.01
    178 y          2.202951      2.201920    -0.001031    Cartesian   -0.05
    178 z          6.608853      6.603851    -0.005002    Cartesian   -0.08
    179 x          8.811805      8.827925     0.016120    Cartesian    0.18
    179 y          8.811805      8.823358     0.011553    Cartesian    0.13
    179 z          4.405902      4.410429     0.004527    Cartesian    0.10
    180 x          4.405902      4.408092     0.002190    Cartesian    0.05
    180 y          4.405902      4.404549    -0.001354    Cartesian   -0.03
    180 z         -8.811805     -8.837833    -0.026029    Cartesian    0.30
    181 x          2.202951      2.202951     0.000000    Cartesian    0.00
    181 y         -6.608853     -6.620099    -0.011245    Cartesian    0.17
    181 z         -6.608853     -6.620099    -0.011245    Cartesian    0.17
    182 x          6.608853      6.607911    -0.000943    Cartesian   -0.01
    182 y          2.202951      2.200665    -0.002286    Cartesian   -0.10
    182 z         11.014756     11.010901    -0.003855    Cartesian   -0.03
    183 x         11.014756     11.017281     0.002526    Cartesian    0.02
    183 y          6.608853      6.610953     0.002100    Cartesian    0.03
    183 z         -2.202951     -2.202202     0.000749    Cartesian   -0.03
    184 x          4.405902      4.417542     0.011640    Cartesian    0.26
    184 y          8.811805      8.819528     0.007724    Cartesian    0.09
    184 z          8.811805      8.819528     0.007724    Cartesian    0.09
    185 x         13.217707     13.247293     0.029586    Cartesian    0.22
    185 y          0.000000     -0.003659    -0.003659    Cartesian    0.00
    185 z          0.000000     -0.003659    -0.003659    Cartesian    0.00
    186 x          6.608853      6.611516     0.002663    Cartesian    0.04
    186 y         11.014756     11.017842     0.003087    Cartesian    0.03
    186 z         -2.202951     -2.205469    -0.002518    Cartesian    0.11
    187 x          2.202951      2.202951     0.000000    Cartesian    0.00
    187 y          6.608853      6.608145    -0.000708    Cartesian   -0.01
    187 z         11.014756     11.009709    -0.005047    Cartesian   -0.05
    188 x          4.405902      4.410469     0.004567    Cartesian    0.10
    188 y         -4.405902     -4.427569    -0.021667    Cartesian    0.49
    188 z         -8.811805     -8.833727    -0.021922    Cartesian    0.25
    189 x          8.811805      8.829094     0.017290    Cartesian    0.20
    189 y          8.811805      8.829186     0.017382    Cartesian    0.20
    189 z         -4.405902     -4.421260    -0.015358    Cartesian    0.35
    190 x         13.217707     13.242705     0.024998    Cartesian    0.19
    190 y          0.000000     -0.003519    -0.003519    Cartesian    0.00
    190 z          4.405902      4.409501     0.003599    Cartesian    0.08
    191 x          6.608853      6.611872     0.003019    Cartesian    0.05
    191 y         -6.608853     -6.615928    -0.007075    Cartesian    0.11
    191 z         -6.608853     -6.615928    -0.007075    Cartesian    0.11
    192 x         11.014756     11.020058     0.005302    Cartesian    0.05
    192 y          2.202951      2.205386     0.002435    Cartesian    0.11
    192 z         -6.608853     -6.610530    -0.001676    Cartesian    0.03
    193 x         11.014756     11.019537     0.004781    Cartesian    0.04
    193 y          6.608853      6.612328     0.003475    Cartesian    0.05
    193 z          6.608853      6.612328     0.003475    Cartesian    0.05
    194 x         13.217707     13.240610     0.022903    Cartesian    0.17
    194 y          4.405902      4.411323     0.005420    Cartesian    0.12
    194 z          4.405902      4.411323     0.005420    Cartesian    0.12
    195 x          8.811805      8.824188     0.012383    Cartesian    0.14
    195 y          0.000000     -0.006887    -0.006887    Cartesian    0.00
    195 z         -8.811805     -8.839091    -0.027287    Cartesian    0.31
--------------------------------------------------------------------------------


  Time to end of optimisation  =       17.5232 seconds


  Peak dynamic memory used =      82.62 MB 


  Timing analysis for GULP :

--------------------------------------------------------------------------------
  Task / Subroutine                                          Time (Seconds)
--------------------------------------------------------------------------------
  Calculation of reciprocal space energy and derivatives          0.0007
  Calculation of reciprocal space energy using symmetry           0.0011
  Calculation of real space energy and derivatives                0.0038
  Calculation of real space energy using symmetry                 0.0113
  Calculation for region 1 energy and derivatives (2-b)           9.1110
  Calculation for region 2a energy                                6.6271
  Calculation for region 2b energy                                0.0036
  Calculation and manipulation of Hessian matrix                  1.5247
  Calculation of matrix inversion                                 0.1313
  Symmetry generation of equivalent positions                     0.0045
--------------------------------------------------------------------------------
  Total CPU time                                                 17.5233
--------------------------------------------------------------------------------


  Dump file written as Na3OCl.grs


  Job Finished at 13:02.44 26th September  2021                               

