********************************************************************************
*                       GENERAL UTILITY LATTICE PROGRAM                        *
*                                 Julian Gale                                  *
*                       Curtin Institute for Computation                       *
*                    School of Molecular and Life Sciences                     *
*                    Curtin University, Western Australia                      *
********************************************************************************
* Version = 5.2.0 * Last modified =  10th September 2020                       *
********************************************************************************
*  optimise     - perform optimisation run                                     *
*  conp         - constant pressure calculation                                *
*  property     - calculate properties for final geometry                      *
*  defect       - perform defect calculation after bulk run                    *
*  compare      - compare initial and final structures                         *
********************************************************************************

  Job Started  at 13:02.44 26th September  2021                               

  Number of CPUs =     1


  Total number of configurations input =      1

********************************************************************************
*  Input for Configuration =   1                                               *
********************************************************************************

  Formula = ClONa3                                                      

  Number of irreducible atoms/shells =       5


  Total number atoms/shells =       7

  Dimensionality = 3               :  Bulk   


  Symmetry :

  Crystal family                   :  Cubic       
  Crystal class  (Groth - 1921)    :  Cubic Hexakisoctahedral              

  Space group (centrosymmetric)    :  P M 3 M         

  Patterson group                  :  P m -3 m 

  Cartesian lattice vectors (Angstroms) :

        4.504000    0.000000    0.000000
        0.000000    4.504000    0.000000
        0.000000    0.000000    4.504000

  Cell parameters (Angstroms/Degrees):

  a =       4.5040    alpha =  90.0000
  b =       4.5040    beta  =  90.0000
  c =       4.5040    gamma =  90.0000

  Initial cell volume =          91.368216 Angs**3

  Temperature of configuration =   0.00     K 

  Pressure of configuration =         0.000 GPa 

  Fractional coordinates of asymmetric unit :

--------------------------------------------------------------------------------
   No.  Atomic       x           y          z         Charge      Occupancy
        Label      (Frac)      (Frac)     (Frac)        (e)         (Frac)  
--------------------------------------------------------------------------------
      1 Cl    c    0.000000    0.000000    0.000000     1.48500    1.000000    
      2 O     c    0.500000    0.500000    0.500000     0.18300    1.000000    
      3 Na    c    0.500000    0.500000    0.000000     1.00000    1.000000    
      4 Cl    s    0.000000    0.000000    0.000000    -2.48500    1.000000    
      5 O     s    0.500000    0.500000    0.500000    -2.18300    1.000000    
--------------------------------------------------------------------------------


  Constraints : 

--------------------------------------------------------------------------------
  Constraint no.      Unconstrained     Constrained    Coefficient    Offset
                         Variable         Variable
--------------------------------------------------------------------------------
           1              Strain 1        Strain 2       1.00000      0.0000
           2              Strain 1        Strain 3       1.00000      0.0000
--------------------------------------------------------------------------------


********************************************************************************
*  General input information                                                   *
********************************************************************************

  Species output for all configurations : 

--------------------------------------------------------------------------------
  Species    Type    Atomic    Atomic    Charge       Radii (Angs)     Library
                     Number     Mass       (e)     Cova   Ionic  VDW   Symbol
--------------------------------------------------------------------------------
    Na       Core       11      22.99   1.000000   0.970  0.000  2.300          
    O        Core        8      16.00   0.183000   0.730  0.000  1.360          
    O        Shell       8       0.00  -2.183000   0.730  0.000  1.360          
    Cl       Core       17      35.45   1.485000   0.990  0.000  1.650          
    Cl       Shell      17       0.00  -2.485000   0.990  0.000  1.650          
    Mg       Core       12      24.31   0.415000   1.100  0.000  0.000          
    Mg       Shell      12       0.00   1.585000   1.100  0.000  0.000          
    Ca       Core       20      40.08  -1.135000   0.990  0.000  0.000          
    Ca       Shell      20       0.00   3.135000   0.990  0.000  0.000          
    Sr       Core       38      87.62  -1.251000   1.120  0.000  0.000          
    Sr       Shell      38       0.00   3.251000   1.120  0.000  0.000          
    Ba       Core       56     137.33  -7.203000   1.340  0.000  0.000          
    Ba       Shell      56       0.00   9.203000   1.340  0.000  0.000          
    Al       Core       13      26.98   3.000000   1.350  0.000  0.000          
    Ga       Core       31      69.72   3.000000   1.220  0.000  0.000          
--------------------------------------------------------------------------------


  Lattice summation method               =    Ewald          (3-D)
                                         =    Parry          (2-D)
                                         =    Saunders et al (1-D)
  Accuracy factor for lattice sums       =   12.000


  Analytic derivatives to be used

  Time limit = Infinity

  Maximum range for interatomic potentials =    100000.000000 Angstroms

  General interatomic potentials :

--------------------------------------------------------------------------------
Atom  Types   Potential      Parameter       Value         Units   Cutoffs(Ang)
  1     2                                                            Min /  Max 
--------------------------------------------------------------------------------
O    c O    s Spring (c-s)  Spring k 2       593.71600    eV*Ang^-2 0.000  0.800
                            Spring k 4       0.0000000    eV*Ang^-4 
--------------------------------------------------------------------------------
Cl   c Cl   s Spring (c-s)  Spring k 2       29.380000    eV*Ang^-2 0.000  0.800
                            Spring k 4       0.0000000    eV*Ang^-4 
--------------------------------------------------------------------------------
Mg   c Mg   s Spring (c-s)  Spring k 2       361.60000    eV*Ang^-2 0.000  0.800
                            Spring k 4       0.0000000    eV*Ang^-4 
--------------------------------------------------------------------------------
Ca   c Ca   s Spring (c-s)  Spring k 2       110.20000    eV*Ang^-2 0.000  0.800
                            Spring k 4       0.0000000    eV*Ang^-4 
--------------------------------------------------------------------------------
Sr   c Sr   s Spring (c-s)  Spring k 2       71.700000    eV*Ang^-2 0.000  0.800
                            Spring k 4       0.0000000    eV*Ang^-4 
--------------------------------------------------------------------------------
Ba   c Ba   s Spring (c-s)  Spring k 2       495.20000    eV*Ang^-2 0.000  0.800
                            Spring k 4       0.0000000    eV*Ang^-4 
--------------------------------------------------------------------------------
Na   c Na   c Buckingham    Buckingham A     1788.1900    eV        0.000 12.000
                            Buckingham rho  0.15900000    Ang       
                            Buckingham C     0.0000000    eV*Ang^6  
--------------------------------------------------------------------------------
Na   c O    s Buckingham    Buckingham A     588.38000    eV        0.000 12.000
                            Buckingham rho  0.33800000    Ang       
                            Buckingham C     0.0000000    eV*Ang^6  
--------------------------------------------------------------------------------
Na   c Cl   s Buckingham    Buckingham A     1170.4100    eV        0.000 12.000
                            Buckingham rho  0.31500000    Ang       
                            Buckingham C     0.0000000    eV*Ang^6  
--------------------------------------------------------------------------------
O    s O    s Buckingham    Buckingham A     22764.300    eV        0.000 12.000
                            Buckingham rho  0.14900000    Ang       
                            Buckingham C     13.190000    eV*Ang^6  
--------------------------------------------------------------------------------
O    s Cl   s Buckingham    Buckingham A     8286.9100    eV        0.000 12.000
                            Buckingham rho  0.25900000    Ang       
                            Buckingham C     62.200000    eV*Ang^6  
--------------------------------------------------------------------------------
Cl   s Cl   s Buckingham    Buckingham A     1227.2000    eV        0.000 12.000
                            Buckingham rho  0.32100000    Ang       
                            Buckingham C     14.530000    eV*Ang^6  
--------------------------------------------------------------------------------
O    s Mg   s Buckingham    Buckingham A     1428.5000    eV        0.000 12.000
                            Buckingham rho  0.29450000    Ang       
                            Buckingham C     0.0000000    eV*Ang^6  
--------------------------------------------------------------------------------
Mg   s Cl   s Buckingham    Buckingham A     4914.5400    eV        0.000 12.000
                            Buckingham rho  0.25700000    Ang       
                            Buckingham C     0.0000000    eV*Ang^6  
--------------------------------------------------------------------------------
O    s Ca   s Buckingham    Buckingham A     1090.4000    eV        0.000 12.000
                            Buckingham rho  0.34370000    Ang       
                            Buckingham C     0.0000000    eV*Ang^6  
--------------------------------------------------------------------------------
Cl   s Ca   s Buckingham    Buckingham A     2302.0000    eV        0.000 12.000
                            Buckingham rho  0.34020000    Ang       
                            Buckingham C     0.0000000    eV*Ang^6  
--------------------------------------------------------------------------------
O    s Sr   s Buckingham    Buckingham A     959.10000    eV        0.000 12.000
                            Buckingham rho  0.37210000    Ang       
                            Buckingham C     0.0000000    eV*Ang^6  
--------------------------------------------------------------------------------
Cl   s Sr   s Buckingham    Buckingham A     2191.0900    eV        0.000 12.000
                            Buckingham rho  0.34570000    Ang       
                            Buckingham C     0.0000000    eV*Ang^6  
--------------------------------------------------------------------------------
O    s Ba   s Buckingham    Buckingham A     905.70000    eV        0.000 12.000
                            Buckingham rho  0.39760000    Ang       
                            Buckingham C     0.0000000    eV*Ang^6  
--------------------------------------------------------------------------------
Cl   s Ba   s Buckingham    Buckingham A     2704.5500    eV        0.000 12.000
                            Buckingham rho  0.35280000    Ang       
                            Buckingham C     0.0000000    eV*Ang^6  
--------------------------------------------------------------------------------
Al   c O    s Buckingham    Buckingham A     1725.0000    eV        0.000 12.000
                            Buckingham rho  0.28970000    Ang       
                            Buckingham C     0.0000000    eV*Ang^6  
--------------------------------------------------------------------------------
Al   c Cl   s Buckingham    Buckingham A     1736.1200    eV        0.000 12.000
                            Buckingham rho  0.29170000    Ang       
                            Buckingham C     0.0000000    eV*Ang^6  
--------------------------------------------------------------------------------
Ga   c O    s Buckingham    Buckingham A     2901.1200    eV        0.000 12.000
                            Buckingham rho  0.27420000    Ang       
                            Buckingham C     0.0000000    eV*Ang^6  
--------------------------------------------------------------------------------
Ga   c Cl   s Buckingham    Buckingham A     924.20000    eV        0.000 12.000
                            Buckingham rho  0.34280000    Ang       
                            Buckingham C     0.0000000    eV*Ang^6  
--------------------------------------------------------------------------------

********************************************************************************
*  Output for configuration   1                                                *
********************************************************************************


  Components of energy : 

--------------------------------------------------------------------------------
  Interatomic potentials     =           4.94315381 eV    
  Monopole - monopole (real) =         -10.03624526 eV    
  Monopole - monopole (recip)=         -29.53581274 eV    
  Monopole - monopole (total)=         -39.57205800 eV    
--------------------------------------------------------------------------------
  Total lattice energy       =         -34.62890419 eV    
--------------------------------------------------------------------------------
  Total lattice energy       =           -3341.1599 kJ/(mole unit cells)
--------------------------------------------------------------------------------


  Number of variables =        1

  Maximum number of calculations  =          1000
  Maximum Hessian update interval =            10
  Maximum step size               =   1.000000000
  Maximum parameter tolerance     =   0.000010000
  Maximum function  tolerance     =   0.000010000
  Maximum gradient  tolerance     =   0.001000000
  Maximum gradient  component     =   0.010000000

  Symmetry constrained optimisation

  Symmetry used for second derivatives

  Cell parameters to be optimised using strains

  Newton-Raphson optimiser to be used

  BFGS hessian update to be used

  Lower half triangular hessian to be used

  Start of bulk optimisation :

  Cycle:      0 Energy:       -34.628904  Gnorm:      4.328237  CPU:    0.016
  ** Hessian calculated **
  Cycle:      1 Energy:       -34.677667  Gnorm:      0.044008  CPU:    0.020
  Cycle:      2 Energy:       -34.677671  Gnorm:      0.003653  CPU:    0.024


  **** Optimisation achieved ****


  Final energy =     -34.67767136 eV
  Final Gnorm  =       0.00000010

  Components of energy : 

--------------------------------------------------------------------------------
  Interatomic potentials     =           5.77546103 eV    
  Monopole - monopole (real) =         -10.25970290 eV    
  Monopole - monopole (recip)=         -30.19342950 eV    
  Monopole - monopole (total)=         -40.45313239 eV    
--------------------------------------------------------------------------------
  Total lattice energy       =         -34.67767136 eV    
--------------------------------------------------------------------------------
  Total lattice energy       =           -3345.8652 kJ/(mole unit cells)
--------------------------------------------------------------------------------

  Final asymmetric unit coordinates :

--------------------------------------------------------------------------------
   No.  Atomic        x           y           z         Radius
        Label       (Frac)      (Frac)      (Frac)       (Angs) 
--------------------------------------------------------------------------------
     1  Cl    c     0.000000    0.000000    0.000000    0.000000
     2  O     c     0.500000    0.500000    0.500000    0.000000
     3  Na    c     0.500000    0.500000    0.000000    0.000000
     4  Cl    s     0.000000    0.000000    0.000000    0.000000
     5  O     s     0.500000    0.500000    0.500000    0.000000
--------------------------------------------------------------------------------

  Final Cartesian lattice vectors (Angstroms) :

        4.405902    0.000000    0.000000
        0.000000    4.405902    0.000000
        0.000000    0.000000    4.405902


  Final cell parameters and derivatives :

--------------------------------------------------------------------------------
       a            4.405902 Angstrom     dE/de1(xx)     0.000000 eV/strain
       b            4.405902 Angstrom     dE/de2(yy)     0.000000 eV/strain
       c            4.405902 Angstrom     dE/de3(zz)     0.000000 eV/strain
       alpha       90.000000 Degrees      dE/de4(yz)     0.000000 eV/strain
       beta        90.000000 Degrees      dE/de5(xz)     0.000000 eV/strain
       gamma       90.000000 Degrees      dE/de6(xy)     0.000000 eV/strain
--------------------------------------------------------------------------------

  Primitive cell volume =            85.527266 Angs**3

  Density of cell =      2.338030 g/cm**3

  Non-primitive cell volume =            85.527266 Angs**3


  Final internal derivatives :

--------------------------------------------------------------------------------
   No.  Atomic          a             b             c           Radius
        Label          (eV)          (eV)          (eV)        (eV/Angs)
--------------------------------------------------------------------------------
      1 Cl    c       0.000000      0.000000      0.000000      0.000000
      2 O     c       0.000000      0.000000      0.000000      0.000000
      3 Na    c       0.000000      0.000000      0.000000      0.000000
      4 Cl    s       0.000000      0.000000      0.000000      0.000000
      5 O     s       0.000000      0.000000      0.000000      0.000000
--------------------------------------------------------------------------------
  Maximum abs         0.000000      0.000000      0.000000      0.000000
--------------------------------------------------------------------------------

  Comparison of initial and final structures : 

--------------------------------------------------------------------------------
  Parameter   Initial value   Final value   Difference    Units      Percent
--------------------------------------------------------------------------------
    Volume        91.368216     85.527266    -5.840950    Angs**3     -6.39
    a              4.504000      4.405902    -0.098098    Angstroms   -2.18
    b              4.504000      4.405902    -0.098098    Angstroms   -2.18
    c              4.504000      4.405902    -0.098098    Angstroms   -2.18
    alpha         90.000000     90.000000     0.000000    Degrees      0.00
    beta          90.000000     90.000000     0.000000    Degrees      0.00
    gamma         90.000000     90.000000     0.000000    Degrees      0.00
      1 x          0.000000      0.000000     0.000000    Fractional   0.00
      1 y          0.000000      0.000000     0.000000    Fractional   0.00
      1 z          0.000000      0.000000     0.000000    Fractional   0.00
      2 x          0.500000      0.500000     0.000000    Fractional   0.00
      2 y          0.500000      0.500000     0.000000    Fractional   0.00
      2 z          0.500000      0.500000     0.000000    Fractional   0.00
      3 x          0.500000      0.500000     0.000000    Fractional   0.00
      3 y          0.500000      0.500000     0.000000    Fractional   0.00
      3 z          0.000000      0.000000     0.000000    Fractional   0.00
      4 x          0.000000      0.000000     0.000000    Fractional   0.00
      4 y          0.000000      0.000000     0.000000    Fractional   0.00
      4 z          0.000000      0.000000     0.000000    Fractional   0.00
      5 x          0.500000      0.500000     0.000000    Fractional   0.00
      5 y          0.500000      0.500000     0.000000    Fractional   0.00
      5 z          0.500000      0.500000     0.000000    Fractional   0.00
--------------------------------------------------------------------------------


  Born effective charge tensors : 

-------------------------------------------------------------------------------
  Atom             x           y             z
-------------------------------------------------------------------------------
    1 Cl    x      -0.9918     -0.0000     -0.0000
            y      -0.0000     -0.9918     -0.0000
            z      -0.0000     -0.0000     -0.9918
-------------------------------------------------------------------------------
    2 O     x      -2.2939      0.0000      0.0000
            y       0.0000     -2.2939      0.0000
            z       0.0000      0.0000     -2.2939
-------------------------------------------------------------------------------
    3 Na    x       1.2243      0.0000      0.0000
            y       0.0000      1.2243     -0.0000
            z       0.0000      0.0000      0.8372
-------------------------------------------------------------------------------




  Elastic Constant Matrix: (Units=GPa)

-------------------------------------------------------------------------------
  Indices      1         2         3         4         5         6    
-------------------------------------------------------------------------------
       1     82.7680   24.3534   24.3534   -0.0000    0.0000   -0.0000
       2     24.3534   82.7680   24.3534    0.0000   -0.0000   -0.0000
       3     24.3534   24.3534   82.7680    0.0000   -0.0000    0.0000
       4     -0.0000    0.0000    0.0000   24.3534   -0.0000    0.0000
       5      0.0000   -0.0000   -0.0000   -0.0000   24.3534    0.0000
       6     -0.0000   -0.0000    0.0000    0.0000    0.0000   24.3534
-------------------------------------------------------------------------------


  Elastic Compliance Matrix: (Units=1/GPa)

-------------------------------------------------------------------------------
  Indices      1         2         3         4         5         6    
-------------------------------------------------------------------------------
       1    0.013948 -0.003171 -0.003171  0.000000 -0.000000  0.000000
       2   -0.003171  0.013948 -0.003171 -0.000000  0.000000 -0.000000
       3   -0.003171 -0.003171  0.013948 -0.000000  0.000000 -0.000000
       4    0.000000 -0.000000 -0.000000  0.041062  0.000000 -0.000000
       5   -0.000000  0.000000  0.000000  0.000000  0.041062 -0.000000
       6    0.000000 -0.000000 -0.000000 -0.000000 -0.000000  0.041062
-------------------------------------------------------------------------------

  Mechanical properties :

-------------------------------------------------------------------------------
  Convention :                    Reuss         Voigt         Hill
-------------------------------------------------------------------------------
  Bulk  Modulus (GPa)     =      43.82493      43.82493      43.82493
  Shear Modulus (GPa)     =      26.08758      26.29496      26.19127
-------------------------------------------------------------------------------
  Velocity S-wave (km/s)  =       3.34035       3.35360       3.34698
  Velocity P-wave (km/s)  =       5.79842       5.80861       5.80351
-------------------------------------------------------------------------------
  Compressibility (1/GPa) =    0.02281806
-------------------------------------------------------------------------------
  Stress axis :                     x             y             z
-------------------------------------------------------------------------------
  Youngs Moduli (GPa)     =      71.69479      71.69479      71.69479
-------------------------------------------------------------------------------
  Poissons Ratio (x)      =                     0.22734       0.22734
  Poissons Ratio (y)      =       0.22734                     0.22734
  Poissons Ratio (z)      =       0.22734       0.22734
-------------------------------------------------------------------------------


  Piezoelectric Strain Matrix: (Units=C/m**2)

-------------------------------------------------------------------------------
  Indices      1         2         3         4         5         6    
-------------------------------------------------------------------------------
       x    -0.00000  -0.00000  -0.00000  -0.00000   0.00000  -0.00000
       y     0.00000  -0.00000   0.00000   0.00000  -0.00000   0.00000
       z    -0.00000  -0.00000   0.00000  -0.00000   0.00000  -0.00000
-------------------------------------------------------------------------------


  Piezoelectric Stress Matrix: (Units=10**-11 C/N)

-------------------------------------------------------------------------------
  Indices      1         2         3         4         5         6    
-------------------------------------------------------------------------------
       x     0.00000  -0.00000  -0.00000  -0.00000   0.00000  -0.00000
       y     0.00000  -0.00000   0.00000   0.00000  -0.00000   0.00000
       z    -0.00000  -0.00000   0.00000  -0.00000   0.00000  -0.00000
-------------------------------------------------------------------------------


  Static dielectric constant tensor : 

-------------------------------------------------------------------------------
              x         y         z
-------------------------------------------------------------------------------
       x    11.08357   0.00000   0.00000
       y     0.00000  11.08357   0.00000
       z     0.00000   0.00000  11.08357
--------------------------------------------------------------------------------

  High frequency dielectric constant tensor : 

-------------------------------------------------------------------------------
              x         y         z
-------------------------------------------------------------------------------
       x     1.50771   0.00000   0.00000
       y     0.00000   1.50771   0.00000
       z     0.00000   0.00000   1.50771
-------------------------------------------------------------------------------

  Static refractive indices : 

-------------------------------------------------------------------------------
    1 =    3.32920      2 =    3.32920      3 =    3.32920
-------------------------------------------------------------------------------

  High frequency refractive indices : 

-------------------------------------------------------------------------------
    1 =    1.22789      2 =    1.22789      3 =    1.22789
-------------------------------------------------------------------------------


  Time to end of optimisation =       0.0331 seconds

********************************************************************************
*  Defect calculation for configuration   1 :                                  *
********************************************************************************

  Total number of defects =      3

  Total charge on defect  =  -1.00

  Defect centre is at   0.5000   0.2500   0.2500  Frac

  Region 1 radius =  12.0000      Number of ions =    593

  Number of symmetry inequivalent region 1 ions  =    195

  Region 2 radius =  16.0000      Number of ions =    832

  Number of symmetry inequivalent region 2a ions =    242

  Region 2a mode = 4 : screened electrostatics due to region 1 
                       neglect correction to region 1 forces from 2a
                       region 2a displacements based on defects only

  Region 2a ions will only interact with defects in region 1

  Vacancies:

--------------------------------------------------------------------------------
    Specification type     Symbol/Number         x          y          z
--------------------------------------------------------------------------------
    Fractional                               0.500000   0.500000   0.000000
    Fractional                               0.500000   0.000000   0.500000
--------------------------------------------------------------------------------

  Interstitials:

--------------------------------------------------------------------------------
    Specification type     Symbol/Number         x          y          z
--------------------------------------------------------------------------------
    Atom/Fractional         Na               0.500000   0.060000   0.060000
--------------------------------------------------------------------------------


  Symmetry reduced region 1 (Relative to defect centre) :

--------------------------------------------------------------------------------
   No.   Atomic       x            y             z       Radius  Multiplicity   
         Label      (Angs)       (Angs)        (Angs)    (Angs)     
--------------------------------------------------------------------------------
     1  Na    c      0.0000      -0.8371      -0.8371    0.0000     1    Defect
     2  O     c      0.0000       1.1015 *     1.1015    0.0000     1          
     3  Cl    c      2.2030 *    -1.1015 *    -1.1015    0.0000     2          
     4  Na    c      2.2030 *     1.1015 *     1.1015    0.0000     2          
     5  O     c      0.0000       1.1015 *    -3.3044 *  0.0000     2          
     6  Na    c      0.0000       1.1015 *     3.3044 *  0.0000     2          
     7  Na    c      0.0000      -3.3044 *    -1.1015 *  0.0000     2          
     8  Cl    c      2.2030 *    -1.1015 *     3.3044 *  0.0000     4          
     9  Na    c      2.2030 *     1.1015 *    -3.3044 *  0.0000     4          
    10  O     c      0.0000      -3.3044 *    -3.3044    0.0000     1          
    11  Na    c      0.0000      -3.3044 *     3.3044 *  0.0000     2          
    12  O     c      4.4059 *     1.1015 *     1.1015    0.0000     2          
    13  Na    c      4.4059 *     1.1015 *    -1.1015 *  0.0000     4          
    14  Cl    c      2.2030 *     3.3044 *     3.3044    0.0000     2          
    15  Na    c      2.2030 *    -3.3044 *    -3.3044    0.0000     2          
    16  O     c      0.0000       1.1015 *     5.5074 *  0.0000     2          
    17  O     c      4.4059 *     1.1015 *    -3.3044 *  0.0000     4          
    18  Na    c      0.0000       1.1015 *    -5.5074 *  0.0000     2          
    19  Na    c      0.0000       5.5074 *    -1.1015 *  0.0000     2          
    20  Na    c      4.4059 *     1.1015 *     3.3044 *  0.0000     4          
    21  Na    c      4.4059 *    -1.1015 *    -3.3044 *  0.0000     4          
    22  Cl    c      2.2030 *    -1.1015 *    -5.5074 *  0.0000     4          
    23  Na    c      2.2030 *     1.1015 *     5.5074 *  0.0000     4          
    24  O     c      0.0000       5.5074 *    -3.3044 *  0.0000     2          
    25  Na    c      0.0000       5.5074 *     3.3044 *  0.0000     2          
    26  Na    c      0.0000      -3.3044 *    -5.5074 *  0.0000     2          
    27  O     c      4.4059 *    -3.3044 *    -3.3044    0.0000     2          
    28  Na    c      4.4059 *    -3.3044 *     3.3044 *  0.0000     4          
    29  Cl    c      6.6089 *    -1.1015 *    -1.1015    0.0000     2          
    30  Na    c      6.6089 *     1.1015 *     1.1015    0.0000     2          
    31  Cl    c      2.2030 *     3.3044 *    -5.5074 *  0.0000     4          
    32  Na    c      2.2030 *     5.5074 *    -3.3044 *  0.0000     4          
    33  O     c      4.4059 *     1.1015 *     5.5074 *  0.0000     4          
    34  Na    c      4.4059 *     1.1015 *    -5.5074 *  0.0000     4          
    35  Na    c      4.4059 *     5.5074 *    -1.1015 *  0.0000     4          
    36  Cl    c      6.6089 *    -1.1015 *     3.3044 *  0.0000     4          
    37  Na    c      6.6089 *     1.1015 *    -3.3044 *  0.0000     4          
    38  O     c      0.0000       1.1015 *    -7.7103 *  0.0000     2          
    39  O     c      0.0000       5.5074 *     5.5074    0.0000     1          
    40  Na    c      0.0000       1.1015 *     7.7103 *  0.0000     2          
    41  Na    c      0.0000       5.5074 *    -5.5074 *  0.0000     2          
    42  Na    c      0.0000      -7.7103 *    -1.1015 *  0.0000     2          
    43  O     c      4.4059 *     5.5074 *    -3.3044 *  0.0000     4          
    44  Na    c      4.4059 *     5.5074 *     3.3044 *  0.0000     4          
    45  Na    c      4.4059 *    -3.3044 *    -5.5074 *  0.0000     4          
    46  Cl    c      2.2030 *    -1.1015 *     7.7103 *  0.0000     4          
    47  Cl    c      2.2030 *    -5.5074 *    -5.5074    0.0000     2          
    48  Cl    c      6.6089 *     3.3044 *     3.3044    0.0000     2          
    49  Na    c      2.2030 *     1.1015 *    -7.7103 *  0.0000     4          
    50  Na    c      2.2030 *     5.5074 *     5.5074    0.0000     2          
    51  Na    c      6.6089 *    -3.3044 *    -3.3044    0.0000     2          
    52  O     c      0.0000      -3.3044 *    -7.7103 *  0.0000     2          
    53  Na    c      0.0000      -3.3044 *     7.7103 *  0.0000     2          
    54  Na    c      0.0000      -7.7103 *     3.3044 *  0.0000     2          
    55  Cl    c      2.2030 *     3.3044 *     7.7103 *  0.0000     4          
    56  Cl    c      6.6089 *    -1.1015 *    -5.5074 *  0.0000     4          
    57  Na    c      2.2030 *    -3.3044 *    -7.7103 *  0.0000     4          
    58  Na    c      6.6089 *     1.1015 *     5.5074 *  0.0000     4          
    59  O     c      4.4059 *     1.1015 *    -7.7103 *  0.0000     4          
    60  O     c      4.4059 *     5.5074 *     5.5074    0.0000     2          
    61  Na    c      4.4059 *     1.1015 *     7.7103 *  0.0000     4          
    62  Na    c      4.4059 *     5.5074 *    -5.5074 *  0.0000     4          
    63  Na    c      4.4059 *    -1.1015 *    -7.7103 *  0.0000     4          
    64  O     c      8.8118 *     1.1015 *     1.1015    0.0000     2          
    65  Na    c      8.8118 *     1.1015 *    -1.1015 *  0.0000     4          
    66  Cl    c      6.6089 *     3.3044 *    -5.5074 *  0.0000     4          
    67  Na    c      6.6089 *     5.5074 *    -3.3044 *  0.0000     4          
    68  O     c      0.0000       5.5074 *    -7.7103 *  0.0000     2          
    69  O     c      4.4059 *    -3.3044 *    -7.7103 *  0.0000     4          
    70  Na    c      0.0000       5.5074 *     7.7103 *  0.0000     2          
    71  Na    c      0.0000      -7.7103 *    -5.5074 *  0.0000     2          
    72  Na    c      4.4059 *    -3.3044 *     7.7103 *  0.0000     4          
    73  Na    c      4.4059 *     3.3044 *    -7.7103 *  0.0000     4          
    74  O     c      8.8118 *     1.1015 *    -3.3044 *  0.0000     4          
    75  Na    c      8.8118 *     1.1015 *     3.3044 *  0.0000     4          
    76  Na    c      8.8118 *    -3.3044 *    -1.1015 *  0.0000     4          
    77  Cl    c      2.2030 *     7.7103 *    -5.5074 *  0.0000     4          
    78  Na    c      2.2030 *     5.5074 *    -7.7103 *  0.0000     4          
    79  O     c      0.0000       1.1015 *     9.9133 *  0.0000     2          
    80  O     c      8.8118 *    -3.3044 *    -3.3044    0.0000     2          
    81  Na    c      0.0000       1.1015 *    -9.9133 *  0.0000     2          
    82  Na    c      0.0000       9.9133 *    -1.1015 *  0.0000     2          
    83  Na    c      8.8118 *    -3.3044 *     3.3044 *  0.0000     4          
    84  Cl    c      2.2030 *    -1.1015 *    -9.9133 *  0.0000     4          
    85  Cl    c      6.6089 *    -1.1015 *     7.7103 *  0.0000     4          
    86  Cl    c      6.6089 *    -5.5074 *    -5.5074    0.0000     2          
    87  Na    c      2.2030 *     1.1015 *     9.9133 *  0.0000     4          
    88  Na    c      6.6089 *     1.1015 *    -7.7103 *  0.0000     4          
    89  Na    c      6.6089 *     5.5074 *     5.5074    0.0000     2          
    90  O     c      0.0000       9.9133 *    -3.3044 *  0.0000     2          
    91  O     c      4.4059 *     5.5074 *    -7.7103 *  0.0000     4          
    92  O     c      8.8118 *     1.1015 *     5.5074 *  0.0000     4          
    93  Na    c      0.0000       9.9133 *     3.3044 *  0.0000     2          
    94  Na    c      0.0000      -3.3044 *    -9.9133 *  0.0000     2          
    95  Na    c      4.4059 *     5.5074 *     7.7103 *  0.0000     4          
    96  Na    c      4.4059 *    -7.7103 *    -5.5074 *  0.0000     4          
    97  Na    c      8.8118 *     1.1015 *    -5.5074 *  0.0000     4          
    98  Na    c      8.8118 *     5.5074 *    -1.1015 *  0.0000     4          
    99  Cl    c      6.6089 *     7.7103 *     3.3044 *  0.0000     4          
   100  Na    c      6.6089 *    -7.7103 *    -3.3044 *  0.0000     4          
   101  Cl    c      2.2030 *     3.3044 *    -9.9133 *  0.0000     4          
   102  Na    c      2.2030 *     9.9133 *    -3.3044 *  0.0000     4          
   103  O     c      0.0000      -7.7103 *    -7.7103    0.0000     1          
   104  O     c      4.4059 *     1.1015 *     9.9133 *  0.0000     4          
   105  O     c      8.8118 *     5.5074 *    -3.3044 *  0.0000     4          
   106  Na    c      0.0000      -7.7103 *     7.7103 *  0.0000     2          
   107  Na    c      4.4059 *     1.1015 *    -9.9133 *  0.0000     4          
   108  Na    c      4.4059 *     9.9133 *    -1.1015 *  0.0000     4          
   109  Na    c      8.8118 *     5.5074 *     3.3044 *  0.0000     4          
   110  Na    c      8.8118 *    -3.3044 *    -5.5074 *  0.0000     4          
   111  Cl    c      2.2030 *     7.7103 *     7.7103    0.0000     2          
   112  Cl    c     11.0148 *    -1.1015 *    -1.1015    0.0000     2          
   113  Na    c      2.2030 *    -7.7103 *    -7.7103    0.0000     2          
   114  Na    c     11.0148 *     1.1015 *     1.1015    0.0000     2          
   115  O     c      4.4059 *     9.9133 *    -3.3044 *  0.0000     4          
   116  Na    c      4.4059 *     9.9133 *     3.3044 *  0.0000     4          
   117  Na    c      4.4059 *    -9.9133 *    -3.3044 *  0.0000     4          
   118  O     c      0.0000       5.5074 *     9.9133 *  0.0000     2          
   119  Na    c      0.0000       5.5074 *    -9.9133 *  0.0000     2          
   120  Na    c      0.0000       9.9133 *    -5.5074 *  0.0000     2          
   121  Cl    c      2.2030 *    -5.5074 *    -9.9133 *  0.0000     4          
   122  Cl    c      6.6089 *     7.7103 *    -5.5074 *  0.0000     4          
   123  Cl    c     11.0148 *    -1.1015 *     3.3044 *  0.0000     4          
   124  Na    c      2.2030 *     5.5074 *     9.9133 *  0.0000     4          
   125  Na    c      6.6089 *     5.5074 *    -7.7103 *  0.0000     4          
   126  Na    c     11.0148 *     1.1015 *    -3.3044 *  0.0000     4          
   127  O     c      4.4059 *    -7.7103 *    -7.7103    0.0000     2          
   128  O     c      8.8118 *     1.1015 *    -7.7103 *  0.0000     4          
   129  O     c      8.8118 *     5.5074 *     5.5074    0.0000     2          
   130  Na    c      4.4059 *    -7.7103 *     7.7103 *  0.0000     4          
   131  Na    c      8.8118 *     1.1015 *     7.7103 *  0.0000     4          
   132  Na    c      8.8118 *     5.5074 *    -5.5074 *  0.0000     4          
   133  Na    c      8.8118 *    -1.1015 *    -7.7103 *  0.0000     4          
   134  Cl    c     11.0148 *     3.3044 *     3.3044    0.0000     2          
   135  Na    c     11.0148 *    -3.3044 *    -3.3044    0.0000     2          
   136  Cl    c      6.6089 *    -1.1015 *    -9.9133 *  0.0000     4          
   137  Na    c      6.6089 *     1.1015 *     9.9133 *  0.0000     4          
   138  O     s      0.0000       1.1015 *     1.1015    0.0000     1          
   139  Cl    s      2.2030 *    -1.1015 *    -1.1015    0.0000     2          
   140  O     s      0.0000       1.1015 *    -3.3044 *  0.0000     2          
   141  Cl    s      2.2030 *    -1.1015 *     3.3044 *  0.0000     4          
   142  O     s      0.0000      -3.3044 *    -3.3044    0.0000     1          
   143  O     s      4.4059 *     1.1015 *     1.1015    0.0000     2          
   144  Cl    s      2.2030 *     3.3044 *     3.3044    0.0000     2          
   145  O     s      0.0000       1.1015 *     5.5074 *  0.0000     2          
   146  O     s      4.4059 *     1.1015 *    -3.3044 *  0.0000     4          
   147  Cl    s      2.2030 *    -1.1015 *    -5.5074 *  0.0000     4          
   148  O     s      0.0000       5.5074 *    -3.3044 *  0.0000     2          
   149  O     s      4.4059 *    -3.3044 *    -3.3044    0.0000     2          
   150  Cl    s      6.6089 *    -1.1015 *    -1.1015    0.0000     2          
   151  Cl    s      2.2030 *     3.3044 *    -5.5074 *  0.0000     4          
   152  O     s      4.4059 *     1.1015 *     5.5074 *  0.0000     4          
   153  Cl    s      6.6089 *    -1.1015 *     3.3044 *  0.0000     4          
   154  O     s      0.0000       1.1015 *    -7.7103 *  0.0000     2          
   155  O     s      0.0000       5.5074 *     5.5074    0.0000     1          
   156  O     s      4.4059 *     5.5074 *    -3.3044 *  0.0000     4          
   157  Cl    s      2.2030 *    -1.1015 *     7.7103 *  0.0000     4          
   158  Cl    s      2.2030 *    -5.5074 *    -5.5074    0.0000     2          
   159  Cl    s      6.6089 *     3.3044 *     3.3044    0.0000     2          
   160  O     s      0.0000      -3.3044 *    -7.7103 *  0.0000     2          
   161  Cl    s      2.2030 *     3.3044 *     7.7103 *  0.0000     4          
   162  Cl    s      6.6089 *    -1.1015 *    -5.5074 *  0.0000     4          
   163  O     s      4.4059 *     1.1015 *    -7.7103 *  0.0000     4          
   164  O     s      4.4059 *     5.5074 *     5.5074    0.0000     2          
   165  O     s      8.8118 *     1.1015 *     1.1015    0.0000     2          
   166  Cl    s      6.6089 *     3.3044 *    -5.5074 *  0.0000     4          
   167  O     s      0.0000       5.5074 *    -7.7103 *  0.0000     2          
   168  O     s      4.4059 *    -3.3044 *    -7.7103 *  0.0000     4          
   169  O     s      8.8118 *     1.1015 *    -3.3044 *  0.0000     4          
   170  Cl    s      2.2030 *     7.7103 *    -5.5074 *  0.0000     4          
   171  O     s      0.0000       1.1015 *     9.9133 *  0.0000     2          
   172  O     s      8.8118 *    -3.3044 *    -3.3044    0.0000     2          
   173  Cl    s      2.2030 *    -1.1015 *    -9.9133 *  0.0000     4          
   174  Cl    s      6.6089 *    -1.1015 *     7.7103 *  0.0000     4          
   175  Cl    s      6.6089 *    -5.5074 *    -5.5074    0.0000     2          
   176  O     s      0.0000       9.9133 *    -3.3044 *  0.0000     2          
   177  O     s      4.4059 *     5.5074 *    -7.7103 *  0.0000     4          
   178  O     s      8.8118 *     1.1015 *     5.5074 *  0.0000     4          
   179  Cl    s      6.6089 *     7.7103 *     3.3044 *  0.0000     4          
   180  Cl    s      2.2030 *     3.3044 *    -9.9133 *  0.0000     4          
   181  O     s      0.0000      -7.7103 *    -7.7103    0.0000     1          
   182  O     s      4.4059 *     1.1015 *     9.9133 *  0.0000     4          
   183  O     s      8.8118 *     5.5074 *    -3.3044 *  0.0000     4          
   184  Cl    s      2.2030 *     7.7103 *     7.7103    0.0000     2          
   185  Cl    s     11.0148 *    -1.1015 *    -1.1015    0.0000     2          
   186  O     s      4.4059 *     9.9133 *    -3.3044 *  0.0000     4          
   187  O     s      0.0000       5.5074 *     9.9133 *  0.0000     2          
   188  Cl    s      2.2030 *    -5.5074 *    -9.9133 *  0.0000     4          
   189  Cl    s      6.6089 *     7.7103 *    -5.5074 *  0.0000     4          
   190  Cl    s     11.0148 *    -1.1015 *     3.3044 *  0.0000     4          
   191  O     s      4.4059 *    -7.7103 *    -7.7103    0.0000     2          
   192  O     s      8.8118 *     1.1015 *    -7.7103 *  0.0000     4          
   193  O     s      8.8118 *     5.5074 *     5.5074    0.0000     2          
   194  Cl    s     11.0148 *     3.3044 *     3.3044    0.0000     2          
   195  Cl    s      6.6089 *    -1.1015 *    -9.9133 *  0.0000     4          
--------------------------------------------------------------------------------


  Constraints on symmetry reduced coordinates :

--------------------------------------------------------------------------------
  Constraint no.      Unconstrained     Constrained    Coefficient    
                         Variable         Variable
--------------------------------------------------------------------------------
           1                 2 y             2 z         1.00000
           2                 3 y             3 z         1.00000
           3                 4 y             4 z         1.00000
           4                10 y            10 z         1.00000
           5                12 y            12 z         1.00000
           6                14 y            14 z         1.00000
           7                15 y            15 z         1.00000
           8                27 y            27 z         1.00000
           9                29 y            29 z         1.00000
          10                30 y            30 z         1.00000
          11                39 y            39 z         1.00000
          12                47 y            47 z         1.00000
          13                48 y            48 z         1.00000
          14                50 y            50 z         1.00000
          15                51 y            51 z         1.00000
          16                60 y            60 z         1.00000
          17                64 y            64 z         1.00000
          18                80 y            80 z         1.00000
          19                86 y            86 z         1.00000
          20                89 y            89 z         1.00000
          21               103 y           103 z         1.00000
          22               111 y           111 z         1.00000
          23               112 y           112 z         1.00000
          24               113 y           113 z         1.00000
          25               114 y           114 z         1.00000
          26               127 y           127 z         1.00000
          27               129 y           129 z         1.00000
          28               134 y           134 z         1.00000
          29               135 y           135 z         1.00000
          30               138 y           138 z         1.00000
          31               139 y           139 z         1.00000
          32               142 y           142 z         1.00000
          33               143 y           143 z         1.00000
          34               144 y           144 z         1.00000
          35               149 y           149 z         1.00000
          36               150 y           150 z         1.00000
          37               155 y           155 z         1.00000
          38               158 y           158 z         1.00000
          39               159 y           159 z         1.00000
          40               164 y           164 z         1.00000
          41               165 y           165 z         1.00000
          42               172 y           172 z         1.00000
          43               175 y           175 z         1.00000
          44               181 y           181 z         1.00000
          45               184 y           184 z         1.00000
          46               185 y           185 z         1.00000
          47               191 y           191 z         1.00000
          48               193 y           193 z         1.00000
          49               194 y           194 z         1.00000
--------------------------------------------------------------------------------


  Components of defect energy : 

--------------------------------------------------------------------------------
  Region 1 - region 1                   =     10.44845994 eV
  Region 1 - region 2a (unrelaxed)      =     -0.04228956 eV
  Region 1 - 2a (relaxed - correction)  =     -0.27946467 eV
  Region 1 (Total)                      =     10.12670571 eV
  Region 2a                             =      0.13967773 eV
  Region 2b                             =     -0.40902690 eV
--------------------------------------------------------------------------------
  Total defect energy                   =      9.85735654 eV
--------------------------------------------------------------------------------

  Largest displacement in region 2 =   0.0178 Angstroms


  Number of variables =      486

  Maximum number of calculations  =        1000
  Maximum Hessian update interval =          10
  Maximum step size               =   1.0000000
  Maximum parameter tolerance     =   0.0000100
  Maximum function  tolerance     =   0.0000100
  Maximum gradient  tolerance     =   0.0010000

  Symmetry adapted optimisation

  Symmetry to be used for second derivatives

  Newton-Raphson optimiser to be used

  BFGS hessian update to be used

  Lower half triangular hessian to be used

  Start of defect optimisation :

  Cycle:      0 Defect Energy:   9.857357  Gnorm:     0.051025  CPU:    2.177
  ** Hessian calculated **
  Cycle:      1 Defect Energy:   8.055812  Gnorm:     0.037981  CPU:    6.008
  Cycle:      2 Defect Energy:   6.365370  Gnorm:     0.016295  CPU:    8.838
  Cycle:      3 Defect Energy:   6.022005  Gnorm:     0.007547  CPU:   15.416
  Cycle:      4 Defect Energy:   5.878581  Gnorm:     0.003634  CPU:   16.135
  Cycle:      5 Defect Energy:   5.838098  Gnorm:     0.002015  CPU:   16.832
  Cycle:      6 Defect Energy:   5.818920  Gnorm:     0.001065  CPU:   17.544
  Cycle:      7 Defect Energy:   5.810583  Gnorm:     0.000642  CPU:   18.243
  Cycle:      8 Defect Energy:   5.806961  Gnorm:     0.000379  CPU:   19.033
  Cycle:      9 Defect Energy:   5.805338  Gnorm:     0.000265  CPU:   19.707
  Cycle:     10 Defect Energy:   5.804542  Gnorm:     0.000177  CPU:   20.480
  ** Hessian calculated **
  Cycle:     11 Defect Energy:   5.804141  Gnorm:     0.000124  CPU:   22.791
  Cycle:     12 Defect Energy:   5.803939  Gnorm:     0.000087  CPU:   23.620
  Cycle:     13 Defect Energy:   5.803837  Gnorm:     0.000061  CPU:   24.279
  Cycle:     14 Defect Energy:   5.803784  Gnorm:     0.000043  CPU:   24.926
  Cycle:     15 Defect Energy:   5.803757  Gnorm:     0.000030  CPU:   25.575
  Cycle:     16 Defect Energy:   5.803743  Gnorm:     0.000021  CPU:   26.228


  **** Optimisation achieved ****


  Final defect energy  =        5.80373542
  Final defect Gnorm   =        0.00001469

  Components of defect energy : 

--------------------------------------------------------------------------------
  Region 1 - region 1                   =      7.10683786 eV
  Region 1 - region 2a (unrelaxed)      =     -0.78577818 eV
  Region 1 - 2a (relaxed - correction)  =     -0.21946555 eV
  Region 1 (Total)                      =      6.10159413 eV
  Region 2a                             =      0.10976427 eV
  Region 2b                             =     -0.40762299 eV
--------------------------------------------------------------------------------
  Total defect energy                   =      5.80373542 eV
--------------------------------------------------------------------------------

  Largest displacement in region 2 =   0.0178 Angstroms

  Final coordinates of region 1 :

--------------------------------------------------------------------------------
   No.  Atomic        x           y           z          Radius      Charge
        Label       (Angs)      (Angs)      (Angs)       (Angs)       (e) 
--------------------------------------------------------------------------------
     1  Na    c     2.202951    0.264354    0.264354    0.000000    1.000000
     2  O     c     2.202951    2.067428    2.067428    0.000000    0.183000
     3  Cl    c     4.724052   -0.124345   -0.124345    0.000000    1.485000
     4  Cl    c    -0.318150   -0.124345   -0.124345    0.000000    1.485000
     5  Na    c     4.312114    1.966882    1.966882    0.000000    1.000000
     6  Na    c     0.093789    1.966882    1.966882    0.000000    1.000000
     7  O     c     2.202951    2.070314   -2.325586    0.000000    0.183000
     8  O     c     2.202951   -2.325586    2.070314    0.000000    0.183000
     9  Na    c     2.202951    1.859036    4.208494    0.000000    1.000000
    10  Na    c     2.202951    4.208494    1.859036    0.000000    1.000000
    11  Na    c     2.202951   -2.678839   -0.035943    0.000000    1.000000
    12  Na    c     2.202951   -0.035943   -2.678839    0.000000    1.000000
    13  Cl    c     4.518938   -0.051552    4.483821    0.000000    1.485000
    14  Cl    c    -0.113036   -0.051552    4.483821    0.000000    1.485000
    15  Cl    c     4.518938    4.483821   -0.051552    0.000000    1.485000
    16  Cl    c    -0.113036    4.483821   -0.051552    0.000000    1.485000
    17  Na    c     4.342014    2.131719   -1.980469    0.000000    1.000000
    18  Na    c     0.063889    2.131719   -1.980469    0.000000    1.000000
    19  Na    c     4.342014   -1.980469    2.131719    0.000000    1.000000
    20  Na    c     0.063889   -1.980469    2.131719    0.000000    1.000000
    21  O     c     2.202951   -2.216682   -2.216682    0.000000    0.183000
    22  Na    c     2.202951   -1.842820    4.230766    0.000000    1.000000
    23  Na    c     2.202951    4.230766   -1.842820    0.000000    1.000000
    24  O     c     6.593176    2.173542    2.173542    0.000000    0.183000
    25  O     c    -2.187274    2.173542    2.173542    0.000000    0.183000
    26  Na    c     6.704008    2.188387   -0.016194    0.000000    1.000000
    27  Na    c    -2.298106    2.188387   -0.016194    0.000000    1.000000
    28  Na    c     6.704008   -0.016194    2.188387    0.000000    1.000000
    29  Na    c    -2.298106   -0.016194    2.188387    0.000000    1.000000
    30  Cl    c     4.473941    4.441930    4.441930    0.000000    1.485000
    31  Cl    c    -0.068039    4.441930    4.441930    0.000000    1.485000
    32  Na    c     4.425889   -2.181012   -2.181012    0.000000    1.000000
    33  Na    c    -0.019987   -2.181012   -2.181012    0.000000    1.000000
    34  O     c     2.202951    2.156848    6.547668    0.000000    0.183000
    35  O     c     2.202951    6.547668    2.156848    0.000000    0.183000
    36  O     c     6.600052    2.194329   -2.213530    0.000000    0.183000
    37  O     c    -2.194149    2.194329   -2.213530    0.000000    0.183000
    38  O     c     6.600052   -2.213530    2.194329    0.000000    0.183000
    39  O     c    -2.194149   -2.213530    2.194329    0.000000    0.183000
    40  Na    c     2.202951    2.427941   -4.434273    0.000000    1.000000
    41  Na    c     2.202951   -4.434273    2.427941    0.000000    1.000000
    42  Na    c     2.202951    6.701535   -0.013209    0.000000    1.000000
    43  Na    c     2.202951   -0.013209    6.701535    0.000000    1.000000
    44  Na    c     6.479912    2.186966    4.369611    0.000000    1.000000
    45  Na    c    -2.074010    2.186966    4.369611    0.000000    1.000000
    46  Na    c     6.479912    4.369611    2.186966    0.000000    1.000000
    47  Na    c    -2.074010    4.369611    2.186966    0.000000    1.000000
    48  Na    c     6.647206   -0.015396   -2.225221    0.000000    1.000000
    49  Na    c    -2.241304   -0.015396   -2.225221    0.000000    1.000000
    50  Na    c     6.647206   -2.225221   -0.015396    0.000000    1.000000
    51  Na    c    -2.241304   -2.225221   -0.015396    0.000000    1.000000
    52  Cl    c     4.432323   -0.098624   -4.494193    0.000000    1.485000
    53  Cl    c     4.432323   -4.494193   -0.098624    0.000000    1.485000
    54  Cl    c    -0.026421   -0.098624   -4.494193    0.000000    1.485000
    55  Cl    c    -0.026421   -4.494193   -0.098624    0.000000    1.485000
    56  Na    c     4.389839    2.187401    6.538702    0.000000    1.000000
    57  Na    c     4.389839    6.538702    2.187401    0.000000    1.000000
    58  Na    c     0.016063    2.187401    6.538702    0.000000    1.000000
    59  Na    c     0.016063    6.538702    2.187401    0.000000    1.000000
    60  O     c     2.202951    6.534774   -2.188985    0.000000    0.183000
    61  O     c     2.202951   -2.188985    6.534774    0.000000    0.183000
    62  Na    c     2.202951    6.438185    4.345245    0.000000    1.000000
    63  Na    c     2.202951    4.345245    6.438185    0.000000    1.000000
    64  Na    c     2.202951   -2.347316   -4.445062    0.000000    1.000000
    65  Na    c     2.202951   -4.445062   -2.347316    0.000000    1.000000
    66  O     c     6.636747   -2.237368   -2.237368    0.000000    0.183000
    67  O     c    -2.230844   -2.237368   -2.237368    0.000000    0.183000
    68  Na    c     6.566185   -2.199611    4.393224    0.000000    1.000000
    69  Na    c    -2.160283   -2.199611    4.393224    0.000000    1.000000
    70  Na    c     6.566185    4.393224   -2.199611    0.000000    1.000000
    71  Na    c    -2.160283    4.393224   -2.199611    0.000000    1.000000
    72  Cl    c     8.860159   -0.014664   -0.014664    0.000000    1.485000
    73  Cl    c    -4.454257   -0.014664   -0.014664    0.000000    1.485000
    74  Na    c     8.795549    2.270761    2.270761    0.000000    1.000000
    75  Na    c    -4.389646    2.270761    2.270761    0.000000    1.000000
    76  Cl    c     4.442870    4.422983   -4.483277    0.000000    1.485000
    77  Cl    c     4.442870   -4.483277    4.422983    0.000000    1.485000
    78  Cl    c    -0.036968    4.422983   -4.483277    0.000000    1.485000
    79  Cl    c    -0.036968   -4.483277    4.422983    0.000000    1.485000
    80  Na    c     4.397651    6.533868   -2.204552    0.000000    1.000000
    81  Na    c     4.397651   -2.204552    6.533868    0.000000    1.000000
    82  Na    c     0.008251    6.533868   -2.204552    0.000000    1.000000
    83  Na    c     0.008251   -2.204552    6.533868    0.000000    1.000000
    84  O     c     6.600523    2.198412    6.590609    0.000000    0.183000
    85  O     c     6.600523    6.590609    2.198412    0.000000    0.183000
    86  O     c    -2.194621    2.198412    6.590609    0.000000    0.183000
    87  O     c    -2.194621    6.590609    2.198412    0.000000    0.183000
    88  Na    c     6.470890    2.210978   -4.396022    0.000000    1.000000
    89  Na    c    -2.064988    2.210978   -4.396022    0.000000    1.000000
    90  Na    c     6.470890   -4.396022    2.210978    0.000000    1.000000
    91  Na    c    -2.064988   -4.396022    2.210978    0.000000    1.000000
    92  Na    c     6.588379    6.586039   -0.008126    0.000000    1.000000
    93  Na    c    -2.182477    6.586039   -0.008126    0.000000    1.000000
    94  Na    c     6.588379   -0.008126    6.586039    0.000000    1.000000
    95  Na    c    -2.182477   -0.008126    6.586039    0.000000    1.000000
    96  Cl    c     8.841112   -0.012393    4.394915    0.000000    1.485000
    97  Cl    c     8.841112    4.394915   -0.012393    0.000000    1.485000
    98  Cl    c    -4.435209   -0.012393    4.394915    0.000000    1.485000
    99  Cl    c    -4.435209    4.394915   -0.012393    0.000000    1.485000
   100  Na    c     8.801129    2.228247   -2.290792    0.000000    1.000000
   101  Na    c     8.801129   -2.290792    2.228247    0.000000    1.000000
   102  Na    c    -4.395227    2.228247   -2.290792    0.000000    1.000000
   103  Na    c    -4.395227   -2.290792    2.228247    0.000000    1.000000
   104  O     c     2.202951    2.208623   -6.637844    0.000000    0.183000
   105  O     c     2.202951   -6.637844    2.208623    0.000000    0.183000
   106  O     c     2.202951    6.568062    6.568062    0.000000    0.183000
   107  Na    c     2.202951    2.262293    8.777121    0.000000    1.000000
   108  Na    c     2.202951    8.777121    2.262293    0.000000    1.000000
   109  Na    c     2.202951    6.390526   -4.382641    0.000000    1.000000
   110  Na    c     2.202951   -4.382641    6.390526    0.000000    1.000000
   111  Na    c     2.202951   -6.537608   -0.001813    0.000000    1.000000
   112  Na    c     2.202951   -0.001813   -6.537608    0.000000    1.000000
   113  O     c     6.614350    6.606106   -2.219960    0.000000    0.183000
   114  O     c     6.614350   -2.219960    6.606106    0.000000    0.183000
   115  O     c    -2.208448    6.606106   -2.219960    0.000000    0.183000
   116  O     c    -2.208448   -2.219960    6.606106    0.000000    0.183000
   117  Na    c     6.594477    6.579673    4.398670    0.000000    1.000000
   118  Na    c    -2.188575    6.579673    4.398670    0.000000    1.000000
   119  Na    c     6.594477    4.398670    6.579673    0.000000    1.000000
   120  Na    c    -2.188575    4.398670    6.579673    0.000000    1.000000
   121  Na    c     6.589855   -2.216135   -4.422941    0.000000    1.000000
   122  Na    c    -2.183953   -2.216135   -4.422941    0.000000    1.000000
   123  Na    c     6.589855   -4.422941   -2.216135    0.000000    1.000000
   124  Na    c    -2.183953   -4.422941   -2.216135    0.000000    1.000000
   125  Cl    c     4.401325   -0.012201    8.823903    0.000000    1.485000
   126  Cl    c     0.004577   -0.012201    8.823903    0.000000    1.485000
   127  Cl    c     4.401325    8.823903   -0.012201    0.000000    1.485000
   128  Cl    c     0.004577    8.823903   -0.012201    0.000000    1.485000
   129  Cl    c     4.377977   -4.431558   -4.431558    0.000000    1.485000
   130  Cl    c     0.027926   -4.431558   -4.431558    0.000000    1.485000
   131  Cl    c     8.841162    4.404015    4.404015    0.000000    1.485000
   132  Cl    c    -4.435260    4.404015    4.404015    0.000000    1.485000
   133  Na    c     4.399028    2.188043   -6.640717    0.000000    1.000000
   134  Na    c     0.006874    2.188043   -6.640717    0.000000    1.000000
   135  Na    c     4.399028   -6.640717    2.188043    0.000000    1.000000
   136  Na    c     0.006874   -6.640717    2.188043    0.000000    1.000000
   137  Na    c     4.403163    6.572887    6.572887    0.000000    1.000000
   138  Na    c     0.002739    6.572887    6.572887    0.000000    1.000000
   139  Na    c     8.820101   -2.236232   -2.236232    0.000000    1.000000
   140  Na    c    -4.414198   -2.236232   -2.236232    0.000000    1.000000
   141  O     c     2.202951   -2.221956   -6.627422    0.000000    0.183000
   142  O     c     2.202951   -6.627422   -2.221956    0.000000    0.183000
   143  Na    c     2.202951   -2.291606    8.767638    0.000000    1.000000
   144  Na    c     2.202951    8.767638   -2.291606    0.000000    1.000000
   145  Na    c     2.202951   -6.744987    4.407094    0.000000    1.000000
   146  Na    c     2.202951    4.407094   -6.744987    0.000000    1.000000
   147  Cl    c     4.406111    4.397546    8.822215    0.000000    1.485000
   148  Cl    c    -0.000208    4.397546    8.822215    0.000000    1.485000
   149  Cl    c     4.406111    8.822215    4.397546    0.000000    1.485000
   150  Cl    c    -0.000208    8.822215    4.397546    0.000000    1.485000
   151  Cl    c     8.829964   -0.009515   -4.423717    0.000000    1.485000
   152  Cl    c    -4.424062   -0.009515   -4.423717    0.000000    1.485000
   153  Cl    c     8.829964   -4.423717   -0.009515    0.000000    1.485000
   154  Cl    c    -4.424062   -4.423717   -0.009515    0.000000    1.485000
   155  Na    c     4.409493   -2.184926   -6.621527    0.000000    1.000000
   156  Na    c    -0.003591   -2.184926   -6.621527    0.000000    1.000000
   157  Na    c     4.409493   -6.621527   -2.184926    0.000000    1.000000
   158  Na    c    -0.003591   -6.621527   -2.184926    0.000000    1.000000
   159  Na    c     8.796551    2.198912    6.547551    0.000000    1.000000
   160  Na    c    -4.390649    2.198912    6.547551    0.000000    1.000000
   161  Na    c     8.796551    6.547551    2.198912    0.000000    1.000000
   162  Na    c    -4.390649    6.547551    2.198912    0.000000    1.000000
   163  O     c     6.599513    2.194703   -6.608602    0.000000    0.183000
   164  O     c    -2.193611    2.194703   -6.608602    0.000000    0.183000
   165  O     c     6.599513   -6.608602    2.194703    0.000000    0.183000
   166  O     c    -2.193611   -6.608602    2.194703    0.000000    0.183000
   167  O     c     6.615385    6.608422    6.608422    0.000000    0.183000
   168  O     c    -2.209483    6.608422    6.608422    0.000000    0.183000
   169  Na    c     6.590991    2.201337    8.791275    0.000000    1.000000
   170  Na    c    -2.185089    2.201337    8.791275    0.000000    1.000000
   171  Na    c     6.590991    8.791275    2.201337    0.000000    1.000000
   172  Na    c    -2.185089    8.791275    2.201337    0.000000    1.000000
   173  Na    c     6.608210    6.597947   -4.409931    0.000000    1.000000
   174  Na    c    -2.202308    6.597947   -4.409931    0.000000    1.000000
   175  Na    c     6.608210   -4.409931    6.597947    0.000000    1.000000
   176  Na    c    -2.202308   -4.409931    6.597947    0.000000    1.000000
   177  Na    c     6.624364   -0.005726   -6.592093    0.000000    1.000000
   178  Na    c    -2.218461   -0.005726   -6.592093    0.000000    1.000000
   179  Na    c     6.624364   -6.592093   -0.005726    0.000000    1.000000
   180  Na    c    -2.218461   -6.592093   -0.005726    0.000000    1.000000
   181  O     c    11.007550    2.203388    2.203388    0.000000    0.183000
   182  O     c    -6.601647    2.203388    2.203388    0.000000    0.183000
   183  Na    c    10.940039    2.196233   -0.002304    0.000000    1.000000
   184  Na    c    -6.534136    2.196233   -0.002304    0.000000    1.000000
   185  Na    c    10.940039   -0.002304    2.196233    0.000000    1.000000
   186  Na    c    -6.534136   -0.002304    2.196233    0.000000    1.000000
   187  Cl    c     8.833013    4.408109   -4.419910    0.000000    1.485000
   188  Cl    c     8.833013   -4.419910    4.408109    0.000000    1.485000
   189  Cl    c    -4.427110    4.408109   -4.419910    0.000000    1.485000
   190  Cl    c    -4.427110   -4.419910    4.408109    0.000000    1.485000
   191  Na    c     8.807764    6.598926   -2.197433    0.000000    1.000000
   192  Na    c     8.807764   -2.197433    6.598926    0.000000    1.000000
   193  Na    c    -4.401861    6.598926   -2.197433    0.000000    1.000000
   194  Na    c    -4.401861   -2.197433    6.598926    0.000000    1.000000
   195  O     c     2.202951    6.593187   -6.609333    0.000000    0.183000
   196  O     c     2.202951   -6.609333    6.593187    0.000000    0.183000
   197  O     c     6.617284   -2.215229   -6.624889    0.000000    0.183000
   198  O     c    -2.211381   -2.215229   -6.624889    0.000000    0.183000
   199  O     c     6.617284   -6.624889   -2.215229    0.000000    0.183000
   200  O     c    -2.211381   -6.624889   -2.215229    0.000000    0.183000
   201  Na    c     2.202951    6.551166    8.778561    0.000000    1.000000
   202  Na    c     2.202951    8.778561    6.551166    0.000000    1.000000
   203  Na    c     2.202951   -6.662432   -4.421549    0.000000    1.000000
   204  Na    c     2.202951   -4.421549   -6.662432    0.000000    1.000000
   205  Na    c     6.589431   -2.207658    8.803539    0.000000    1.000000
   206  Na    c    -2.183528   -2.207658    8.803539    0.000000    1.000000
   207  Na    c     6.589431    8.803539   -2.207658    0.000000    1.000000
   208  Na    c    -2.183528    8.803539   -2.207658    0.000000    1.000000
   209  Na    c     6.587595    4.404270   -6.600777    0.000000    1.000000
   210  Na    c    -2.181692    4.404270   -6.600777    0.000000    1.000000
   211  Na    c     6.587595   -6.600777    4.404270    0.000000    1.000000
   212  Na    c    -2.181692   -6.600777    4.404270    0.000000    1.000000
   213  O     c    11.009914    2.203248   -2.209805    0.000000    0.183000
   214  O     c    11.009914   -2.209805    2.203248    0.000000    0.183000
   215  O     c    -6.604012    2.203248   -2.209805    0.000000    0.183000
   216  O     c    -6.604012   -2.209805    2.203248    0.000000    0.183000
   217  Na    c    11.035187    2.195894    4.402878    0.000000    1.000000
   218  Na    c    -6.629284    2.195894    4.402878    0.000000    1.000000
   219  Na    c    11.035187    4.402878    2.195894    0.000000    1.000000
   220  Na    c    -6.629284    4.402878    2.195894    0.000000    1.000000
   221  Na    c    10.985032   -2.197193    0.000403    0.000000    1.000000
   222  Na    c    -6.579130   -2.197193    0.000403    0.000000    1.000000
   223  Na    c    10.985032    0.000403   -2.197193    0.000000    1.000000
   224  Na    c    -6.579130    0.000403   -2.197193    0.000000    1.000000
   225  Cl    c     4.409793    8.822636   -4.411459    0.000000    1.485000
   226  Cl    c     4.409793   -4.411459    8.822636    0.000000    1.485000
   227  Cl    c    -0.003891    8.822636   -4.411459    0.000000    1.485000
   228  Cl    c    -0.003891   -4.411459    8.822636    0.000000    1.485000
   229  Na    c     4.404865    6.608756   -6.581620    0.000000    1.000000
   230  Na    c     4.404865   -6.581620    6.608756    0.000000    1.000000
   231  Na    c     0.001038    6.608756   -6.581620    0.000000    1.000000
   232  Na    c     0.001038   -6.581620    6.608756    0.000000    1.000000
   233  O     c     2.202951    2.205393   11.000972    0.000000    0.183000
   234  O     c     2.202951   11.000972    2.205393    0.000000    0.183000
   235  O     c    11.018850   -2.206884   -2.206884    0.000000    0.183000
   236  O     c    -6.612948   -2.206884   -2.206884    0.000000    0.183000
   237  Na    c     2.202951    2.154276   -8.826196    0.000000    1.000000
   238  Na    c     2.202951   -8.826196    2.154276    0.000000    1.000000
   239  Na    c     2.202951   10.954313   -0.004563    0.000000    1.000000
   240  Na    c     2.202951   -0.004563   10.954313    0.000000    1.000000
   241  Na    c    11.013432   -2.189407    4.406306    0.000000    1.000000
   242  Na    c    -6.607530   -2.189407    4.406306    0.000000    1.000000
   243  Na    c    11.013432    4.406306   -2.189407    0.000000    1.000000
   244  Na    c    -6.607530    4.406306   -2.189407    0.000000    1.000000
   245  Cl    c     4.405400   -0.006782   -8.840071    0.000000    1.485000
   246  Cl    c     0.000503   -0.006782   -8.840071    0.000000    1.485000
   247  Cl    c     4.405400   -8.840071   -0.006782    0.000000    1.485000
   248  Cl    c     0.000503   -8.840071   -0.006782    0.000000    1.485000
   249  Cl    c     8.821476   -0.003184    8.816858    0.000000    1.485000
   250  Cl    c     8.821476    8.816858   -0.003184    0.000000    1.485000
   251  Cl    c    -4.415574   -0.003184    8.816858    0.000000    1.485000
   252  Cl    c    -4.415574    8.816858   -0.003184    0.000000    1.485000
   253  Cl    c     8.824974   -4.430139   -4.430139    0.000000    1.485000
   254  Cl    c    -4.419072   -4.430139   -4.430139    0.000000    1.485000
   255  Na    c     4.402143    2.192049   10.997326    0.000000    1.000000
   256  Na    c     0.003759    2.192049   10.997326    0.000000    1.000000
   257  Na    c     4.402143   10.997326    2.192049    0.000000    1.000000
   258  Na    c     0.003759   10.997326    2.192049    0.000000    1.000000
   259  Na    c     8.803213    2.223088   -6.552277    0.000000    1.000000
   260  Na    c     8.803213   -6.552277    2.223088    0.000000    1.000000
   261  Na    c    -4.397311    2.223088   -6.552277    0.000000    1.000000
   262  Na    c    -4.397311   -6.552277    2.223088    0.000000    1.000000
   263  Na    c     8.810580    6.608077    6.608077    0.000000    1.000000
   264  Na    c    -4.404678    6.608077    6.608077    0.000000    1.000000
   265  O     c     2.202951   10.999823   -2.214705    0.000000    0.183000
   266  O     c     2.202951   -2.214705   10.999823    0.000000    0.183000
   267  O     c     6.613266    6.612364   -6.614231    0.000000    0.183000
   268  O     c     6.613266   -6.614231    6.612364    0.000000    0.183000
   269  O     c    -2.207364    6.612364   -6.614231    0.000000    0.183000
   270  O     c    -2.207364   -6.614231    6.612364    0.000000    0.183000
   271  O     c    11.014551    2.201342    6.602064    0.000000    0.183000
   272  O     c    11.014551    6.602064    2.201342    0.000000    0.183000
   273  O     c    -6.608648    2.201342    6.602064    0.000000    0.183000
   274  O     c    -6.608648    6.602064    2.201342    0.000000    0.183000
   275  Na    c     2.202951   11.015261    4.404287    0.000000    1.000000
   276  Na    c     2.202951    4.404287   11.015261    0.000000    1.000000
   277  Na    c     2.202951   -2.173088   -8.815297    0.000000    1.000000
   278  Na    c     2.202951   -8.815297   -2.173088    0.000000    1.000000
   279  Na    c     6.603795    6.604687    8.805014    0.000000    1.000000
   280  Na    c    -2.197893    6.604687    8.805014    0.000000    1.000000
   281  Na    c     6.603795    8.805014    6.604687    0.000000    1.000000
   282  Na    c    -2.197893    8.805014    6.604687    0.000000    1.000000
   283  Na    c     6.611000   -6.622458   -4.411184    0.000000    1.000000
   284  Na    c    -2.205098   -6.622458   -4.411184    0.000000    1.000000
   285  Na    c     6.611000   -4.411184   -6.622458    0.000000    1.000000
   286  Na    c    -2.205098   -4.411184   -6.622458    0.000000    1.000000
   287  Na    c    11.048331    2.206214   -4.406271    0.000000    1.000000
   288  Na    c    -6.642429    2.206214   -4.406271    0.000000    1.000000
   289  Na    c    11.048331   -4.406271    2.206214    0.000000    1.000000
   290  Na    c    -6.642429   -4.406271    2.206214    0.000000    1.000000
   291  Na    c    11.002855    6.616265    0.000966    0.000000    1.000000
   292  Na    c    -6.596953    6.616265    0.000966    0.000000    1.000000
   293  Na    c    11.002855    0.000966    6.616265    0.000000    1.000000
   294  Na    c    -6.596953    0.000966    6.616265    0.000000    1.000000
   295  Cl    c     8.824835    8.820264    4.408491    0.000000    1.485000
   296  Cl    c    -4.418933    8.820264    4.408491    0.000000    1.485000
   297  Cl    c     8.824835    4.408491    8.820264    0.000000    1.485000
   298  Cl    c    -4.418933    4.408491    8.820264    0.000000    1.485000
   299  Na    c     8.814033   -6.598966   -2.216498    0.000000    1.000000
   300  Na    c    -4.408131   -6.598966   -2.216498    0.000000    1.000000
   301  Na    c     8.814033   -2.216498   -6.598966    0.000000    1.000000
   302  Na    c    -4.408131   -2.216498   -6.598966    0.000000    1.000000
   303  Cl    c     4.408747    4.403928   -8.838407    0.000000    1.485000
   304  Cl    c     4.408747   -8.838407    4.403928    0.000000    1.485000
   305  Cl    c    -0.002844    4.403928   -8.838407    0.000000    1.485000
   306  Cl    c    -0.002844   -8.838407    4.403928    0.000000    1.485000
   307  Na    c     4.402784   10.995104   -2.193223    0.000000    1.000000
   308  Na    c     4.402784   -2.193223   10.995104    0.000000    1.000000
   309  Na    c     0.003118   10.995104   -2.193223    0.000000    1.000000
   310  Na    c     0.003118   -2.193223   10.995104    0.000000    1.000000
   311  O     c     2.202951   -6.621274   -6.621274    0.000000    0.183000
   312  O     c     6.608028    2.200220   11.009439    0.000000    0.183000
   313  O     c     6.608028   11.009439    2.200220    0.000000    0.183000
   314  O     c    -2.202125    2.200220   11.009439    0.000000    0.183000
   315  O     c    -2.202125   11.009439    2.200220    0.000000    0.183000
   316  O     c    11.017459    6.610922   -2.202392    0.000000    0.183000
   317  O     c    11.017459   -2.202392    6.610922    0.000000    0.183000
   318  O     c    -6.611557    6.610922   -2.202392    0.000000    0.183000
   319  O     c    -6.611557   -2.202392    6.610922    0.000000    0.183000
   320  Na    c     2.202951   -6.530983    8.795914    0.000000    1.000000
   321  Na    c     2.202951    8.795914   -6.530983    0.000000    1.000000
   322  Na    c     6.623802    2.201403   -8.807131    0.000000    1.000000
   323  Na    c    -2.217900    2.201403   -8.807131    0.000000    1.000000
   324  Na    c     6.623802   -8.807131    2.201403    0.000000    1.000000
   325  Na    c    -2.217900   -8.807131    2.201403    0.000000    1.000000
   326  Na    c     6.608125   11.000298   -0.000998    0.000000    1.000000
   327  Na    c    -2.202222   11.000298   -0.000998    0.000000    1.000000
   328  Na    c     6.608125   -0.000998   11.000298    0.000000    1.000000
   329  Na    c    -2.202222   -0.000998   11.000298    0.000000    1.000000
   330  Na    c    11.000829    6.604659    4.404520    0.000000    1.000000
   331  Na    c    -6.594927    6.604659    4.404520    0.000000    1.000000
   332  Na    c    11.000829    4.404520    6.604659    0.000000    1.000000
   333  Na    c    -6.594927    4.404520    6.604659    0.000000    1.000000
   334  Na    c    11.026031   -2.194450   -4.405822    0.000000    1.000000
   335  Na    c    -6.620128   -2.194450   -4.405822    0.000000    1.000000
   336  Na    c    11.026031   -4.405822   -2.194450    0.000000    1.000000
   337  Na    c    -6.620128   -4.405822   -2.194450    0.000000    1.000000
   338  Cl    c     4.415193    8.817432    8.817432    0.000000    1.485000
   339  Cl    c    -0.009291    8.817432    8.817432    0.000000    1.485000
   340  Cl    c    13.243556   -0.003684   -0.003684    0.000000    1.485000
   341  Cl    c    -8.837653   -0.003684   -0.003684    0.000000    1.485000
   342  Na    c     4.406896   -6.608066   -6.608066    0.000000    1.000000
   343  Na    c    -0.000994   -6.608066   -6.608066    0.000000    1.000000
   344  Na    c    13.209449    2.178950    2.178950    0.000000    1.000000
   345  Na    c    -8.803547    2.178950    2.178950    0.000000    1.000000
   346  O     c     6.611426   11.017402   -2.205746    0.000000    0.183000
   347  O     c    -2.205524   11.017402   -2.205746    0.000000    0.183000
   348  O     c     6.611426   -2.205746   11.017402    0.000000    0.183000
   349  O     c    -2.205524   -2.205746   11.017402    0.000000    0.183000
   350  Na    c     6.595938   10.998640    4.402496    0.000000    1.000000
   351  Na    c    -2.190036   10.998640    4.402496    0.000000    1.000000
   352  Na    c     6.595938    4.402496   10.998640    0.000000    1.000000
   353  Na    c    -2.190036    4.402496   10.998640    0.000000    1.000000
   354  Na    c     6.616685   -8.814783   -2.194415    0.000000    1.000000
[...]
    115 y         11.014756     11.017402     0.002647    Cartesian    0.02
    115 z         -2.202951     -2.205746    -0.002795    Cartesian    0.13
    116 x          6.608853      6.595938    -0.012915    Cartesian   -0.20
    116 y         11.014756     10.998640    -0.016116    Cartesian   -0.15
    116 z          4.405902      4.402496    -0.003406    Cartesian   -0.08
    117 x          6.608853      6.616685     0.007831    Cartesian    0.12
    117 y         -8.811805     -8.814783    -0.002978    Cartesian    0.03
    117 z         -2.202951     -2.194415     0.008536    Cartesian   -0.39
    118 x          2.202951      2.202951     0.000000    Cartesian    0.00
    118 y          6.608853      6.607858    -0.000995    Cartesian   -0.02
    118 z         11.014756     11.009145    -0.005611    Cartesian   -0.05
    119 x          2.202951      2.202951     0.000000    Cartesian    0.00
    119 y          6.608853      6.655914     0.047061    Cartesian    0.71
    119 z         -8.811805     -8.807932     0.003872    Cartesian   -0.04
    120 x          2.202951      2.202951     0.000000    Cartesian    0.00
    120 y         11.014756     11.021464     0.006708    Cartesian    0.06
    120 z         -4.405902     -4.405425     0.000477    Cartesian   -0.01
    121 x          4.405902      4.409483     0.003580    Cartesian    0.08
    121 y         -4.405902     -4.426034    -0.020131    Cartesian    0.46
    121 z         -8.811805     -8.831781    -0.019976    Cartesian    0.23
    122 x          8.811805      8.827079     0.015274    Cartesian    0.17
    122 y          8.811805      8.826611     0.014807    Cartesian    0.17
    122 z         -4.405902     -4.420943    -0.015041    Cartesian    0.34
    123 x         13.217707     13.240008     0.022301    Cartesian    0.17
    123 y          0.000000     -0.003534    -0.003534    Cartesian    0.00
    123 z          4.405902      4.408101     0.002199    Cartesian    0.05
    124 x          4.405902      4.402754    -0.003148    Cartesian   -0.07
    124 y          6.608853      6.607133    -0.001721    Cartesian   -0.03
    124 z         11.014756     10.989360    -0.025396    Cartesian   -0.23
    125 x          8.811805      8.809531    -0.002273    Cartesian   -0.03
    125 y          6.608853      6.602399    -0.006454    Cartesian   -0.10
    125 z         -6.608853     -6.604075     0.004778    Cartesian   -0.07
    126 x         13.217707     13.209992    -0.007715    Cartesian   -0.06
    126 y          2.202951      2.196567    -0.006384    Cartesian   -0.29
    126 z         -2.202951     -2.172364     0.030587    Cartesian   -1.39
    127 x          6.608853      6.611259     0.002406    Cartesian    0.04
    127 y         -6.608853     -6.615746    -0.006893    Cartesian    0.10
    127 z         -6.608853     -6.615746    -0.006893    Cartesian    0.10
    128 x         11.014756     11.020384     0.005628    Cartesian    0.05
    128 y          2.202951      2.205117     0.002166    Cartesian    0.10
    128 z         -6.608853     -6.610825    -0.001972    Cartesian    0.03
    129 x         11.014756     11.019453     0.004698    Cartesian    0.04
    129 y          6.608853      6.612222     0.003369    Cartesian    0.05
    129 z          6.608853      6.612222     0.003369    Cartesian    0.05
    130 x          6.608853      6.604769    -0.004084    Cartesian   -0.06
    130 y         -6.608853     -6.598199     0.010654    Cartesian   -0.16
    130 z          8.811805      8.809558    -0.002247    Cartesian   -0.03
    131 x         11.014756     10.985644    -0.029112    Cartesian   -0.26
    131 y          2.202951      2.205851     0.002900    Cartesian    0.13
    131 z          8.811805      8.803666    -0.008139    Cartesian   -0.09
    132 x         11.014756     10.998636    -0.016120    Cartesian   -0.15
    132 y          6.608853      6.600416    -0.008437    Cartesian   -0.13
    132 z         -4.405902     -4.402967     0.002935    Cartesian   -0.07
    133 x         11.014756     10.989733    -0.025023    Cartesian   -0.23
    133 y          0.000000      0.002756     0.002756    Cartesian    0.00
    133 z         -6.608853     -6.603404     0.005449    Cartesian   -0.08
    134 x         13.217707     13.238876     0.021169    Cartesian    0.16
    134 y          4.405902      4.409370     0.003468    Cartesian    0.08
    134 z          4.405902      4.409370     0.003468    Cartesian    0.08
    135 x         13.217707     13.213431    -0.004276    Cartesian   -0.03
    135 y         -2.202951     -2.186655     0.016296    Cartesian   -0.74
    135 z         -2.202951     -2.186655     0.016296    Cartesian   -0.74
    136 x          8.811805      8.822173     0.010369    Cartesian    0.12
    136 y          0.000000     -0.006230    -0.006230    Cartesian    0.00
    136 z         -8.811805     -8.836168    -0.024363    Cartesian    0.28
    137 x          8.811805      8.806020    -0.005785    Cartesian   -0.07
    137 y          2.202951      2.204564     0.001613    Cartesian    0.07
    137 z         11.014756     10.993533    -0.021223    Cartesian   -0.19
    138 x          2.202951      2.202951     0.000000    Cartesian    0.00
    138 y          2.202951      2.067694    -0.135258    Cartesian   -6.14
    138 z          2.202951      2.067694    -0.135258    Cartesian   -6.14
    139 x          4.405902      4.705040     0.299138    Cartesian    6.79
    139 y          0.000000     -0.123738    -0.123738    Cartesian    0.00
    139 z          0.000000     -0.123738    -0.123738    Cartesian    0.00
    140 x          2.202951      2.202951     0.000000    Cartesian    0.00
    140 y          2.202951      2.070304    -0.132648    Cartesian   -6.02
    140 z         -2.202951     -2.325895    -0.122944    Cartesian    5.58
    141 x          4.405902      4.526544     0.120642    Cartesian    2.74
    141 y          0.000000     -0.059223    -0.059223    Cartesian    0.00
    141 z          4.405902      4.496771     0.090868    Cartesian    2.06
    142 x          2.202951      2.202951     0.000000    Cartesian    0.00
    142 y         -2.202951     -2.216765    -0.013814    Cartesian    0.63
    142 z         -2.202951     -2.216765    -0.013814    Cartesian    0.63
    143 x          6.608853      6.593271    -0.015582    Cartesian   -0.24
    143 y          2.202951      2.173530    -0.029421    Cartesian   -1.34
    143 z          2.202951      2.173530    -0.029421    Cartesian   -1.34
    144 x          4.405902      4.486974     0.081072    Cartesian    1.84
    144 y          4.405902      4.454736     0.048834    Cartesian    1.11
    144 z          4.405902      4.454736     0.048834    Cartesian    1.11
    145 x          2.202951      2.202951     0.000000    Cartesian    0.00
    145 y          2.202951      2.156826    -0.046125    Cartesian   -2.09
    145 z          6.608853      6.547789    -0.061065    Cartesian   -0.92
    146 x          6.608853      6.600122    -0.008732    Cartesian   -0.13
    146 y          2.202951      2.194341    -0.008610    Cartesian   -0.39
    146 z         -2.202951     -2.213526    -0.010575    Cartesian    0.48
    147 x          4.405902      4.428721     0.022818    Cartesian    0.52
    147 y          0.000000     -0.109434    -0.109434    Cartesian    0.00
    147 z         -4.405902     -4.498663    -0.092761    Cartesian    2.11
    148 x          2.202951      2.202951     0.000000    Cartesian    0.00
    148 y          6.608853      6.534870    -0.073983    Cartesian   -1.12
    148 z         -2.202951     -2.188948     0.014003    Cartesian   -0.64
    149 x          6.608853      6.636767     0.027913    Cartesian    0.42
    149 y         -2.202951     -2.237393    -0.034442    Cartesian    1.56
    149 z         -2.202951     -2.237393    -0.034442    Cartesian    1.56
    150 x          8.811805      8.865695     0.053890    Cartesian    0.61
    150 y          0.000000     -0.014675    -0.014675    Cartesian    0.00
    150 z          0.000000     -0.014675    -0.014675    Cartesian    0.00
    151 x          4.405902      4.447055     0.041153    Cartesian    0.93
    151 y          4.405902      4.427338     0.021436    Cartesian    0.49
    151 z         -4.405902     -4.493942    -0.088040    Cartesian    2.00
    152 x          6.608853      6.600515    -0.008338    Cartesian   -0.13
    152 y          2.202951      2.198416    -0.004535    Cartesian   -0.21
    152 z          6.608853      6.590616    -0.018237    Cartesian   -0.28
    153 x          8.811805      8.846012     0.034208    Cartesian    0.39
    153 y          0.000000     -0.013387    -0.013387    Cartesian    0.00
    153 z          4.405902      4.393305    -0.012598    Cartesian   -0.29
    154 x          2.202951      2.202951     0.000000    Cartesian    0.00
    154 y          2.202951      2.208657     0.005706    Cartesian    0.26
    154 z         -6.608853     -6.637879    -0.029025    Cartesian    0.44
    155 x          2.202951      2.202951     0.000000    Cartesian    0.00
    155 y          6.608853      6.568058    -0.040796    Cartesian   -0.62
    155 z          6.608853      6.568058    -0.040796    Cartesian   -0.62
    156 x          6.608853      6.614360     0.005507    Cartesian    0.08
    156 y          6.608853      6.606106    -0.002747    Cartesian   -0.04
    156 z         -2.202951     -2.219973    -0.017022    Cartesian    0.77
    157 x          4.405902      4.400834    -0.005068    Cartesian   -0.12
    157 y          0.000000     -0.012824    -0.012824    Cartesian    0.00
    157 z          8.811805      8.827373     0.015569    Cartesian    0.18
    158 x          4.405902      4.371214    -0.034688    Cartesian   -0.79
    158 y         -4.405902     -4.431081    -0.025179    Cartesian    0.57
    158 z         -4.405902     -4.431081    -0.025179    Cartesian    0.57
    159 x          8.811805      8.846879     0.035075    Cartesian    0.40
    159 y          4.405902      4.403885    -0.002018    Cartesian   -0.05
    159 z          4.405902      4.403885    -0.002018    Cartesian   -0.05
    160 x          2.202951      2.202951     0.000000    Cartesian    0.00
    160 y         -2.202951     -2.221983    -0.019032    Cartesian    0.86
    160 z         -6.608853     -6.627408    -0.018555    Cartesian    0.28
    161 x          4.405902      4.406898     0.000996    Cartesian    0.02
    161 y          4.405902      4.397833    -0.008070    Cartesian   -0.18
    161 z          8.811805      8.827432     0.015627    Cartesian    0.18
    162 x          8.811805      8.832995     0.021191    Cartesian    0.24
    162 y          0.000000     -0.010833    -0.010833    Cartesian    0.00
    162 z         -4.405902     -4.424991    -0.019089    Cartesian    0.43
    163 x          6.608853      6.599493    -0.009360    Cartesian   -0.14
    163 y          2.202951      2.194701    -0.008251    Cartesian   -0.37
    163 z         -6.608853     -6.608615     0.000239    Cartesian   -0.00
    164 x          6.608853      6.615394     0.006541    Cartesian    0.10
    164 y          6.608853      6.608426    -0.000428    Cartesian   -0.01
    164 z          6.608853      6.608426    -0.000428    Cartesian   -0.01
    165 x         11.014756     11.007550    -0.007206    Cartesian   -0.07
    165 y          2.202951      2.203401     0.000450    Cartesian    0.02
    165 z          2.202951      2.203401     0.000450    Cartesian    0.02
    166 x          8.811805      8.837194     0.025389    Cartesian    0.29
    166 y          4.405902      4.408001     0.002098    Cartesian    0.05
    166 z         -4.405902     -4.421582    -0.015680    Cartesian    0.36
    167 x          2.202951      2.202951     0.000000    Cartesian    0.00
    167 y          6.608853      6.593156    -0.015698    Cartesian   -0.24
    167 z         -6.608853     -6.609377    -0.000524    Cartesian    0.01
    168 x          6.608853      6.617292     0.008438    Cartesian    0.13
    168 y         -2.202951     -2.215236    -0.012285    Cartesian    0.56
    168 z         -6.608853     -6.624892    -0.016038    Cartesian    0.24
    169 x         11.014756     11.009917    -0.004839    Cartesian   -0.04
    169 y          2.202951      2.203250     0.000299    Cartesian    0.01
    169 z         -2.202951     -2.209820    -0.006869    Cartesian    0.31
    170 x          4.405902      4.410466     0.004564    Cartesian    0.10
    170 y          8.811805      8.826806     0.015001    Cartesian    0.17
    170 z         -4.405902     -4.413059    -0.007156    Cartesian    0.16
    171 x          2.202951      2.202951     0.000000    Cartesian    0.00
    171 y          2.202951      2.205411     0.002460    Cartesian    0.11
    171 z         11.014756     11.000974    -0.013782    Cartesian   -0.13
    172 x         11.014756     11.018846     0.004090    Cartesian    0.04
    172 y         -2.202951     -2.206892    -0.003941    Cartesian    0.18
    172 z         -2.202951     -2.206892    -0.003941    Cartesian    0.18
    173 x          4.405902      4.404317    -0.001585    Cartesian   -0.04
    173 y          0.000000     -0.007179    -0.007179    Cartesian    0.00
    173 z         -8.811805     -8.843319    -0.031515    Cartesian    0.36
    174 x          8.811805      8.824172     0.012367    Cartesian    0.14
    174 y          0.000000     -0.003420    -0.003420    Cartesian    0.00
    174 z          8.811805      8.818951     0.007147    Cartesian    0.08
    175 x          8.811805      8.826370     0.014565    Cartesian    0.17
    175 y         -4.405902     -4.432069    -0.026167    Cartesian    0.59
    175 z         -4.405902     -4.432069    -0.026167    Cartesian    0.59
    176 x          2.202951      2.202951     0.000000    Cartesian    0.00
    176 y         11.014756     10.999834    -0.014921    Cartesian   -0.14
    176 z         -2.202951     -2.214731    -0.011780    Cartesian    0.53
    177 x          6.608853      6.613273     0.004420    Cartesian    0.07
    177 y          6.608853      6.612372     0.003518    Cartesian    0.05
    177 z         -6.608853     -6.614226    -0.005373    Cartesian    0.08
    178 x         11.014756     11.014562    -0.000193    Cartesian   -0.00
    178 y          2.202951      2.201339    -0.001613    Cartesian   -0.07
    178 z          6.608853      6.602056    -0.006797    Cartesian   -0.10
    179 x          8.811805      8.827691     0.015886    Cartesian    0.18
    179 y          8.811805      8.822780     0.010975    Cartesian    0.12
    179 z          4.405902      4.409063     0.003161    Cartesian    0.07
    180 x          4.405902      4.407862     0.001960    Cartesian    0.04
    180 y          4.405902      4.403245    -0.002657    Cartesian   -0.06
    180 z         -8.811805     -8.839024    -0.027219    Cartesian    0.31
    181 x          2.202951      2.202951     0.000000    Cartesian    0.00
    181 y         -6.608853     -6.621286    -0.012433    Cartesian    0.19
    181 z         -6.608853     -6.621286    -0.012433    Cartesian    0.19
    182 x          6.608853      6.608032    -0.000821    Cartesian   -0.01
    182 y          2.202951      2.200219    -0.002732    Cartesian   -0.12
    182 z         11.014756     11.009441    -0.005314    Cartesian   -0.05
    183 x         11.014756     11.017463     0.002707    Cartesian    0.02
    183 y          6.608853      6.610923     0.002069    Cartesian    0.03
    183 z         -2.202951     -2.202393     0.000559    Cartesian   -0.03
    184 x          4.405902      4.418082     0.012180    Cartesian    0.28
    184 y          8.811805      8.819661     0.007856    Cartesian    0.09
    184 z          8.811805      8.819661     0.007856    Cartesian    0.09
    185 x         13.217707     13.248642     0.030935    Cartesian    0.23
    185 y          0.000000     -0.004420    -0.004420    Cartesian    0.00
    185 z          0.000000     -0.004420    -0.004420    Cartesian    0.00
    186 x          6.608853      6.611430     0.002577    Cartesian    0.04
    186 y         11.014756     11.017410     0.002654    Cartesian    0.02
    186 z         -2.202951     -2.205749    -0.002798    Cartesian    0.13
    187 x          2.202951      2.202951     0.000000    Cartesian    0.00
    187 y          6.608853      6.607848    -0.001005    Cartesian   -0.02
    187 z         11.014756     11.009166    -0.005590    Cartesian   -0.05
    188 x          4.405902      4.409351     0.003449    Cartesian    0.08
    188 y         -4.405902     -4.428991    -0.023089    Cartesian    0.52
    188 z         -8.811805     -8.833115    -0.021311    Cartesian    0.24
    189 x          8.811805      8.829048     0.017243    Cartesian    0.20
    189 y          8.811805      8.828417     0.016613    Cartesian    0.19
    189 z         -4.405902     -4.423115    -0.017213    Cartesian    0.39
    190 x         13.217707     13.243094     0.025387    Cartesian    0.19
    190 y          0.000000     -0.004056    -0.004056    Cartesian    0.00
    190 z          4.405902      4.408740     0.002837    Cartesian    0.06
    191 x          6.608853      6.611263     0.002410    Cartesian    0.04
    191 y         -6.608853     -6.615753    -0.006900    Cartesian    0.10
    191 z         -6.608853     -6.615753    -0.006900    Cartesian    0.10
    192 x         11.014756     11.020405     0.005649    Cartesian    0.05
    192 y          2.202951      2.205122     0.002170    Cartesian    0.10
    192 z         -6.608853     -6.610818    -0.001964    Cartesian    0.03
    193 x         11.014756     11.019457     0.004702    Cartesian    0.04
    193 y          6.608853      6.612228     0.003375    Cartesian    0.05
    193 z          6.608853      6.612228     0.003375    Cartesian    0.05
    194 x         13.217707     13.241042     0.023335    Cartesian    0.18
    194 y          4.405902      4.410036     0.004134    Cartesian    0.09
    194 z          4.405902      4.410036     0.004134    Cartesian    0.09
    195 x          8.811805      8.823098     0.011293    Cartesian    0.13
    195 y          0.000000     -0.007678    -0.007678    Cartesian    0.00
    195 z         -8.811805     -8.839810    -0.028006    Cartesian    0.32
--------------------------------------------------------------------------------


  Time to end of optimisation  =       26.9137 seconds


  Peak dynamic memory used =      82.62 MB 


  Timing analysis for GULP :

--------------------------------------------------------------------------------
  Task / Subroutine                                          Time (Seconds)
--------------------------------------------------------------------------------
  Calculation of reciprocal space energy and derivatives          0.0007
  Calculation of reciprocal space energy using symmetry           0.0012
  Calculation of real space energy and derivatives                0.0038
  Calculation of real space energy using symmetry                 0.0123
  Calculation for region 1 energy and derivatives (2-b)          14.0406
  Calculation for region 2a energy                               11.1265
  Calculation for region 2b energy                                0.0059
  Calculation and manipulation of Hessian matrix                  1.4636
  Calculation of matrix inversion                                 0.1351
  Symmetry generation of equivalent positions                     0.0047
--------------------------------------------------------------------------------
  Total CPU time                                                 26.9139
--------------------------------------------------------------------------------


  Dump file written as Na3OCl.grs


  Job Finished at 13:03.11 26th September  2021                               

