********************************************************************************
*                       GENERAL UTILITY LATTICE PROGRAM                        *
*                                 Julian Gale                                  *
*                       Curtin Institute for Computation                       *
*                    School of Molecular and Life Sciences                     *
*                    Curtin University, Western Australia                      *
********************************************************************************
* Version = 5.2.0 * Last modified =  10th September 2020                       *
********************************************************************************
*  optimise     - perform optimisation run                                     *
*  conp         - constant pressure calculation                                *
*  property     - calculate properties for final geometry                      *
*  defect       - perform defect calculation after bulk run                    *
*  compare      - compare initial and final structures                         *
********************************************************************************

  Job Started  at 13:03.19 26th September  2021                               

  Number of CPUs =     1


  Total number of configurations input =      1

********************************************************************************
*  Input for Configuration =   1                                               *
********************************************************************************

  Formula = ClONa3                                                      

  Number of irreducible atoms/shells =       5


  Total number atoms/shells =       7

  Dimensionality = 3               :  Bulk   


  Symmetry :

  Crystal family                   :  Cubic       
  Crystal class  (Groth - 1921)    :  Cubic Hexakisoctahedral              

  Space group (centrosymmetric)    :  P M 3 M         

  Patterson group                  :  P m -3 m 

  Cartesian lattice vectors (Angstroms) :

        4.504000    0.000000    0.000000
        0.000000    4.504000    0.000000
        0.000000    0.000000    4.504000

  Cell parameters (Angstroms/Degrees):

  a =       4.5040    alpha =  90.0000
  b =       4.5040    beta  =  90.0000
  c =       4.5040    gamma =  90.0000

  Initial cell volume =          91.368216 Angs**3

  Temperature of configuration =   0.00     K 

  Pressure of configuration =         0.000 GPa 

  Fractional coordinates of asymmetric unit :

--------------------------------------------------------------------------------
   No.  Atomic       x           y          z         Charge      Occupancy
        Label      (Frac)      (Frac)     (Frac)        (e)         (Frac)  
--------------------------------------------------------------------------------
      1 Cl    c    0.000000    0.000000    0.000000     1.48500    1.000000    
      2 O     c    0.500000    0.500000    0.500000     0.18300    1.000000    
      3 Na    c    0.500000    0.500000    0.000000     1.00000    1.000000    
      4 Cl    s    0.000000    0.000000    0.000000    -2.48500    1.000000    
      5 O     s    0.500000    0.500000    0.500000    -2.18300    1.000000    
--------------------------------------------------------------------------------


  Constraints : 

--------------------------------------------------------------------------------
  Constraint no.      Unconstrained     Constrained    Coefficient    Offset
                         Variable         Variable
--------------------------------------------------------------------------------
           1              Strain 1        Strain 2       1.00000      0.0000
           2              Strain 1        Strain 3       1.00000      0.0000
--------------------------------------------------------------------------------


********************************************************************************
*  General input information                                                   *
********************************************************************************

  Species output for all configurations : 

--------------------------------------------------------------------------------
  Species    Type    Atomic    Atomic    Charge       Radii (Angs)     Library
                     Number     Mass       (e)     Cova   Ionic  VDW   Symbol
--------------------------------------------------------------------------------
    Na       Core       11      22.99   1.000000   0.970  0.000  2.300          
    O        Core        8      16.00   0.183000   0.730  0.000  1.360          
    O        Shell       8       0.00  -2.183000   0.730  0.000  1.360          
    Cl       Core       17      35.45   1.485000   0.990  0.000  1.650          
    Cl       Shell      17       0.00  -2.485000   0.990  0.000  1.650          
    Mg       Core       12      24.31   0.415000   1.100  0.000  0.000          
    Mg       Shell      12       0.00   1.585000   1.100  0.000  0.000          
    Ca       Core       20      40.08  -1.135000   0.990  0.000  0.000          
    Ca       Shell      20       0.00   3.135000   0.990  0.000  0.000          
    Sr       Core       38      87.62  -1.251000   1.120  0.000  0.000          
    Sr       Shell      38       0.00   3.251000   1.120  0.000  0.000          
    Ba       Core       56     137.33  -7.203000   1.340  0.000  0.000          
    Ba       Shell      56       0.00   9.203000   1.340  0.000  0.000          
    Al       Core       13      26.98   3.000000   1.350  0.000  0.000          
    Ga       Core       31      69.72   3.000000   1.220  0.000  0.000          
--------------------------------------------------------------------------------


  Lattice summation method               =    Ewald          (3-D)
                                         =    Parry          (2-D)
                                         =    Saunders et al (1-D)
  Accuracy factor for lattice sums       =   12.000


  Analytic derivatives to be used

  Time limit = Infinity

  Maximum range for interatomic potentials =    100000.000000 Angstroms

  General interatomic potentials :

--------------------------------------------------------------------------------
Atom  Types   Potential      Parameter       Value         Units   Cutoffs(Ang)
  1     2                                                            Min /  Max 
--------------------------------------------------------------------------------
O    c O    s Spring (c-s)  Spring k 2       593.71600    eV*Ang^-2 0.000  0.800
                            Spring k 4       0.0000000    eV*Ang^-4 
--------------------------------------------------------------------------------
Cl   c Cl   s Spring (c-s)  Spring k 2       29.380000    eV*Ang^-2 0.000  0.800
                            Spring k 4       0.0000000    eV*Ang^-4 
--------------------------------------------------------------------------------
Mg   c Mg   s Spring (c-s)  Spring k 2       361.60000    eV*Ang^-2 0.000  0.800
                            Spring k 4       0.0000000    eV*Ang^-4 
--------------------------------------------------------------------------------
Ca   c Ca   s Spring (c-s)  Spring k 2       110.20000    eV*Ang^-2 0.000  0.800
                            Spring k 4       0.0000000    eV*Ang^-4 
--------------------------------------------------------------------------------
Sr   c Sr   s Spring (c-s)  Spring k 2       71.700000    eV*Ang^-2 0.000  0.800
                            Spring k 4       0.0000000    eV*Ang^-4 
--------------------------------------------------------------------------------
Ba   c Ba   s Spring (c-s)  Spring k 2       495.20000    eV*Ang^-2 0.000  0.800
                            Spring k 4       0.0000000    eV*Ang^-4 
--------------------------------------------------------------------------------
Na   c Na   c Buckingham    Buckingham A     1788.1900    eV        0.000 12.000
                            Buckingham rho  0.15900000    Ang       
                            Buckingham C     0.0000000    eV*Ang^6  
--------------------------------------------------------------------------------
Na   c O    s Buckingham    Buckingham A     588.38000    eV        0.000 12.000
                            Buckingham rho  0.33800000    Ang       
                            Buckingham C     0.0000000    eV*Ang^6  
--------------------------------------------------------------------------------
Na   c Cl   s Buckingham    Buckingham A     1170.4100    eV        0.000 12.000
                            Buckingham rho  0.31500000    Ang       
                            Buckingham C     0.0000000    eV*Ang^6  
--------------------------------------------------------------------------------
O    s O    s Buckingham    Buckingham A     22764.300    eV        0.000 12.000
                            Buckingham rho  0.14900000    Ang       
                            Buckingham C     13.190000    eV*Ang^6  
--------------------------------------------------------------------------------
O    s Cl   s Buckingham    Buckingham A     8286.9100    eV        0.000 12.000
                            Buckingham rho  0.25900000    Ang       
                            Buckingham C     62.200000    eV*Ang^6  
--------------------------------------------------------------------------------
Cl   s Cl   s Buckingham    Buckingham A     1227.2000    eV        0.000 12.000
                            Buckingham rho  0.32100000    Ang       
                            Buckingham C     14.530000    eV*Ang^6  
--------------------------------------------------------------------------------
O    s Mg   s Buckingham    Buckingham A     1428.5000    eV        0.000 12.000
                            Buckingham rho  0.29450000    Ang       
                            Buckingham C     0.0000000    eV*Ang^6  
--------------------------------------------------------------------------------
Mg   s Cl   s Buckingham    Buckingham A     4914.5400    eV        0.000 12.000
                            Buckingham rho  0.25700000    Ang       
                            Buckingham C     0.0000000    eV*Ang^6  
--------------------------------------------------------------------------------
O    s Ca   s Buckingham    Buckingham A     1090.4000    eV        0.000 12.000
                            Buckingham rho  0.34370000    Ang       
                            Buckingham C     0.0000000    eV*Ang^6  
--------------------------------------------------------------------------------
Cl   s Ca   s Buckingham    Buckingham A     2302.0000    eV        0.000 12.000
                            Buckingham rho  0.34020000    Ang       
                            Buckingham C     0.0000000    eV*Ang^6  
--------------------------------------------------------------------------------
O    s Sr   s Buckingham    Buckingham A     959.10000    eV        0.000 12.000
                            Buckingham rho  0.37210000    Ang       
                            Buckingham C     0.0000000    eV*Ang^6  
--------------------------------------------------------------------------------
Cl   s Sr   s Buckingham    Buckingham A     2191.0900    eV        0.000 12.000
                            Buckingham rho  0.34570000    Ang       
                            Buckingham C     0.0000000    eV*Ang^6  
--------------------------------------------------------------------------------
O    s Ba   s Buckingham    Buckingham A     905.70000    eV        0.000 12.000
                            Buckingham rho  0.39760000    Ang       
                            Buckingham C     0.0000000    eV*Ang^6  
--------------------------------------------------------------------------------
Cl   s Ba   s Buckingham    Buckingham A     2704.5500    eV        0.000 12.000
                            Buckingham rho  0.35280000    Ang       
                            Buckingham C     0.0000000    eV*Ang^6  
--------------------------------------------------------------------------------
Al   c O    s Buckingham    Buckingham A     1725.0000    eV        0.000 12.000
                            Buckingham rho  0.28970000    Ang       
                            Buckingham C     0.0000000    eV*Ang^6  
--------------------------------------------------------------------------------
Al   c Cl   s Buckingham    Buckingham A     1736.1200    eV        0.000 12.000
                            Buckingham rho  0.29170000    Ang       
                            Buckingham C     0.0000000    eV*Ang^6  
--------------------------------------------------------------------------------
Ga   c O    s Buckingham    Buckingham A     2901.1200    eV        0.000 12.000
                            Buckingham rho  0.27420000    Ang       
                            Buckingham C     0.0000000    eV*Ang^6  
--------------------------------------------------------------------------------
Ga   c Cl   s Buckingham    Buckingham A     924.20000    eV        0.000 12.000
                            Buckingham rho  0.34280000    Ang       
                            Buckingham C     0.0000000    eV*Ang^6  
--------------------------------------------------------------------------------

********************************************************************************
*  Output for configuration   1                                                *
********************************************************************************


  Components of energy : 

--------------------------------------------------------------------------------
  Interatomic potentials     =           4.94315381 eV    
  Monopole - monopole (real) =         -10.03624526 eV    
  Monopole - monopole (recip)=         -29.53581274 eV    
  Monopole - monopole (total)=         -39.57205800 eV    
--------------------------------------------------------------------------------
  Total lattice energy       =         -34.62890419 eV    
--------------------------------------------------------------------------------
  Total lattice energy       =           -3341.1599 kJ/(mole unit cells)
--------------------------------------------------------------------------------


  Number of variables =        1

  Maximum number of calculations  =          1000
  Maximum Hessian update interval =            10
  Maximum step size               =   1.000000000
  Maximum parameter tolerance     =   0.000010000
  Maximum function  tolerance     =   0.000010000
  Maximum gradient  tolerance     =   0.001000000
  Maximum gradient  component     =   0.010000000

  Symmetry constrained optimisation

  Symmetry used for second derivatives

  Cell parameters to be optimised using strains

  Newton-Raphson optimiser to be used

  BFGS hessian update to be used

  Lower half triangular hessian to be used

  Start of bulk optimisation :

  Cycle:      0 Energy:       -34.628904  Gnorm:      4.328237  CPU:    0.016
  ** Hessian calculated **
  Cycle:      1 Energy:       -34.677667  Gnorm:      0.044008  CPU:    0.020
  Cycle:      2 Energy:       -34.677671  Gnorm:      0.003653  CPU:    0.023


  **** Optimisation achieved ****


  Final energy =     -34.67767136 eV
  Final Gnorm  =       0.00000010

  Components of energy : 

--------------------------------------------------------------------------------
  Interatomic potentials     =           5.77546103 eV    
  Monopole - monopole (real) =         -10.25970290 eV    
  Monopole - monopole (recip)=         -30.19342950 eV    
  Monopole - monopole (total)=         -40.45313239 eV    
--------------------------------------------------------------------------------
  Total lattice energy       =         -34.67767136 eV    
--------------------------------------------------------------------------------
  Total lattice energy       =           -3345.8652 kJ/(mole unit cells)
--------------------------------------------------------------------------------

  Final asymmetric unit coordinates :

--------------------------------------------------------------------------------
   No.  Atomic        x           y           z         Radius
        Label       (Frac)      (Frac)      (Frac)       (Angs) 
--------------------------------------------------------------------------------
     1  Cl    c     0.000000    0.000000    0.000000    0.000000
     2  O     c     0.500000    0.500000    0.500000    0.000000
     3  Na    c     0.500000    0.500000    0.000000    0.000000
     4  Cl    s     0.000000    0.000000    0.000000    0.000000
     5  O     s     0.500000    0.500000    0.500000    0.000000
--------------------------------------------------------------------------------

  Final Cartesian lattice vectors (Angstroms) :

        4.405902    0.000000    0.000000
        0.000000    4.405902    0.000000
        0.000000    0.000000    4.405902


  Final cell parameters and derivatives :

--------------------------------------------------------------------------------
       a            4.405902 Angstrom     dE/de1(xx)     0.000000 eV/strain
       b            4.405902 Angstrom     dE/de2(yy)     0.000000 eV/strain
       c            4.405902 Angstrom     dE/de3(zz)     0.000000 eV/strain
       alpha       90.000000 Degrees      dE/de4(yz)     0.000000 eV/strain
       beta        90.000000 Degrees      dE/de5(xz)     0.000000 eV/strain
       gamma       90.000000 Degrees      dE/de6(xy)     0.000000 eV/strain
--------------------------------------------------------------------------------

  Primitive cell volume =            85.527266 Angs**3

  Density of cell =      2.338030 g/cm**3

  Non-primitive cell volume =            85.527266 Angs**3


  Final internal derivatives :

--------------------------------------------------------------------------------
   No.  Atomic          a             b             c           Radius
        Label          (eV)          (eV)          (eV)        (eV/Angs)
--------------------------------------------------------------------------------
      1 Cl    c       0.000000      0.000000      0.000000      0.000000
      2 O     c       0.000000      0.000000      0.000000      0.000000
      3 Na    c       0.000000      0.000000      0.000000      0.000000
      4 Cl    s       0.000000      0.000000      0.000000      0.000000
      5 O     s       0.000000      0.000000      0.000000      0.000000
--------------------------------------------------------------------------------
  Maximum abs         0.000000      0.000000      0.000000      0.000000
--------------------------------------------------------------------------------

  Comparison of initial and final structures : 

--------------------------------------------------------------------------------
  Parameter   Initial value   Final value   Difference    Units      Percent
--------------------------------------------------------------------------------
    Volume        91.368216     85.527266    -5.840950    Angs**3     -6.39
    a              4.504000      4.405902    -0.098098    Angstroms   -2.18
    b              4.504000      4.405902    -0.098098    Angstroms   -2.18
    c              4.504000      4.405902    -0.098098    Angstroms   -2.18
    alpha         90.000000     90.000000     0.000000    Degrees      0.00
    beta          90.000000     90.000000     0.000000    Degrees      0.00
    gamma         90.000000     90.000000     0.000000    Degrees      0.00
      1 x          0.000000      0.000000     0.000000    Fractional   0.00
      1 y          0.000000      0.000000     0.000000    Fractional   0.00
      1 z          0.000000      0.000000     0.000000    Fractional   0.00
      2 x          0.500000      0.500000     0.000000    Fractional   0.00
      2 y          0.500000      0.500000     0.000000    Fractional   0.00
      2 z          0.500000      0.500000     0.000000    Fractional   0.00
      3 x          0.500000      0.500000     0.000000    Fractional   0.00
      3 y          0.500000      0.500000     0.000000    Fractional   0.00
      3 z          0.000000      0.000000     0.000000    Fractional   0.00
      4 x          0.000000      0.000000     0.000000    Fractional   0.00
      4 y          0.000000      0.000000     0.000000    Fractional   0.00
      4 z          0.000000      0.000000     0.000000    Fractional   0.00
      5 x          0.500000      0.500000     0.000000    Fractional   0.00
      5 y          0.500000      0.500000     0.000000    Fractional   0.00
      5 z          0.500000      0.500000     0.000000    Fractional   0.00
--------------------------------------------------------------------------------


  Born effective charge tensors : 

-------------------------------------------------------------------------------
  Atom             x           y             z
-------------------------------------------------------------------------------
    1 Cl    x      -0.9918     -0.0000     -0.0000
            y      -0.0000     -0.9918     -0.0000
            z      -0.0000     -0.0000     -0.9918
-------------------------------------------------------------------------------
    2 O     x      -2.2939      0.0000      0.0000
            y       0.0000     -2.2939      0.0000
            z       0.0000      0.0000     -2.2939
-------------------------------------------------------------------------------
    3 Na    x       1.2243      0.0000      0.0000
            y       0.0000      1.2243     -0.0000
            z       0.0000      0.0000      0.8372
-------------------------------------------------------------------------------




  Elastic Constant Matrix: (Units=GPa)

-------------------------------------------------------------------------------
  Indices      1         2         3         4         5         6    
-------------------------------------------------------------------------------
       1     82.7680   24.3534   24.3534   -0.0000    0.0000   -0.0000
       2     24.3534   82.7680   24.3534    0.0000   -0.0000   -0.0000
       3     24.3534   24.3534   82.7680    0.0000   -0.0000    0.0000
       4     -0.0000    0.0000    0.0000   24.3534   -0.0000    0.0000
       5      0.0000   -0.0000   -0.0000   -0.0000   24.3534    0.0000
       6     -0.0000   -0.0000    0.0000    0.0000    0.0000   24.3534
-------------------------------------------------------------------------------


  Elastic Compliance Matrix: (Units=1/GPa)

-------------------------------------------------------------------------------
  Indices      1         2         3         4         5         6    
-------------------------------------------------------------------------------
       1    0.013948 -0.003171 -0.003171  0.000000 -0.000000  0.000000
       2   -0.003171  0.013948 -0.003171 -0.000000  0.000000 -0.000000
       3   -0.003171 -0.003171  0.013948 -0.000000  0.000000 -0.000000
       4    0.000000 -0.000000 -0.000000  0.041062  0.000000 -0.000000
       5   -0.000000  0.000000  0.000000  0.000000  0.041062 -0.000000
       6    0.000000 -0.000000 -0.000000 -0.000000 -0.000000  0.041062
-------------------------------------------------------------------------------

  Mechanical properties :

-------------------------------------------------------------------------------
  Convention :                    Reuss         Voigt         Hill
-------------------------------------------------------------------------------
  Bulk  Modulus (GPa)     =      43.82493      43.82493      43.82493
  Shear Modulus (GPa)     =      26.08758      26.29496      26.19127
-------------------------------------------------------------------------------
  Velocity S-wave (km/s)  =       3.34035       3.35360       3.34698
  Velocity P-wave (km/s)  =       5.79842       5.80861       5.80351
-------------------------------------------------------------------------------
  Compressibility (1/GPa) =    0.02281806
-------------------------------------------------------------------------------
  Stress axis :                     x             y             z
-------------------------------------------------------------------------------
  Youngs Moduli (GPa)     =      71.69479      71.69479      71.69479
-------------------------------------------------------------------------------
  Poissons Ratio (x)      =                     0.22734       0.22734
  Poissons Ratio (y)      =       0.22734                     0.22734
  Poissons Ratio (z)      =       0.22734       0.22734
-------------------------------------------------------------------------------


  Piezoelectric Strain Matrix: (Units=C/m**2)

-------------------------------------------------------------------------------
  Indices      1         2         3         4         5         6    
-------------------------------------------------------------------------------
       x    -0.00000  -0.00000  -0.00000  -0.00000   0.00000  -0.00000
       y     0.00000  -0.00000   0.00000   0.00000  -0.00000   0.00000
       z    -0.00000  -0.00000   0.00000  -0.00000   0.00000  -0.00000
-------------------------------------------------------------------------------


  Piezoelectric Stress Matrix: (Units=10**-11 C/N)

-------------------------------------------------------------------------------
  Indices      1         2         3         4         5         6    
-------------------------------------------------------------------------------
       x     0.00000  -0.00000  -0.00000  -0.00000   0.00000  -0.00000
       y     0.00000  -0.00000   0.00000   0.00000  -0.00000   0.00000
       z    -0.00000  -0.00000   0.00000  -0.00000   0.00000  -0.00000
-------------------------------------------------------------------------------


  Static dielectric constant tensor : 

-------------------------------------------------------------------------------
              x         y         z
-------------------------------------------------------------------------------
       x    11.08357   0.00000   0.00000
       y     0.00000  11.08357   0.00000
       z     0.00000   0.00000  11.08357
--------------------------------------------------------------------------------

  High frequency dielectric constant tensor : 

-------------------------------------------------------------------------------
              x         y         z
-------------------------------------------------------------------------------
       x     1.50771   0.00000   0.00000
       y     0.00000   1.50771   0.00000
       z     0.00000   0.00000   1.50771
-------------------------------------------------------------------------------

  Static refractive indices : 

-------------------------------------------------------------------------------
    1 =    3.32920      2 =    3.32920      3 =    3.32920
-------------------------------------------------------------------------------

  High frequency refractive indices : 

-------------------------------------------------------------------------------
    1 =    1.22789      2 =    1.22789      3 =    1.22789
-------------------------------------------------------------------------------


  Time to end of optimisation =       0.0318 seconds

********************************************************************************
*  Defect calculation for configuration   1 :                                  *
********************************************************************************

  Total number of defects =      3

  Total charge on defect  =  -1.00

  Defect centre is at   0.5000   0.2500   0.2500  Frac

  Region 1 radius =  12.0000      Number of ions =    593

  Number of symmetry inequivalent region 1 ions  =    195

  Region 2 radius =  16.0000      Number of ions =    832

  Number of symmetry inequivalent region 2a ions =    242

  Region 2a mode = 4 : screened electrostatics due to region 1 
                       neglect correction to region 1 forces from 2a
                       region 2a displacements based on defects only

  Region 2a ions will only interact with defects in region 1

  Vacancies:

--------------------------------------------------------------------------------
    Specification type     Symbol/Number         x          y          z
--------------------------------------------------------------------------------
    Fractional                               0.500000   0.500000   0.000000
    Fractional                               0.500000   0.000000   0.500000
--------------------------------------------------------------------------------

  Interstitials:

--------------------------------------------------------------------------------
    Specification type     Symbol/Number         x          y          z
--------------------------------------------------------------------------------
    Atom/Fractional         Na               0.500000   0.225000   0.225000
--------------------------------------------------------------------------------


  Symmetry reduced region 1 (Relative to defect centre) :

--------------------------------------------------------------------------------
   No.   Atomic       x            y             z       Radius  Multiplicity   
         Label      (Angs)       (Angs)        (Angs)    (Angs)     
--------------------------------------------------------------------------------
     1  Na    c      0.0000      -0.1101      -0.1101    0.0000     1    Defect
     2  O     c      0.0000       1.1015 *     1.1015    0.0000     1          
     3  Cl    c      2.2030 *    -1.1015 *    -1.1015    0.0000     2          
     4  Na    c      2.2030 *     1.1015 *     1.1015    0.0000     2          
     5  O     c      0.0000       1.1015 *    -3.3044 *  0.0000     2          
     6  Na    c      0.0000       1.1015 *     3.3044 *  0.0000     2          
     7  Na    c      0.0000      -3.3044 *    -1.1015 *  0.0000     2          
     8  Cl    c      2.2030 *    -1.1015 *     3.3044 *  0.0000     4          
     9  Na    c      2.2030 *     1.1015 *    -3.3044 *  0.0000     4          
    10  O     c      0.0000      -3.3044 *    -3.3044    0.0000     1          
    11  Na    c      0.0000      -3.3044 *     3.3044 *  0.0000     2          
    12  O     c      4.4059 *     1.1015 *     1.1015    0.0000     2          
    13  Na    c      4.4059 *     1.1015 *    -1.1015 *  0.0000     4          
    14  Cl    c      2.2030 *     3.3044 *     3.3044    0.0000     2          
    15  Na    c      2.2030 *    -3.3044 *    -3.3044    0.0000     2          
    16  O     c      0.0000       1.1015 *     5.5074 *  0.0000     2          
    17  O     c      4.4059 *     1.1015 *    -3.3044 *  0.0000     4          
    18  Na    c      0.0000       1.1015 *    -5.5074 *  0.0000     2          
    19  Na    c      0.0000       5.5074 *    -1.1015 *  0.0000     2          
    20  Na    c      4.4059 *     1.1015 *     3.3044 *  0.0000     4          
    21  Na    c      4.4059 *    -1.1015 *    -3.3044 *  0.0000     4          
    22  Cl    c      2.2030 *    -1.1015 *    -5.5074 *  0.0000     4          
    23  Na    c      2.2030 *     1.1015 *     5.5074 *  0.0000     4          
    24  O     c      0.0000       5.5074 *    -3.3044 *  0.0000     2          
    25  Na    c      0.0000       5.5074 *     3.3044 *  0.0000     2          
    26  Na    c      0.0000      -3.3044 *    -5.5074 *  0.0000     2          
    27  O     c      4.4059 *    -3.3044 *    -3.3044    0.0000     2          
    28  Na    c      4.4059 *    -3.3044 *     3.3044 *  0.0000     4          
    29  Cl    c      6.6089 *    -1.1015 *    -1.1015    0.0000     2          
    30  Na    c      6.6089 *     1.1015 *     1.1015    0.0000     2          
    31  Cl    c      2.2030 *     3.3044 *    -5.5074 *  0.0000     4          
    32  Na    c      2.2030 *     5.5074 *    -3.3044 *  0.0000     4          
    33  O     c      4.4059 *     1.1015 *     5.5074 *  0.0000     4          
    34  Na    c      4.4059 *     1.1015 *    -5.5074 *  0.0000     4          
    35  Na    c      4.4059 *     5.5074 *    -1.1015 *  0.0000     4          
    36  Cl    c      6.6089 *    -1.1015 *     3.3044 *  0.0000     4          
    37  Na    c      6.6089 *     1.1015 *    -3.3044 *  0.0000     4          
    38  O     c      0.0000       1.1015 *    -7.7103 *  0.0000     2          
    39  O     c      0.0000       5.5074 *     5.5074    0.0000     1          
    40  Na    c      0.0000       1.1015 *     7.7103 *  0.0000     2          
    41  Na    c      0.0000       5.5074 *    -5.5074 *  0.0000     2          
    42  Na    c      0.0000      -7.7103 *    -1.1015 *  0.0000     2          
    43  O     c      4.4059 *     5.5074 *    -3.3044 *  0.0000     4          
    44  Na    c      4.4059 *     5.5074 *     3.3044 *  0.0000     4          
    45  Na    c      4.4059 *    -3.3044 *    -5.5074 *  0.0000     4          
    46  Cl    c      2.2030 *    -1.1015 *     7.7103 *  0.0000     4          
    47  Cl    c      2.2030 *    -5.5074 *    -5.5074    0.0000     2          
    48  Cl    c      6.6089 *     3.3044 *     3.3044    0.0000     2          
    49  Na    c      2.2030 *     1.1015 *    -7.7103 *  0.0000     4          
    50  Na    c      2.2030 *     5.5074 *     5.5074    0.0000     2          
    51  Na    c      6.6089 *    -3.3044 *    -3.3044    0.0000     2          
    52  O     c      0.0000      -3.3044 *    -7.7103 *  0.0000     2          
    53  Na    c      0.0000      -3.3044 *     7.7103 *  0.0000     2          
    54  Na    c      0.0000      -7.7103 *     3.3044 *  0.0000     2          
    55  Cl    c      2.2030 *     3.3044 *     7.7103 *  0.0000     4          
    56  Cl    c      6.6089 *    -1.1015 *    -5.5074 *  0.0000     4          
    57  Na    c      2.2030 *    -3.3044 *    -7.7103 *  0.0000     4          
    58  Na    c      6.6089 *     1.1015 *     5.5074 *  0.0000     4          
    59  O     c      4.4059 *     1.1015 *    -7.7103 *  0.0000     4          
    60  O     c      4.4059 *     5.5074 *     5.5074    0.0000     2          
    61  Na    c      4.4059 *     1.1015 *     7.7103 *  0.0000     4          
    62  Na    c      4.4059 *     5.5074 *    -5.5074 *  0.0000     4          
    63  Na    c      4.4059 *    -1.1015 *    -7.7103 *  0.0000     4          
    64  O     c      8.8118 *     1.1015 *     1.1015    0.0000     2          
    65  Na    c      8.8118 *     1.1015 *    -1.1015 *  0.0000     4          
    66  Cl    c      6.6089 *     3.3044 *    -5.5074 *  0.0000     4          
    67  Na    c      6.6089 *     5.5074 *    -3.3044 *  0.0000     4          
    68  O     c      0.0000       5.5074 *    -7.7103 *  0.0000     2          
    69  O     c      4.4059 *    -3.3044 *    -7.7103 *  0.0000     4          
    70  Na    c      0.0000       5.5074 *     7.7103 *  0.0000     2          
    71  Na    c      0.0000      -7.7103 *    -5.5074 *  0.0000     2          
    72  Na    c      4.4059 *    -3.3044 *     7.7103 *  0.0000     4          
    73  Na    c      4.4059 *     3.3044 *    -7.7103 *  0.0000     4          
    74  O     c      8.8118 *     1.1015 *    -3.3044 *  0.0000     4          
    75  Na    c      8.8118 *     1.1015 *     3.3044 *  0.0000     4          
    76  Na    c      8.8118 *    -3.3044 *    -1.1015 *  0.0000     4          
    77  Cl    c      2.2030 *     7.7103 *    -5.5074 *  0.0000     4          
    78  Na    c      2.2030 *     5.5074 *    -7.7103 *  0.0000     4          
    79  O     c      0.0000       1.1015 *     9.9133 *  0.0000     2          
    80  O     c      8.8118 *    -3.3044 *    -3.3044    0.0000     2          
    81  Na    c      0.0000       1.1015 *    -9.9133 *  0.0000     2          
    82  Na    c      0.0000       9.9133 *    -1.1015 *  0.0000     2          
    83  Na    c      8.8118 *    -3.3044 *     3.3044 *  0.0000     4          
    84  Cl    c      2.2030 *    -1.1015 *    -9.9133 *  0.0000     4          
    85  Cl    c      6.6089 *    -1.1015 *     7.7103 *  0.0000     4          
    86  Cl    c      6.6089 *    -5.5074 *    -5.5074    0.0000     2          
    87  Na    c      2.2030 *     1.1015 *     9.9133 *  0.0000     4          
    88  Na    c      6.6089 *     1.1015 *    -7.7103 *  0.0000     4          
    89  Na    c      6.6089 *     5.5074 *     5.5074    0.0000     2          
    90  O     c      0.0000       9.9133 *    -3.3044 *  0.0000     2          
    91  O     c      4.4059 *     5.5074 *    -7.7103 *  0.0000     4          
    92  O     c      8.8118 *     1.1015 *     5.5074 *  0.0000     4          
    93  Na    c      0.0000       9.9133 *     3.3044 *  0.0000     2          
    94  Na    c      0.0000      -3.3044 *    -9.9133 *  0.0000     2          
    95  Na    c      4.4059 *     5.5074 *     7.7103 *  0.0000     4          
    96  Na    c      4.4059 *    -7.7103 *    -5.5074 *  0.0000     4          
    97  Na    c      8.8118 *     1.1015 *    -5.5074 *  0.0000     4          
    98  Na    c      8.8118 *     5.5074 *    -1.1015 *  0.0000     4          
    99  Cl    c      6.6089 *     7.7103 *     3.3044 *  0.0000     4          
   100  Na    c      6.6089 *    -7.7103 *    -3.3044 *  0.0000     4          
   101  Cl    c      2.2030 *     3.3044 *    -9.9133 *  0.0000     4          
   102  Na    c      2.2030 *     9.9133 *    -3.3044 *  0.0000     4          
   103  O     c      0.0000      -7.7103 *    -7.7103    0.0000     1          
   104  O     c      4.4059 *     1.1015 *     9.9133 *  0.0000     4          
   105  O     c      8.8118 *     5.5074 *    -3.3044 *  0.0000     4          
   106  Na    c      0.0000      -7.7103 *     7.7103 *  0.0000     2          
   107  Na    c      4.4059 *     1.1015 *    -9.9133 *  0.0000     4          
   108  Na    c      4.4059 *     9.9133 *    -1.1015 *  0.0000     4          
   109  Na    c      8.8118 *     5.5074 *     3.3044 *  0.0000     4          
   110  Na    c      8.8118 *    -3.3044 *    -5.5074 *  0.0000     4          
   111  Cl    c      2.2030 *     7.7103 *     7.7103    0.0000     2          
   112  Cl    c     11.0148 *    -1.1015 *    -1.1015    0.0000     2          
   113  Na    c      2.2030 *    -7.7103 *    -7.7103    0.0000     2          
   114  Na    c     11.0148 *     1.1015 *     1.1015    0.0000     2          
   115  O     c      4.4059 *     9.9133 *    -3.3044 *  0.0000     4          
   116  Na    c      4.4059 *     9.9133 *     3.3044 *  0.0000     4          
   117  Na    c      4.4059 *    -9.9133 *    -3.3044 *  0.0000     4          
   118  O     c      0.0000       5.5074 *     9.9133 *  0.0000     2          
   119  Na    c      0.0000       5.5074 *    -9.9133 *  0.0000     2          
   120  Na    c      0.0000       9.9133 *    -5.5074 *  0.0000     2          
   121  Cl    c      2.2030 *    -5.5074 *    -9.9133 *  0.0000     4          
   122  Cl    c      6.6089 *     7.7103 *    -5.5074 *  0.0000     4          
   123  Cl    c     11.0148 *    -1.1015 *     3.3044 *  0.0000     4          
   124  Na    c      2.2030 *     5.5074 *     9.9133 *  0.0000     4          
   125  Na    c      6.6089 *     5.5074 *    -7.7103 *  0.0000     4          
   126  Na    c     11.0148 *     1.1015 *    -3.3044 *  0.0000     4          
   127  O     c      4.4059 *    -7.7103 *    -7.7103    0.0000     2          
   128  O     c      8.8118 *     1.1015 *    -7.7103 *  0.0000     4          
   129  O     c      8.8118 *     5.5074 *     5.5074    0.0000     2          
   130  Na    c      4.4059 *    -7.7103 *     7.7103 *  0.0000     4          
   131  Na    c      8.8118 *     1.1015 *     7.7103 *  0.0000     4          
   132  Na    c      8.8118 *     5.5074 *    -5.5074 *  0.0000     4          
   133  Na    c      8.8118 *    -1.1015 *    -7.7103 *  0.0000     4          
   134  Cl    c     11.0148 *     3.3044 *     3.3044    0.0000     2          
   135  Na    c     11.0148 *    -3.3044 *    -3.3044    0.0000     2          
   136  Cl    c      6.6089 *    -1.1015 *    -9.9133 *  0.0000     4          
   137  Na    c      6.6089 *     1.1015 *     9.9133 *  0.0000     4          
   138  O     s      0.0000       1.1015 *     1.1015    0.0000     1          
   139  Cl    s      2.2030 *    -1.1015 *    -1.1015    0.0000     2          
   140  O     s      0.0000       1.1015 *    -3.3044 *  0.0000     2          
   141  Cl    s      2.2030 *    -1.1015 *     3.3044 *  0.0000     4          
   142  O     s      0.0000      -3.3044 *    -3.3044    0.0000     1          
   143  O     s      4.4059 *     1.1015 *     1.1015    0.0000     2          
   144  Cl    s      2.2030 *     3.3044 *     3.3044    0.0000     2          
   145  O     s      0.0000       1.1015 *     5.5074 *  0.0000     2          
   146  O     s      4.4059 *     1.1015 *    -3.3044 *  0.0000     4          
   147  Cl    s      2.2030 *    -1.1015 *    -5.5074 *  0.0000     4          
   148  O     s      0.0000       5.5074 *    -3.3044 *  0.0000     2          
   149  O     s      4.4059 *    -3.3044 *    -3.3044    0.0000     2          
   150  Cl    s      6.6089 *    -1.1015 *    -1.1015    0.0000     2          
   151  Cl    s      2.2030 *     3.3044 *    -5.5074 *  0.0000     4          
   152  O     s      4.4059 *     1.1015 *     5.5074 *  0.0000     4          
   153  Cl    s      6.6089 *    -1.1015 *     3.3044 *  0.0000     4          
   154  O     s      0.0000       1.1015 *    -7.7103 *  0.0000     2          
   155  O     s      0.0000       5.5074 *     5.5074    0.0000     1          
   156  O     s      4.4059 *     5.5074 *    -3.3044 *  0.0000     4          
   157  Cl    s      2.2030 *    -1.1015 *     7.7103 *  0.0000     4          
   158  Cl    s      2.2030 *    -5.5074 *    -5.5074    0.0000     2          
   159  Cl    s      6.6089 *     3.3044 *     3.3044    0.0000     2          
   160  O     s      0.0000      -3.3044 *    -7.7103 *  0.0000     2          
   161  Cl    s      2.2030 *     3.3044 *     7.7103 *  0.0000     4          
   162  Cl    s      6.6089 *    -1.1015 *    -5.5074 *  0.0000     4          
   163  O     s      4.4059 *     1.1015 *    -7.7103 *  0.0000     4          
   164  O     s      4.4059 *     5.5074 *     5.5074    0.0000     2          
   165  O     s      8.8118 *     1.1015 *     1.1015    0.0000     2          
   166  Cl    s      6.6089 *     3.3044 *    -5.5074 *  0.0000     4          
   167  O     s      0.0000       5.5074 *    -7.7103 *  0.0000     2          
   168  O     s      4.4059 *    -3.3044 *    -7.7103 *  0.0000     4          
   169  O     s      8.8118 *     1.1015 *    -3.3044 *  0.0000     4          
   170  Cl    s      2.2030 *     7.7103 *    -5.5074 *  0.0000     4          
   171  O     s      0.0000       1.1015 *     9.9133 *  0.0000     2          
   172  O     s      8.8118 *    -3.3044 *    -3.3044    0.0000     2          
   173  Cl    s      2.2030 *    -1.1015 *    -9.9133 *  0.0000     4          
   174  Cl    s      6.6089 *    -1.1015 *     7.7103 *  0.0000     4          
   175  Cl    s      6.6089 *    -5.5074 *    -5.5074    0.0000     2          
   176  O     s      0.0000       9.9133 *    -3.3044 *  0.0000     2          
   177  O     s      4.4059 *     5.5074 *    -7.7103 *  0.0000     4          
   178  O     s      8.8118 *     1.1015 *     5.5074 *  0.0000     4          
   179  Cl    s      6.6089 *     7.7103 *     3.3044 *  0.0000     4          
   180  Cl    s      2.2030 *     3.3044 *    -9.9133 *  0.0000     4          
   181  O     s      0.0000      -7.7103 *    -7.7103    0.0000     1          
   182  O     s      4.4059 *     1.1015 *     9.9133 *  0.0000     4          
   183  O     s      8.8118 *     5.5074 *    -3.3044 *  0.0000     4          
   184  Cl    s      2.2030 *     7.7103 *     7.7103    0.0000     2          
   185  Cl    s     11.0148 *    -1.1015 *    -1.1015    0.0000     2          
   186  O     s      4.4059 *     9.9133 *    -3.3044 *  0.0000     4          
   187  O     s      0.0000       5.5074 *     9.9133 *  0.0000     2          
   188  Cl    s      2.2030 *    -5.5074 *    -9.9133 *  0.0000     4          
   189  Cl    s      6.6089 *     7.7103 *    -5.5074 *  0.0000     4          
   190  Cl    s     11.0148 *    -1.1015 *     3.3044 *  0.0000     4          
   191  O     s      4.4059 *    -7.7103 *    -7.7103    0.0000     2          
   192  O     s      8.8118 *     1.1015 *    -7.7103 *  0.0000     4          
   193  O     s      8.8118 *     5.5074 *     5.5074    0.0000     2          
   194  Cl    s     11.0148 *     3.3044 *     3.3044    0.0000     2          
   195  Cl    s      6.6089 *    -1.1015 *    -9.9133 *  0.0000     4          
--------------------------------------------------------------------------------


  Constraints on symmetry reduced coordinates :

--------------------------------------------------------------------------------
  Constraint no.      Unconstrained     Constrained    Coefficient    
                         Variable         Variable
--------------------------------------------------------------------------------
           1                 2 y             2 z         1.00000
           2                 3 y             3 z         1.00000
           3                 4 y             4 z         1.00000
           4                10 y            10 z         1.00000
           5                12 y            12 z         1.00000
           6                14 y            14 z         1.00000
           7                15 y            15 z         1.00000
           8                27 y            27 z         1.00000
           9                29 y            29 z         1.00000
          10                30 y            30 z         1.00000
          11                39 y            39 z         1.00000
          12                47 y            47 z         1.00000
          13                48 y            48 z         1.00000
          14                50 y            50 z         1.00000
          15                51 y            51 z         1.00000
          16                60 y            60 z         1.00000
          17                64 y            64 z         1.00000
          18                80 y            80 z         1.00000
          19                86 y            86 z         1.00000
          20                89 y            89 z         1.00000
          21               103 y           103 z         1.00000
          22               111 y           111 z         1.00000
          23               112 y           112 z         1.00000
          24               113 y           113 z         1.00000
          25               114 y           114 z         1.00000
          26               127 y           127 z         1.00000
          27               129 y           129 z         1.00000
          28               134 y           134 z         1.00000
          29               135 y           135 z         1.00000
          30               138 y           138 z         1.00000
          31               139 y           139 z         1.00000
          32               142 y           142 z         1.00000
          33               143 y           143 z         1.00000
          34               144 y           144 z         1.00000
          35               149 y           149 z         1.00000
          36               150 y           150 z         1.00000
          37               155 y           155 z         1.00000
          38               158 y           158 z         1.00000
          39               159 y           159 z         1.00000
          40               164 y           164 z         1.00000
          41               165 y           165 z         1.00000
          42               172 y           172 z         1.00000
          43               175 y           175 z         1.00000
          44               181 y           181 z         1.00000
          45               184 y           184 z         1.00000
          46               185 y           185 z         1.00000
          47               191 y           191 z         1.00000
          48               193 y           193 z         1.00000
          49               194 y           194 z         1.00000
--------------------------------------------------------------------------------


  Components of defect energy : 

--------------------------------------------------------------------------------
  Region 1 - region 1                   =      8.69752899 eV
  Region 1 - region 2a (unrelaxed)      =     -0.02792727 eV
  Region 1 - 2a (relaxed - correction)  =     -0.27594423 eV
  Region 1 (Total)                      =      8.39365749 eV
  Region 2a                             =      0.13792262 eV
  Region 2b                             =     -0.40749075 eV
--------------------------------------------------------------------------------
  Total defect energy                   =      8.12408936 eV
--------------------------------------------------------------------------------

  Largest displacement in region 2 =   0.0162 Angstroms


  Number of variables =      486

  Maximum number of calculations  =        1000
  Maximum Hessian update interval =          10
  Maximum step size               =   1.0000000
  Maximum parameter tolerance     =   0.0000100
  Maximum function  tolerance     =   0.0000100
  Maximum gradient  tolerance     =   0.0010000

  Symmetry adapted optimisation

  Symmetry to be used for second derivatives

  Newton-Raphson optimiser to be used

  BFGS hessian update to be used

  Lower half triangular hessian to be used

  Start of defect optimisation :

  Cycle:      0 Defect Energy:   8.124089  Gnorm:     0.046831  CPU:    2.067
  ** Hessian calculated **
  Cycle:      1 Defect Energy:   5.993553  Gnorm:     0.023638  CPU:    5.973
  Cycle:      2 Defect Energy:   5.219627  Gnorm:     0.003484  CPU:    7.983
  Cycle:      3 Defect Energy:   5.199494  Gnorm:     0.002564  CPU:    8.634
  Cycle:      4 Defect Energy:   5.182229  Gnorm:     0.001619  CPU:    9.129
  Cycle:      5 Defect Energy:   5.173569  Gnorm:     0.001116  CPU:    9.481
  Cycle:      6 Defect Energy:   5.169406  Gnorm:     0.000778  CPU:   10.017
  Cycle:      7 Defect Energy:   5.167251  Gnorm:     0.000550  CPU:   10.632
  Cycle:      8 Defect Energy:   5.166139  Gnorm:     0.000386  CPU:   11.247
  Cycle:      9 Defect Energy:   5.165570  Gnorm:     0.000272  CPU:   11.856
  Cycle:     10 Defect Energy:   5.165282  Gnorm:     0.000190  CPU:   12.479
  ** Hessian calculated **
  Cycle:     11 Defect Energy:   5.165139  Gnorm:     0.000133  CPU:   14.557
  Cycle:     12 Defect Energy:   5.165068  Gnorm:     0.000093  CPU:   15.174
  Cycle:     13 Defect Energy:   5.165032  Gnorm:     0.000065  CPU:   15.587
  Cycle:     14 Defect Energy:   5.165014  Gnorm:     0.000046  CPU:   16.217
  Cycle:     15 Defect Energy:   5.165005  Gnorm:     0.000032  CPU:   16.819
  Cycle:     16 Defect Energy:   5.165000  Gnorm:     0.000023  CPU:   17.409


  **** Optimisation achieved ****


  Final defect energy  =        5.16499809
  Final defect Gnorm   =        0.00001578

  Components of defect energy : 

--------------------------------------------------------------------------------
  Region 1 - region 1                   =      6.64444294 eV
  Region 1 - region 2a (unrelaxed)      =     -0.96231351 eV
  Region 1 - 2a (relaxed - correction)  =     -0.21937119 eV
  Region 1 (Total)                      =      5.46275824 eV
  Region 2a                             =      0.10969845 eV
  Region 2b                             =     -0.40745859 eV
--------------------------------------------------------------------------------
  Total defect energy                   =      5.16499809 eV
--------------------------------------------------------------------------------

  Largest displacement in region 2 =   0.0162 Angstroms

  Final coordinates of region 1 :

--------------------------------------------------------------------------------
   No.  Atomic        x           y           z          Radius      Charge
        Label       (Angs)      (Angs)      (Angs)       (Angs)       (e) 
--------------------------------------------------------------------------------
     1  Na    c     2.202951    0.991328    0.991328    0.000000    1.000000
     2  O     c     2.202951    2.417174    2.417174    0.000000    0.183000
     3  Cl    c     4.501611   -0.043243   -0.043243    0.000000    1.485000
     4  Cl    c    -0.095709   -0.043243   -0.043243    0.000000    1.485000
     5  Na    c     4.377180    2.378389    2.378389    0.000000    1.000000
     6  Na    c     0.028722    2.378389    2.378389    0.000000    1.000000
     7  O     c     2.202951    2.184964   -2.282076    0.000000    0.183000
     8  O     c     2.202951   -2.282076    2.184964    0.000000    0.183000
     9  Na    c     2.202951    1.986140    4.460812    0.000000    1.000000
    10  Na    c     2.202951    4.460812    1.986140    0.000000    1.000000
    11  Na    c     2.202951   -2.258754    0.033050    0.000000    1.000000
    12  Na    c     2.202951    0.033050   -2.258754    0.000000    1.000000
    13  Cl    c     4.515666    0.023176    4.523216    0.000000    1.485000
    14  Cl    c    -0.109763    0.023176    4.523216    0.000000    1.485000
    15  Cl    c     4.515666    4.523216    0.023176    0.000000    1.485000
    16  Cl    c    -0.109763    4.523216    0.023176    0.000000    1.485000
    17  Na    c     4.329842    2.193368   -1.992693    0.000000    1.000000
    18  Na    c     0.076061    2.193368   -1.992693    0.000000    1.000000
    19  Na    c     4.329842   -1.992693    2.193368    0.000000    1.000000
    20  Na    c     0.076061   -1.992693    2.193368    0.000000    1.000000
    21  O     c     2.202951   -2.196875   -2.196875    0.000000    0.183000
    22  Na    c     2.202951   -1.832417    4.309232    0.000000    1.000000
    23  Na    c     2.202951    4.309232   -1.832417    0.000000    1.000000
    24  O     c     6.600883    2.237650    2.237650    0.000000    0.183000
    25  O     c    -2.194981    2.237650    2.237650    0.000000    0.183000
    26  Na    c     6.574566    2.220825    0.035514    0.000000    1.000000
    27  Na    c    -2.168664    2.220825    0.035514    0.000000    1.000000
    28  Na    c     6.574566    0.035514    2.220825    0.000000    1.000000
    29  Na    c    -2.168664    0.035514    2.220825    0.000000    1.000000
    30  Cl    c     4.523805    4.493233    4.493233    0.000000    1.485000
    31  Cl    c    -0.117903    4.493233    4.493233    0.000000    1.485000
    32  Na    c     4.401524   -2.188001   -2.188001    0.000000    1.000000
    33  Na    c     0.004378   -2.188001   -2.188001    0.000000    1.000000
    34  O     c     2.202951    2.193389    6.658235    0.000000    0.183000
    35  O     c     2.202951    6.658235    2.193389    0.000000    0.183000
    36  O     c     6.577742    2.210813   -2.171665    0.000000    0.183000
    37  O     c    -2.171840    2.210813   -2.171665    0.000000    0.183000
    38  O     c     6.577742   -2.171665    2.210813    0.000000    0.183000
    39  O     c    -2.171840   -2.171665    2.210813    0.000000    0.183000
    40  Na    c     2.202951    2.343624   -4.403944    0.000000    1.000000
    41  Na    c     2.202951   -4.403944    2.343624    0.000000    1.000000
    42  Na    c     2.202951    6.800437    0.003105    0.000000    1.000000
    43  Na    c     2.202951    0.003105    6.800437    0.000000    1.000000
    44  Na    c     6.637786    2.211325    4.437856    0.000000    1.000000
    45  Na    c    -2.231884    2.211325    4.437856    0.000000    1.000000
    46  Na    c     6.637786    4.437856    2.211325    0.000000    1.000000
    47  Na    c    -2.231884    4.437856    2.211325    0.000000    1.000000
    48  Na    c     6.581235    0.008734   -2.193604    0.000000    1.000000
    49  Na    c    -2.175333    0.008734   -2.193604    0.000000    1.000000
    50  Na    c     6.581235   -2.193604    0.008734    0.000000    1.000000
    51  Na    c    -2.175333   -2.193604    0.008734    0.000000    1.000000
    52  Cl    c     4.438899   -0.057834   -4.457185    0.000000    1.485000
    53  Cl    c     4.438899   -4.457185   -0.057834    0.000000    1.485000
    54  Cl    c    -0.032997   -0.057834   -4.457185    0.000000    1.485000
    55  Cl    c    -0.032997   -4.457185   -0.057834    0.000000    1.485000
    56  Na    c     4.415512    2.204892    6.616984    0.000000    1.000000
    57  Na    c     4.415512    6.616984    2.204892    0.000000    1.000000
    58  Na    c    -0.009610    2.204892    6.616984    0.000000    1.000000
    59  Na    c    -0.009610    6.616984    2.204892    0.000000    1.000000
    60  O     c     2.202951    6.576400   -2.172664    0.000000    0.183000
    61  O     c     2.202951   -2.172664    6.576400    0.000000    0.183000
    62  Na    c     2.202951    6.525500    4.386540    0.000000    1.000000
    63  Na    c     2.202951    4.386540    6.525500    0.000000    1.000000
    64  Na    c     2.202951   -2.210275   -4.400603    0.000000    1.000000
    65  Na    c     2.202951   -4.400603   -2.210275    0.000000    1.000000
    66  O     c     6.610210   -2.203115   -2.203115    0.000000    0.183000
    67  O     c    -2.204308   -2.203115   -2.203115    0.000000    0.183000
    68  Na    c     6.582828   -2.183153    4.407021    0.000000    1.000000
    69  Na    c    -2.176926   -2.183153    4.407021    0.000000    1.000000
    70  Na    c     6.582828    4.407021   -2.183153    0.000000    1.000000
    71  Na    c    -2.176926    4.407021   -2.183153    0.000000    1.000000
    72  Cl    c     8.826727    0.014341    0.014341    0.000000    1.485000
    73  Cl    c    -4.420825    0.014341    0.014341    0.000000    1.485000
    74  Na    c     8.804939    2.209858    2.209858    0.000000    1.000000
    75  Na    c    -4.399037    2.209858    2.209858    0.000000    1.000000
    76  Cl    c     4.459563    4.448213   -4.466623    0.000000    1.485000
    77  Cl    c     4.459563   -4.466623    4.448213    0.000000    1.485000
    78  Cl    c    -0.053661    4.448213   -4.466623    0.000000    1.485000
    79  Cl    c    -0.053661   -4.466623    4.448213    0.000000    1.485000
    80  Na    c     4.401161    6.556304   -2.196709    0.000000    1.000000
    81  Na    c     4.401161   -2.196709    6.556304    0.000000    1.000000
    82  Na    c     0.004741    6.556304   -2.196709    0.000000    1.000000
    83  Na    c     0.004741   -2.196709    6.556304    0.000000    1.000000
    84  O     c     6.626604    2.213547    6.638684    0.000000    0.183000
    85  O     c     6.626604    6.638684    2.213547    0.000000    0.183000
    86  O     c    -2.220702    2.213547    6.638684    0.000000    0.183000
    87  O     c    -2.220702    6.638684    2.213547    0.000000    0.183000
    88  Na    c     6.492695    2.215593   -4.375013    0.000000    1.000000
    89  Na    c    -2.086793    2.215593   -4.375013    0.000000    1.000000
    90  Na    c     6.492695   -4.375013    2.215593    0.000000    1.000000
    91  Na    c    -2.086793   -4.375013    2.215593    0.000000    1.000000
    92  Na    c     6.591681    6.611597    0.001540    0.000000    1.000000
    93  Na    c    -2.185778    6.611597    0.001540    0.000000    1.000000
    94  Na    c     6.591681    0.001540    6.611597    0.000000    1.000000
    95  Na    c    -2.185778    0.001540    6.611597    0.000000    1.000000
    96  Cl    c     8.835822    0.013421    4.415491    0.000000    1.485000
    97  Cl    c     8.835822    4.415491    0.013421    0.000000    1.485000
    98  Cl    c    -4.429920    0.013421    4.415491    0.000000    1.485000
    99  Cl    c    -4.429920    4.415491    0.013421    0.000000    1.485000
   100  Na    c     8.784787    2.205449   -2.205417    0.000000    1.000000
   101  Na    c     8.784787   -2.205417    2.205449    0.000000    1.000000
   102  Na    c    -4.378885    2.205449   -2.205417    0.000000    1.000000
   103  Na    c    -4.378885   -2.205417    2.205449    0.000000    1.000000
   104  O     c     2.202951    2.210392   -6.623215    0.000000    0.183000
   105  O     c     2.202951   -6.623215    2.210392    0.000000    0.183000
   106  O     c     2.202951    6.596345    6.596345    0.000000    0.183000
   107  Na    c     2.202951    2.294892    8.836093    0.000000    1.000000
   108  Na    c     2.202951    8.836093    2.294892    0.000000    1.000000
   109  Na    c     2.202951    6.399707   -4.374091    0.000000    1.000000
   110  Na    c     2.202951   -4.374091    6.399707    0.000000    1.000000
   111  Na    c     2.202951   -6.536386    0.006624    0.000000    1.000000
   112  Na    c     2.202951    0.006624   -6.536386    0.000000    1.000000
   113  O     c     6.615021    6.617090   -2.208666    0.000000    0.183000
   114  O     c     6.615021   -2.208666    6.617090    0.000000    0.183000
   115  O     c    -2.209119    6.617090   -2.208666    0.000000    0.183000
   116  O     c    -2.209119   -2.208666    6.617090    0.000000    0.183000
   117  Na    c     6.603923    6.605272    4.417020    0.000000    1.000000
   118  Na    c    -2.198021    6.605272    4.417020    0.000000    1.000000
   119  Na    c     6.603923    4.417020    6.605272    0.000000    1.000000
   120  Na    c    -2.198021    4.417020    6.605272    0.000000    1.000000
   121  Na    c     6.590416   -2.195545   -4.403076    0.000000    1.000000
   122  Na    c    -2.184514   -2.195545   -4.403076    0.000000    1.000000
   123  Na    c     6.590416   -4.403076   -2.195545    0.000000    1.000000
   124  Na    c    -2.184514   -4.403076   -2.195545    0.000000    1.000000
   125  Cl    c     4.413131   -0.002203    8.848411    0.000000    1.485000
   126  Cl    c    -0.007228   -0.002203    8.848411    0.000000    1.485000
   127  Cl    c     4.413131    8.848411   -0.002203    0.000000    1.485000
   128  Cl    c    -0.007228    8.848411   -0.002203    0.000000    1.485000
   129  Cl    c     4.405441   -4.421391   -4.421391    0.000000    1.485000
   130  Cl    c     0.000461   -4.421391   -4.421391    0.000000    1.485000
   131  Cl    c     8.847770    4.417974    4.417974    0.000000    1.485000
   132  Cl    c    -4.441867    4.417974    4.417974    0.000000    1.485000
   133  Na    c     4.399917    2.192936   -6.614503    0.000000    1.000000
   134  Na    c     0.005985    2.192936   -6.614503    0.000000    1.000000
   135  Na    c     4.399917   -6.614503    2.192936    0.000000    1.000000
   136  Na    c     0.005985   -6.614503    2.192936    0.000000    1.000000
   137  Na    c     4.411970    6.594731    6.594731    0.000000    1.000000
   138  Na    c    -0.006068    6.594731    6.594731    0.000000    1.000000
   139  Na    c     8.801616   -2.200095   -2.200095    0.000000    1.000000
   140  Na    c    -4.395714   -2.200095   -2.200095    0.000000    1.000000
   141  O     c     2.202951   -2.204094   -6.608017    0.000000    0.183000
   142  O     c     2.202951   -6.608017   -2.204094    0.000000    0.183000
   143  Na    c     2.202951   -2.318025    8.790307    0.000000    1.000000
   144  Na    c     2.202951    8.790307   -2.318025    0.000000    1.000000
   145  Na    c     2.202951   -6.701726    4.402969    0.000000    1.000000
   146  Na    c     2.202951    4.402969   -6.701726    0.000000    1.000000
   147  Cl    c     4.410534    4.415946    8.842271    0.000000    1.485000
   148  Cl    c    -0.004632    4.415946    8.842271    0.000000    1.485000
   149  Cl    c     4.410534    8.842271    4.415946    0.000000    1.485000
   150  Cl    c    -0.004632    8.842271    4.415946    0.000000    1.485000
   151  Cl    c     8.824813    0.000632   -4.405867    0.000000    1.485000
   152  Cl    c    -4.418911    0.000632   -4.405867    0.000000    1.485000
   153  Cl    c     8.824813   -4.405867    0.000632    0.000000    1.485000
   154  Cl    c    -4.418911   -4.405867    0.000632    0.000000    1.485000
   155  Na    c     4.406914   -2.187197   -6.595112    0.000000    1.000000
   156  Na    c    -0.001011   -2.187197   -6.595112    0.000000    1.000000
   157  Na    c     4.406914   -6.595112   -2.187197    0.000000    1.000000
   158  Na    c    -0.001011   -6.595112   -2.187197    0.000000    1.000000
   159  Na    c     8.817963    2.201750    6.633369    0.000000    1.000000
   160  Na    c    -4.412060    2.201750    6.633369    0.000000    1.000000
   161  Na    c     8.817963    6.633369    2.201750    0.000000    1.000000
   162  Na    c    -4.412060    6.633369    2.201750    0.000000    1.000000
   163  O     c     6.600537    2.200668   -6.598229    0.000000    0.183000
   164  O     c    -2.194635    2.200668   -6.598229    0.000000    0.183000
   165  O     c     6.600537   -6.598229    2.200668    0.000000    0.183000
   166  O     c    -2.194635   -6.598229    2.200668    0.000000    0.183000
   167  O     c     6.624940    6.625032    6.625032    0.000000    0.183000
   168  O     c    -2.219037    6.625032    6.625032    0.000000    0.183000
   169  Na    c     6.605740    2.207787    8.822745    0.000000    1.000000
   170  Na    c    -2.199838    2.207787    8.822745    0.000000    1.000000
   171  Na    c     6.605740    8.822745    2.207787    0.000000    1.000000
   172  Na    c    -2.199838    8.822745    2.207787    0.000000    1.000000
   173  Na    c     6.603008    6.589937   -4.405827    0.000000    1.000000
   174  Na    c    -2.197106    6.589937   -4.405827    0.000000    1.000000
   175  Na    c     6.603008   -4.405827    6.589937    0.000000    1.000000
   176  Na    c    -2.197106   -4.405827    6.589937    0.000000    1.000000
   177  Na    c     6.609815   -0.000155   -6.575626    0.000000    1.000000
   178  Na    c    -2.203913   -0.000155   -6.575626    0.000000    1.000000
   179  Na    c     6.609815   -6.575626   -0.000155    0.000000    1.000000
   180  Na    c    -2.203913   -6.575626   -0.000155    0.000000    1.000000
   181  O     c    11.013308    2.206547    2.206547    0.000000    0.183000
   182  O     c    -6.607405    2.206547    2.206547    0.000000    0.183000
   183  Na    c    10.985013    2.203955    0.002398    0.000000    1.000000
   184  Na    c    -6.579111    2.203955    0.002398    0.000000    1.000000
   185  Na    c    10.985013    0.002398    2.203955    0.000000    1.000000
   186  Na    c    -6.579111    0.002398    2.203955    0.000000    1.000000
   187  Cl    c     8.829243    4.413677   -4.403181    0.000000    1.485000
   188  Cl    c     8.829243   -4.403181    4.413677    0.000000    1.485000
   189  Cl    c    -4.423341    4.413677   -4.403181    0.000000    1.485000
   190  Cl    c    -4.423341   -4.403181    4.413677    0.000000    1.485000
   191  Na    c     8.808579    6.610099   -2.196529    0.000000    1.000000
   192  Na    c     8.808579   -2.196529    6.610099    0.000000    1.000000
   193  Na    c    -4.402677    6.610099   -2.196529    0.000000    1.000000
   194  Na    c    -4.402677   -2.196529    6.610099    0.000000    1.000000
   195  O     c     2.202951    6.593807   -6.600054    0.000000    0.183000
   196  O     c     2.202951   -6.600054    6.593807    0.000000    0.183000
   197  O     c     6.614657   -2.207477   -6.612272    0.000000    0.183000
   198  O     c    -2.208755   -2.207477   -6.612272    0.000000    0.183000
   199  O     c     6.614657   -6.612272   -2.207477    0.000000    0.183000
   200  O     c    -2.208755   -6.612272   -2.207477    0.000000    0.183000
   201  Na    c     2.202951    6.579926    8.799451    0.000000    1.000000
   202  Na    c     2.202951    8.799451    6.579926    0.000000    1.000000
   203  Na    c     2.202951   -6.609959   -4.404231    0.000000    1.000000
   204  Na    c     2.202951   -4.404231   -6.609959    0.000000    1.000000
   205  Na    c     6.591967   -2.213990    8.811089    0.000000    1.000000
   206  Na    c    -2.186065   -2.213990    8.811089    0.000000    1.000000
   207  Na    c     6.591967    8.811089   -2.213990    0.000000    1.000000
   208  Na    c    -2.186065    8.811089   -2.213990    0.000000    1.000000
   209  Na    c     6.587504    4.405999   -6.595757    0.000000    1.000000
   210  Na    c    -2.181601    4.405999   -6.595757    0.000000    1.000000
   211  Na    c     6.587504   -6.595757    4.405999    0.000000    1.000000
   212  Na    c    -2.181601   -6.595757    4.405999    0.000000    1.000000
   213  O     c    11.004645    2.205123   -2.199231    0.000000    0.183000
   214  O     c    11.004645   -2.199231    2.205123    0.000000    0.183000
   215  O     c    -6.598743    2.205123   -2.199231    0.000000    0.183000
   216  O     c    -6.598743   -2.199231    2.205123    0.000000    0.183000
   217  Na    c    11.003432    2.204101    4.408948    0.000000    1.000000
   218  Na    c    -6.597530    2.204101    4.408948    0.000000    1.000000
   219  Na    c    11.003432    4.408948    2.204101    0.000000    1.000000
   220  Na    c    -6.597530    4.408948    2.204101    0.000000    1.000000
   221  Na    c    10.990270   -2.200580    0.003841    0.000000    1.000000
   222  Na    c    -6.584367   -2.200580    0.003841    0.000000    1.000000
   223  Na    c    10.990270    0.003841   -2.200580    0.000000    1.000000
   224  Na    c    -6.584367    0.003841   -2.200580    0.000000    1.000000
   225  Cl    c     4.410762    8.832877   -4.404353    0.000000    1.485000
   226  Cl    c     4.410762   -4.404353    8.832877    0.000000    1.485000
   227  Cl    c    -0.004860    8.832877   -4.404353    0.000000    1.485000
   228  Cl    c    -0.004860   -4.404353    8.832877    0.000000    1.485000
   229  Na    c     4.405530    6.604243   -6.581643    0.000000    1.000000
   230  Na    c     4.405530   -6.581643    6.604243    0.000000    1.000000
   231  Na    c     0.000372    6.604243   -6.581643    0.000000    1.000000
   232  Na    c     0.000372   -6.581643    6.604243    0.000000    1.000000
   233  O     c     2.202951    2.210176   11.026459    0.000000    0.183000
   234  O     c     2.202951   11.026459    2.210176    0.000000    0.183000
   235  O     c    11.009122   -2.199511   -2.199511    0.000000    0.183000
   236  O     c    -6.603220   -2.199511   -2.199511    0.000000    0.183000
   237  Na    c     2.202951    2.163323   -8.817980    0.000000    1.000000
   238  Na    c     2.202951   -8.817980    2.163323    0.000000    1.000000
   239  Na    c     2.202951   10.966299   -0.005733    0.000000    1.000000
   240  Na    c     2.202951   -0.005733   10.966299    0.000000    1.000000
   241  Na    c    10.999055   -2.201712    4.406047    0.000000    1.000000
   242  Na    c    -6.593153   -2.201712    4.406047    0.000000    1.000000
   243  Na    c    10.999055    4.406047   -2.201712    0.000000    1.000000
   244  Na    c    -6.593153    4.406047   -2.201712    0.000000    1.000000
   245  Cl    c     4.408624   -0.000622   -8.834761    0.000000    1.485000
   246  Cl    c    -0.002722   -0.000622   -8.834761    0.000000    1.485000
   247  Cl    c     4.408624   -8.834761   -0.000622    0.000000    1.485000
   248  Cl    c    -0.002722   -8.834761   -0.000622    0.000000    1.485000
   249  Cl    c     8.827375    0.002968    8.828238    0.000000    1.485000
   250  Cl    c     8.827375    8.828238    0.002968    0.000000    1.485000
   251  Cl    c    -4.421472    0.002968    8.828238    0.000000    1.485000
   252  Cl    c    -4.421472    8.828238    0.002968    0.000000    1.485000
   253  Cl    c     8.824214   -4.415341   -4.415341    0.000000    1.485000
   254  Cl    c    -4.418311   -4.415341   -4.415341    0.000000    1.485000
   255  Na    c     4.405362    2.188173   11.019914    0.000000    1.000000
   256  Na    c     0.000540    2.188173   11.019914    0.000000    1.000000
   257  Na    c     4.405362   11.019914    2.188173    0.000000    1.000000
   258  Na    c     0.000540   11.019914    2.188173    0.000000    1.000000
   259  Na    c     8.800281    2.217370   -6.563822    0.000000    1.000000
   260  Na    c     8.800281   -6.563822    2.217370    0.000000    1.000000
   261  Na    c    -4.394378    2.217370   -6.563822    0.000000    1.000000
   262  Na    c    -4.394378   -6.563822    2.217370    0.000000    1.000000
   263  Na    c     8.817850    6.611879    6.611879    0.000000    1.000000
   264  Na    c    -4.411947    6.611879    6.611879    0.000000    1.000000
   265  O     c     2.202951   11.008973   -2.215360    0.000000    0.183000
   266  O     c     2.202951   -2.215360   11.008973    0.000000    0.183000
   267  O     c     6.614771    6.615176   -6.612349    0.000000    0.183000
   268  O     c     6.614771   -6.612349    6.615176    0.000000    0.183000
   269  O     c    -2.208869    6.615176   -6.612349    0.000000    0.183000
   270  O     c    -2.208869   -6.612349    6.615176    0.000000    0.183000
   271  O     c    11.021244    2.204601    6.613429    0.000000    0.183000
   272  O     c    11.021244    6.613429    2.204601    0.000000    0.183000
   273  O     c    -6.615342    2.204601    6.613429    0.000000    0.183000
   274  O     c    -6.615342    6.613429    2.204601    0.000000    0.183000
   275  Na    c     2.202951   11.040380    4.411608    0.000000    1.000000
   276  Na    c     2.202951    4.411608   11.040380    0.000000    1.000000
   277  Na    c     2.202951   -2.180957   -8.805196    0.000000    1.000000
   278  Na    c     2.202951   -8.805196   -2.180957    0.000000    1.000000
   279  Na    c     6.613077    6.613156    8.813714    0.000000    1.000000
   280  Na    c    -2.207174    6.613156    8.813714    0.000000    1.000000
   281  Na    c     6.613077    8.813714    6.613156    0.000000    1.000000
   282  Na    c    -2.207174    8.813714    6.613156    0.000000    1.000000
   283  Na    c     6.604776   -6.607747   -4.406270    0.000000    1.000000
   284  Na    c    -2.198874   -6.607747   -4.406270    0.000000    1.000000
   285  Na    c     6.604776   -4.406270   -6.607747    0.000000    1.000000
   286  Na    c    -2.198874   -4.406270   -6.607747    0.000000    1.000000
   287  Na    c    11.009688    2.205175   -4.400740    0.000000    1.000000
   288  Na    c    -6.603786    2.205175   -4.400740    0.000000    1.000000
   289  Na    c    11.009688   -4.400740    2.205175    0.000000    1.000000
   290  Na    c    -6.603786   -4.400740    2.205175    0.000000    1.000000
   291  Na    c    11.011676    6.604938    0.000676    0.000000    1.000000
   292  Na    c    -6.605773    6.604938    0.000676    0.000000    1.000000
   293  Na    c    11.011676    0.000676    6.604938    0.000000    1.000000
   294  Na    c    -6.605773    0.000676    6.604938    0.000000    1.000000
   295  Cl    c     8.832615    8.830713    4.412533    0.000000    1.485000
   296  Cl    c    -4.426713    8.830713    4.412533    0.000000    1.485000
   297  Cl    c     8.832615    4.412533    8.830713    0.000000    1.485000
   298  Cl    c    -4.426713    4.412533    8.830713    0.000000    1.485000
   299  Na    c     8.809925   -6.602570   -2.211689    0.000000    1.000000
   300  Na    c    -4.404023   -6.602570   -2.211689    0.000000    1.000000
   301  Na    c     8.809925   -2.211689   -6.602570    0.000000    1.000000
   302  Na    c    -4.404023   -2.211689   -6.602570    0.000000    1.000000
   303  Cl    c     4.408303    4.408214   -8.833547    0.000000    1.485000
   304  Cl    c     4.408303   -8.833547    4.408214    0.000000    1.485000
   305  Cl    c    -0.002401    4.408214   -8.833547    0.000000    1.485000
   306  Cl    c    -0.002401   -8.833547    4.408214    0.000000    1.485000
   307  Na    c     4.404525   11.001346   -2.194658    0.000000    1.000000
   308  Na    c     4.404525   -2.194658   11.001346    0.000000    1.000000
   309  Na    c     0.001377   11.001346   -2.194658    0.000000    1.000000
   310  Na    c     0.001377   -2.194658   11.001346    0.000000    1.000000
   311  O     c     2.202951   -6.612100   -6.612100    0.000000    0.183000
   312  O     c     6.610757    2.202580   11.022851    0.000000    0.183000
   313  O     c     6.610757   11.022851    2.202580    0.000000    0.183000
   314  O     c    -2.204854    2.202580   11.022851    0.000000    0.183000
   315  O     c    -2.204854   11.022851    2.202580    0.000000    0.183000
   316  O     c    11.016902    6.611635   -2.201611    0.000000    0.183000
   317  O     c    11.016902   -2.201611    6.611635    0.000000    0.183000
   318  O     c    -6.611000    6.611635   -2.201611    0.000000    0.183000
   319  O     c    -6.611000   -2.201611    6.611635    0.000000    0.183000
   320  Na    c     2.202951   -6.537432    8.795152    0.000000    1.000000
   321  Na    c     2.202951    8.795152   -6.537432    0.000000    1.000000
   322  Na    c     6.613131    2.198353   -8.802650    0.000000    1.000000
   323  Na    c    -2.207229    2.198353   -8.802650    0.000000    1.000000
   324  Na    c     6.613131   -8.802650    2.198353    0.000000    1.000000
   325  Na    c    -2.207229   -8.802650    2.198353    0.000000    1.000000
   326  Na    c     6.610391   11.006186   -0.002234    0.000000    1.000000
   327  Na    c    -2.204489   11.006186   -0.002234    0.000000    1.000000
   328  Na    c     6.610391   -0.002234   11.006186    0.000000    1.000000
   329  Na    c    -2.204489   -0.002234   11.006186    0.000000    1.000000
   330  Na    c    11.011582    6.606507    4.407483    0.000000    1.000000
   331  Na    c    -6.605680    6.606507    4.407483    0.000000    1.000000
   332  Na    c    11.011582    4.407483    6.606507    0.000000    1.000000
   333  Na    c    -6.605680    4.407483    6.606507    0.000000    1.000000
   334  Na    c    11.004644   -2.197724   -4.402288    0.000000    1.000000
   335  Na    c    -6.598742   -2.197724   -4.402288    0.000000    1.000000
   336  Na    c    11.004644   -4.402288   -2.197724    0.000000    1.000000
   337  Na    c    -6.598742   -4.402288   -2.197724    0.000000    1.000000
   338  Cl    c     4.410998    8.824441    8.824441    0.000000    1.485000
   339  Cl    c    -0.005096    8.824441    8.824441    0.000000    1.485000
   340  Cl    c    13.236309   -0.000638   -0.000638    0.000000    1.485000
   341  Cl    c    -8.830407   -0.000638   -0.000638    0.000000    1.485000
   342  Na    c     4.405686   -6.603744   -6.603744    0.000000    1.000000
   343  Na    c     0.000216   -6.603744   -6.603744    0.000000    1.000000
   344  Na    c    13.212482    2.198570    2.198570    0.000000    1.000000
   345  Na    c    -8.806580    2.198570    2.198570    0.000000    1.000000
   346  O     c     6.612654   11.021171   -2.205447    0.000000    0.183000
   347  O     c    -2.206752   11.021171   -2.205447    0.000000    0.183000
   348  O     c     6.612654   -2.205447   11.021171    0.000000    0.183000
   349  O     c    -2.206752   -2.205447   11.021171    0.000000    0.183000
   350  Na    c     6.596549   11.007331    4.405221    0.000000    1.000000
   351  Na    c    -2.190647   11.007331    4.405221    0.000000    1.000000
   352  Na    c     6.596549    4.405221   11.007331    0.000000    1.000000
   353  Na    c    -2.190647    4.405221   11.007331    0.000000    1.000000
   354  Na    c     6.604644   -8.808345   -2.193427    0.000000    1.000000
[...]
    115 y         11.014756     11.021171     0.006416    Cartesian    0.06
    115 z         -2.202951     -2.205447    -0.002495    Cartesian    0.11
    116 x          6.608853      6.596549    -0.012304    Cartesian   -0.19
    116 y         11.014756     11.007331    -0.007424    Cartesian   -0.07
    116 z          4.405902      4.405221    -0.000681    Cartesian   -0.02
    117 x          6.608853      6.604644    -0.004209    Cartesian   -0.06
    117 y         -8.811805     -8.808345     0.003459    Cartesian   -0.04
    117 z         -2.202951     -2.193427     0.009524    Cartesian   -0.43
    118 x          2.202951      2.202951     0.000000    Cartesian    0.00
    118 y          6.608853      6.611521     0.002667    Cartesian    0.04
    118 z         11.014756     11.017603     0.002847    Cartesian    0.03
    119 x          2.202951      2.202951     0.000000    Cartesian    0.00
    119 y          6.608853      6.639337     0.030484    Cartesian    0.46
    119 z         -8.811805     -8.803872     0.007932    Cartesian   -0.09
    120 x          2.202951      2.202951     0.000000    Cartesian    0.00
    120 y         11.014756     11.031242     0.016486    Cartesian    0.15
    120 z         -4.405902     -4.408651    -0.002749    Cartesian    0.06
    121 x          4.405902      4.410868     0.004965    Cartesian    0.11
    121 y         -4.405902     -4.418599    -0.012697    Cartesian    0.29
    121 z         -8.811805     -8.829480    -0.017676    Cartesian    0.20
    122 x          8.811805      8.827995     0.016191    Cartesian    0.18
    122 y          8.811805      8.829689     0.017884    Cartesian    0.20
    122 z         -4.405902     -4.414668    -0.008766    Cartesian    0.20
    123 x         13.217707     13.238102     0.020395    Cartesian    0.15
    123 y          0.000000     -0.002090    -0.002090    Cartesian    0.00
    123 z          4.405902      4.410663     0.004760    Cartesian    0.11
    124 x          4.405902      4.404525    -0.001378    Cartesian   -0.03
    124 y          6.608853      6.605864    -0.002989    Cartesian   -0.05
    124 z         11.014756     10.992380    -0.022376    Cartesian   -0.20
    125 x          8.811805      8.808979    -0.002826    Cartesian   -0.03
    125 y          6.608853      6.601634    -0.007219    Cartesian   -0.11
    125 z         -6.608853     -6.603748     0.005105    Cartesian   -0.08
    126 x         13.217707     13.208455    -0.009252    Cartesian   -0.07
    126 y          2.202951      2.201267    -0.001684    Cartesian   -0.08
    126 z         -2.202951     -2.190171     0.012780    Cartesian   -0.58
    127 x          6.608853      6.612234     0.003380    Cartesian    0.05
    127 y         -6.608853     -6.613996    -0.005142    Cartesian    0.08
    127 z         -6.608853     -6.613996    -0.005142    Cartesian    0.08
    128 x         11.014756     11.016998     0.002242    Cartesian    0.02
    128 y          2.202951      2.206111     0.003160    Cartesian    0.14
    128 z         -6.608853     -6.608990    -0.000136    Cartesian    0.00
    129 x         11.014756     11.023035     0.008279    Cartesian    0.08
    129 y          6.608853      6.614073     0.005220    Cartesian    0.08
    129 z          6.608853      6.614073     0.005220    Cartesian    0.08
    130 x          6.608853      6.604564    -0.004290    Cartesian   -0.06
    130 y         -6.608853     -6.598589     0.010265    Cartesian   -0.16
    130 z          8.811805      8.809288    -0.002517    Cartesian   -0.03
    131 x         11.014756     11.010886    -0.003869    Cartesian   -0.04
    131 y          2.202951      2.202073    -0.000878    Cartesian   -0.04
    131 z          8.811805      8.811883     0.000079    Cartesian    0.00
    132 x         11.014756     10.998583    -0.016173    Cartesian   -0.15
    132 y          6.608853      6.600899    -0.007954    Cartesian   -0.12
    132 z         -4.405902     -4.403267     0.002635    Cartesian   -0.06
    133 x         11.014756     10.994724    -0.020032    Cartesian   -0.18
    133 y          0.000000      0.002780     0.002780    Cartesian    0.00
    133 z         -6.608853     -6.601149     0.007704    Cartesian   -0.12
    134 x         13.217707     13.239458     0.021751    Cartesian    0.16
    134 y          4.405902      4.413722     0.007820    Cartesian    0.18
    134 z          4.405902      4.413722     0.007820    Cartesian    0.18
    135 x         13.217707     13.208710    -0.008997    Cartesian   -0.07
    135 y         -2.202951     -2.192517     0.010434    Cartesian   -0.47
    135 z         -2.202951     -2.192517     0.010434    Cartesian   -0.47
    136 x          8.811805      8.824215     0.012410    Cartesian    0.14
    136 y          0.000000     -0.002737    -0.002737    Cartesian    0.00
    136 z         -8.811805     -8.832170    -0.020365    Cartesian    0.23
    137 x          8.811805      8.810221    -0.001583    Cartesian   -0.02
    137 y          2.202951      2.204045     0.001094    Cartesian    0.05
    137 z         11.014756     11.003823    -0.010932    Cartesian   -0.10
    138 x          2.202951      2.202951     0.000000    Cartesian    0.00
    138 y          2.202951      2.417102     0.214150    Cartesian    9.72
    138 z          2.202951      2.417102     0.214150    Cartesian    9.72
    139 x          4.405902      4.494430     0.088528    Cartesian    2.01
    139 y          0.000000     -0.041731    -0.041731    Cartesian    0.00
    139 z          0.000000     -0.041731    -0.041731    Cartesian    0.00
    140 x          2.202951      2.202951     0.000000    Cartesian    0.00
    140 y          2.202951      2.184966    -0.017985    Cartesian   -0.82
    140 z         -2.202951     -2.282340    -0.079388    Cartesian    3.60
    141 x          4.405902      4.524805     0.118903    Cartesian    2.70
    141 y          0.000000      0.018517     0.018517    Cartesian    0.00
    141 z          4.405902      4.535646     0.129744    Cartesian    2.94
    142 x          2.202951      2.202951     0.000000    Cartesian    0.00
    142 y         -2.202951     -2.196914     0.006037    Cartesian   -0.27
    142 z         -2.202951     -2.196914     0.006037    Cartesian   -0.27
    143 x          6.608853      6.600920    -0.007934    Cartesian   -0.12
    143 y          2.202951      2.237662     0.034711    Cartesian    1.58
    143 z          2.202951      2.237662     0.034711    Cartesian    1.58
    144 x          4.405902      4.538117     0.132215    Cartesian    3.00
    144 y          4.405902      4.501812     0.095910    Cartesian    2.18
    144 z          4.405902      4.501812     0.095910    Cartesian    2.18
    145 x          2.202951      2.202951     0.000000    Cartesian    0.00
    145 y          2.202951      2.193373    -0.009578    Cartesian   -0.43
    145 z          6.608853      6.658256     0.049402    Cartesian    0.75
    146 x          6.608853      6.577780    -0.031073    Cartesian   -0.47
    146 y          2.202951      2.210819     0.007868    Cartesian    0.36
    146 z         -2.202951     -2.171652     0.031299    Cartesian   -1.42
    147 x          4.405902      4.444999     0.039096    Cartesian    0.89
    147 y          0.000000     -0.066986    -0.066986    Cartesian    0.00
    147 z         -4.405902     -4.466108    -0.060206    Cartesian    1.37
    148 x          2.202951      2.202951     0.000000    Cartesian    0.00
    148 y          6.608853      6.576481    -0.032373    Cartesian   -0.49
    148 z         -2.202951     -2.172628     0.030324    Cartesian   -1.38
    149 x          6.608853      6.610213     0.001360    Cartesian    0.02
    149 y         -2.202951     -2.203123    -0.000172    Cartesian    0.01
    149 z         -2.202951     -2.203123    -0.000172    Cartesian    0.01
    150 x          8.811805      8.831891     0.020086    Cartesian    0.23
    150 y          0.000000      0.015293     0.015293    Cartesian    0.00
    150 z          0.000000      0.015293     0.015293    Cartesian    0.00
    151 x          4.405902      4.466928     0.061025    Cartesian    1.39
    151 y          4.405902      4.456388     0.050486    Cartesian    1.15
    151 z         -4.405902     -4.477218    -0.071316    Cartesian    1.62
    152 x          6.608853      6.626615     0.017762    Cartesian    0.27
    152 y          2.202951      2.213551     0.010600    Cartesian    0.48
    152 z          6.608853      6.638689     0.029836    Cartesian    0.45
    153 x          8.811805      8.839520     0.027715    Cartesian    0.31
    153 y          0.000000      0.014951     0.014951    Cartesian    0.00
    153 z          4.405902      4.415931     0.010028    Cartesian    0.23
    154 x          2.202951      2.202951     0.000000    Cartesian    0.00
    154 y          2.202951      2.210413     0.007462    Cartesian    0.34
    154 z         -6.608853     -6.623243    -0.014390    Cartesian    0.22
    155 x          2.202951      2.202951     0.000000    Cartesian    0.00
    155 y          6.608853      6.596338    -0.012516    Cartesian   -0.19
    155 z          6.608853      6.596338    -0.012516    Cartesian   -0.19
    156 x          6.608853      6.615030     0.006177    Cartesian    0.09
    156 y          6.608853      6.617092     0.008238    Cartesian    0.12
    156 z         -2.202951     -2.208673    -0.005722    Cartesian    0.26
    157 x          4.405902      4.412708     0.006805    Cartesian    0.15
    157 y          0.000000     -0.001720    -0.001720    Cartesian    0.00
    157 z          8.811805      8.850987     0.039182    Cartesian    0.44
    158 x          4.405902      4.405592    -0.000311    Cartesian   -0.01
    158 y         -4.405902     -4.423273    -0.017371    Cartesian    0.39
    158 z         -4.405902     -4.423273    -0.017371    Cartesian    0.39
    159 x          8.811805      8.851147     0.039342    Cartesian    0.45
    159 y          4.405902      4.418383     0.012480    Cartesian    0.28
    159 z          4.405902      4.418383     0.012480    Cartesian    0.28
    160 x          2.202951      2.202951     0.000000    Cartesian    0.00
    160 y         -2.202951     -2.204099    -0.001148    Cartesian    0.05
    160 z         -6.608853     -6.608012     0.000841    Cartesian   -0.01
    161 x          4.405902      4.410837     0.004934    Cartesian    0.11
    161 y          4.405902      4.416398     0.010496    Cartesian    0.24
    161 z          8.811805      8.846528     0.034723    Cartesian    0.39
    162 x          8.811805      8.828901     0.017097    Cartesian    0.19
    162 y          0.000000     -0.000534    -0.000534    Cartesian    0.00
    162 z         -4.405902     -4.407281    -0.001379    Cartesian    0.03
    163 x          6.608853      6.600521    -0.008332    Cartesian   -0.13
    163 y          2.202951      2.200666    -0.002285    Cartesian   -0.10
    163 z         -6.608853     -6.598245     0.010608    Cartesian   -0.16
    164 x          6.608853      6.624952     0.016098    Cartesian    0.24
    164 y          6.608853      6.625042     0.016188    Cartesian    0.24
    164 z          6.608853      6.625042     0.016188    Cartesian    0.24
    165 x         11.014756     11.013305    -0.001451    Cartesian   -0.01
    165 y          2.202951      2.206547     0.003596    Cartesian    0.16
    165 z          2.202951      2.206547     0.003596    Cartesian    0.16
    166 x          8.811805      8.833557     0.021752    Cartesian    0.25
    166 y          4.405902      4.415533     0.009631    Cartesian    0.22
    166 z         -4.405902     -4.404253     0.001649    Cartesian   -0.04
    167 x          2.202951      2.202951     0.000000    Cartesian    0.00
    167 y          6.608853      6.593776    -0.015077    Cartesian   -0.23
    167 z         -6.608853     -6.600090     0.008764    Cartesian   -0.13
    168 x          6.608853      6.614663     0.005810    Cartesian    0.09
    168 y         -2.202951     -2.207480    -0.004529    Cartesian    0.21
    168 z         -6.608853     -6.612276    -0.003422    Cartesian    0.05
    169 x         11.014756     11.004657    -0.010098    Cartesian   -0.09
    169 y          2.202951      2.205123     0.002172    Cartesian    0.10
    169 z         -2.202951     -2.199232     0.003720    Cartesian   -0.17
    170 x          4.405902      4.411139     0.005237    Cartesian    0.12
    170 y          8.811805      8.837816     0.026011    Cartesian    0.30
    170 z         -4.405902     -4.404235     0.001667    Cartesian   -0.04
    171 x          2.202951      2.202951     0.000000    Cartesian    0.00
    171 y          2.202951      2.210201     0.007249    Cartesian    0.33
    171 z         11.014756     11.026450     0.011695    Cartesian    0.11
    172 x         11.014756     11.009123    -0.005633    Cartesian   -0.05
    172 y         -2.202951     -2.199511     0.003440    Cartesian   -0.16
    172 z         -2.202951     -2.199511     0.003440    Cartesian   -0.16
    173 x          4.405902      4.408582     0.002680    Cartesian    0.06
    173 y          0.000000     -0.000366    -0.000366    Cartesian    0.00
    173 z         -8.811805     -8.838283    -0.026478    Cartesian    0.30
    174 x          8.811805      8.829676     0.017871    Cartesian    0.20
    174 y          0.000000      0.004238     0.004238    Cartesian    0.00
    174 z          8.811805      8.830087     0.018282    Cartesian    0.21
    175 x          8.811805      8.826466     0.014662    Cartesian    0.17
    175 y         -4.405902     -4.416692    -0.010789    Cartesian    0.24
    175 z         -4.405902     -4.416692    -0.010789    Cartesian    0.24
    176 x          2.202951      2.202951     0.000000    Cartesian    0.00
    176 y         11.014756     11.008981    -0.005775    Cartesian   -0.05
    176 z         -2.202951     -2.215387    -0.012436    Cartesian    0.56
    177 x          6.608853      6.614779     0.005926    Cartesian    0.09
    177 y          6.608853      6.615184     0.006330    Cartesian    0.10
    177 z         -6.608853     -6.612345    -0.003492    Cartesian    0.05
    178 x         11.014756     11.021244     0.006488    Cartesian    0.06
    178 y          2.202951      2.204600     0.001649    Cartesian    0.07
    178 z          6.608853      6.613436     0.004583    Cartesian    0.07
    179 x          8.811805      8.835105     0.023300    Cartesian    0.26
    179 y          8.811805      8.832655     0.020850    Cartesian    0.24
    179 z          4.405902      4.412593     0.006691    Cartesian    0.15
    180 x          4.405902      4.407908     0.002006    Cartesian    0.05
    180 y          4.405902      4.408368     0.002466    Cartesian    0.06
    180 z         -8.811805     -8.834611    -0.022806    Cartesian    0.26
    181 x          2.202951      2.202951     0.000000    Cartesian    0.00
    181 y         -6.608853     -6.612105    -0.003252    Cartesian    0.05
    181 z         -6.608853     -6.612105    -0.003252    Cartesian    0.05
    182 x          6.608853      6.610760     0.001906    Cartesian    0.03
    182 y          2.202951      2.202581    -0.000370    Cartesian   -0.02
    182 z         11.014756     11.022847     0.008091    Cartesian    0.07
    183 x         11.014756     11.016903     0.002147    Cartesian    0.02
    183 y          6.608853      6.611638     0.002784    Cartesian    0.04
    183 z         -2.202951     -2.201611     0.001340    Cartesian   -0.06
    184 x          4.405902      4.412568     0.006665    Cartesian    0.15
    184 y          8.811805      8.826528     0.014723    Cartesian    0.17
    184 z          8.811805      8.826528     0.014723    Cartesian    0.17
    185 x         13.217707     13.239682     0.021975    Cartesian    0.17
    185 y          0.000000     -0.000992    -0.000992    Cartesian    0.00
    185 z          0.000000     -0.000992    -0.000992    Cartesian    0.00
    186 x          6.608853      6.612660     0.003806    Cartesian    0.06
    186 y         11.014756     11.021179     0.006423    Cartesian    0.06
    186 z         -2.202951     -2.205449    -0.002497    Cartesian    0.11
    187 x          2.202951      2.202951     0.000000    Cartesian    0.00
    187 y          6.608853      6.611512     0.002659    Cartesian    0.04
    187 z         11.014756     11.017618     0.002863    Cartesian    0.03
    188 x          4.405902      4.411698     0.005796    Cartesian    0.13
    188 y         -4.405902     -4.420769    -0.014867    Cartesian    0.34
    188 z         -8.811805     -8.831708    -0.019904    Cartesian    0.23
    189 x          8.811805      8.830142     0.018337    Cartesian    0.21
    189 y          8.811805      8.831896     0.020091    Cartesian    0.23
    189 z         -4.405902     -4.415832    -0.009930    Cartesian    0.23
    190 x         13.217707     13.240999     0.023292    Cartesian    0.18
    190 y          0.000000     -0.002444    -0.002444    Cartesian    0.00
    190 z          4.405902      4.411449     0.005546    Cartesian    0.13
    191 x          6.608853      6.612238     0.003385    Cartesian    0.05
    191 y         -6.608853     -6.614003    -0.005149    Cartesian    0.08
    191 z         -6.608853     -6.614003    -0.005149    Cartesian    0.08
    192 x         11.014756     11.017011     0.002255    Cartesian    0.02
    192 y          2.202951      2.206116     0.003165    Cartesian    0.14
    192 z         -6.608853     -6.608987    -0.000133    Cartesian    0.00
    193 x         11.014756     11.023040     0.008284    Cartesian    0.08
    193 y          6.608853      6.614080     0.005227    Cartesian    0.08
    193 z          6.608853      6.614080     0.005227    Cartesian    0.08
    194 x         13.217707     13.242058     0.024351    Cartesian    0.18
    194 y          4.405902      4.414877     0.008974    Cartesian    0.20
    194 z          4.405902      4.414877     0.008974    Cartesian    0.20
    195 x          8.811805      8.825952     0.014147    Cartesian    0.16
    195 y          0.000000     -0.003631    -0.003631    Cartesian    0.00
    195 z         -8.811805     -8.835597    -0.023792    Cartesian    0.27
--------------------------------------------------------------------------------


  Time to end of optimisation  =       18.0334 seconds


  Peak dynamic memory used =      82.62 MB 


  Timing analysis for GULP :

--------------------------------------------------------------------------------
  Task / Subroutine                                          Time (Seconds)
--------------------------------------------------------------------------------
  Calculation of reciprocal space energy and derivatives          0.0007
  Calculation of reciprocal space energy using symmetry           0.0011
  Calculation of real space energy and derivatives                0.0038
  Calculation of real space energy using symmetry                 0.0117
  Calculation for region 1 energy and derivatives (2-b)           9.3647
  Calculation for region 2a energy                                7.0103
  Calculation for region 2b energy                                0.0034
  Calculation and manipulation of Hessian matrix                  1.3939
  Calculation of matrix inversion                                 0.1296
  Symmetry generation of equivalent positions                     0.0045
--------------------------------------------------------------------------------
  Total CPU time                                                 18.0335
--------------------------------------------------------------------------------


  Dump file written as Na3OCl.grs


  Job Finished at 13:03.38 26th September  2021                               

