********************************************************************************
*                       GENERAL UTILITY LATTICE PROGRAM                        *
*                                 Julian Gale                                  *
*                       Curtin Institute for Computation                       *
*                    School of Molecular and Life Sciences                     *
*                    Curtin University, Western Australia                      *
********************************************************************************
* Version = 5.2.0 * Last modified =  10th September 2020                       *
********************************************************************************
*  optimise     - perform optimisation run                                     *
*  conp         - constant pressure calculation                                *
*  property     - calculate properties for final geometry                      *
*  defect       - perform defect calculation after bulk run                    *
*  compare      - compare initial and final structures                         *
********************************************************************************

  Job Started  at 19:24.22 30th November   2020                               

  Number of CPUs =     1


  Total number of configurations input =      1

********************************************************************************
*  Input for Configuration =   1                                               *
********************************************************************************

  Formula = ClONa3                                                      

  Number of irreducible atoms/shells =       5


  Total number atoms/shells =       7

  Dimensionality = 3               :  Bulk   


  Symmetry :

  Crystal family                   :  Cubic       
  Crystal class  (Groth - 1921)    :  Cubic Hexakisoctahedral              

  Space group (centrosymmetric)    :  P M 3 M         

  Patterson group                  :  P m -3 m 

  Cartesian lattice vectors (Angstroms) :

        4.504000    0.000000    0.000000
        0.000000    4.504000    0.000000
        0.000000    0.000000    4.504000

  Cell parameters (Angstroms/Degrees):

  a =       4.5040    alpha =  90.0000
  b =       4.5040    beta  =  90.0000
  c =       4.5040    gamma =  90.0000

  Initial cell volume =          91.368216 Angs**3

  Temperature of configuration =   0.00     K 

  Pressure of configuration =         0.000 GPa 

  Fractional coordinates of asymmetric unit :

--------------------------------------------------------------------------------
   No.  Atomic       x           y          z         Charge      Occupancy
        Label      (Frac)      (Frac)     (Frac)        (e)         (Frac)  
--------------------------------------------------------------------------------
      1 Cl    c    0.000000    0.000000    0.000000     1.48500    1.000000    
      2 O     c    0.500000    0.500000    0.500000     0.18300    1.000000    
      3 Na    c    0.500000    0.500000    0.000000     1.00000    1.000000    
      4 Cl    s    0.000000    0.000000    0.000000    -2.48500    1.000000    
      5 O     s    0.500000    0.500000    0.500000    -2.18300    1.000000    
--------------------------------------------------------------------------------


  Constraints : 

--------------------------------------------------------------------------------
  Constraint no.      Unconstrained     Constrained    Coefficient    Offset
                         Variable         Variable
--------------------------------------------------------------------------------
           1              Strain 1        Strain 2       1.00000      0.0000
           2              Strain 1        Strain 3       1.00000      0.0000
--------------------------------------------------------------------------------


********************************************************************************
*  General input information                                                   *
********************************************************************************

  Species output for all configurations : 

--------------------------------------------------------------------------------
  Species    Type    Atomic    Atomic    Charge       Radii (Angs)     Library
                     Number     Mass       (e)     Cova   Ionic  VDW   Symbol
--------------------------------------------------------------------------------
    Na       Core       11      22.99   1.000000   0.970  0.000  2.300          
    O        Core        8      16.00   0.183000   0.730  0.000  1.360          
    O        Shell       8       0.00  -2.183000   0.730  0.000  1.360          
    Cl       Core       17      35.45   1.485000   0.990  0.000  1.650          
    Cl       Shell      17       0.00  -2.485000   0.990  0.000  1.650          
    Mg       Core       12      24.31   0.415000   1.100  0.000  0.000          
    Mg       Shell      12       0.00   1.585000   1.100  0.000  0.000          
    Ca       Core       20      40.08  -1.135000   0.990  0.000  0.000          
    Ca       Shell      20       0.00   3.135000   0.990  0.000  0.000          
    Sr       Core       38      87.62  -1.251000   1.120  0.000  0.000          
    Sr       Shell      38       0.00   3.251000   1.120  0.000  0.000          
    Ba       Core       56     137.33  -7.203000   1.340  0.000  0.000          
    Ba       Shell      56       0.00   9.203000   1.340  0.000  0.000          
--------------------------------------------------------------------------------


  Lattice summation method               =    Ewald          (3-D)
                                         =    Parry          (2-D)
                                         =    Saunders et al (1-D)
  Accuracy factor for lattice sums       =   12.000


  Analytic derivatives to be used

  Time limit = Infinity

  Maximum range for interatomic potentials =    100000.000000 Angstroms

  General interatomic potentials :

--------------------------------------------------------------------------------
Atom  Types   Potential      Parameter       Value         Units   Cutoffs(Ang)
  1     2                                                            Min /  Max 
--------------------------------------------------------------------------------
O    c O    s Spring (c-s)  Spring k 2       593.71600    eV*Ang^-2 0.000  0.800
                            Spring k 4       0.0000000    eV*Ang^-4 
--------------------------------------------------------------------------------
Cl   c Cl   s Spring (c-s)  Spring k 2       29.380000    eV*Ang^-2 0.000  0.800
                            Spring k 4       0.0000000    eV*Ang^-4 
--------------------------------------------------------------------------------
Mg   c Mg   s Spring (c-s)  Spring k 2       361.60000    eV*Ang^-2 0.000  0.800
                            Spring k 4       0.0000000    eV*Ang^-4 
--------------------------------------------------------------------------------
Ca   c Ca   s Spring (c-s)  Spring k 2       110.20000    eV*Ang^-2 0.000  0.800
                            Spring k 4       0.0000000    eV*Ang^-4 
--------------------------------------------------------------------------------
Sr   c Sr   s Spring (c-s)  Spring k 2       71.700000    eV*Ang^-2 0.000  0.800
                            Spring k 4       0.0000000    eV*Ang^-4 
--------------------------------------------------------------------------------
Ba   c Ba   s Spring (c-s)  Spring k 2       495.20000    eV*Ang^-2 0.000  0.800
                            Spring k 4       0.0000000    eV*Ang^-4 
--------------------------------------------------------------------------------
Na   c Na   c Buckingham    Buckingham A     1788.1900    eV        0.000 12.000
                            Buckingham rho  0.15900000    Ang       
                            Buckingham C     0.0000000    eV*Ang^6  
--------------------------------------------------------------------------------
Na   c O    s Buckingham    Buckingham A     1226.8400    eV        0.000 12.000
                            Buckingham rho  0.30700000    Ang       
                            Buckingham C     0.0000000    eV*Ang^6  
--------------------------------------------------------------------------------
Na   c Cl   s Buckingham    Buckingham A     2314.7000    eV        0.000 12.000
                            Buckingham rho  0.29000000    Ang       
                            Buckingham C     0.0000000    eV*Ang^6  
--------------------------------------------------------------------------------
O    s O    s Buckingham    Buckingham A     22764.300    eV        0.000 12.000
                            Buckingham rho  0.14900000    Ang       
                            Buckingham C     13.190000    eV*Ang^6  
--------------------------------------------------------------------------------
O    s Cl   s Buckingham    Buckingham A     8286.9100    eV        0.000 12.000
                            Buckingham rho  0.25900000    Ang       
                            Buckingham C     62.200000    eV*Ang^6  
--------------------------------------------------------------------------------
Cl   s Cl   s Buckingham    Buckingham A     1227.2000    eV        0.000 12.000
                            Buckingham rho  0.32100000    Ang       
                            Buckingham C     14.530000    eV*Ang^6  
--------------------------------------------------------------------------------
O    s Mg   s Buckingham    Buckingham A     1428.5000    eV        0.000 12.000
                            Buckingham rho  0.29450000    Ang       
                            Buckingham C     0.0000000    eV*Ang^6  
--------------------------------------------------------------------------------
Mg   s Cl   s Buckingham    Buckingham A     4914.5400    eV        0.000 12.000
                            Buckingham rho  0.25700000    Ang       
                            Buckingham C     0.0000000    eV*Ang^6  
--------------------------------------------------------------------------------
O    s Ca   s Buckingham    Buckingham A     1090.4000    eV        0.000 12.000
                            Buckingham rho  0.34370000    Ang       
                            Buckingham C     0.0000000    eV*Ang^6  
--------------------------------------------------------------------------------
Cl   s Ca   s Buckingham    Buckingham A     2302.0000    eV        0.000 12.000
                            Buckingham rho  0.34020000    Ang       
                            Buckingham C     0.0000000    eV*Ang^6  
--------------------------------------------------------------------------------
O    s Sr   s Buckingham    Buckingham A     959.10000    eV        0.000 12.000
                            Buckingham rho  0.37210000    Ang       
                            Buckingham C     0.0000000    eV*Ang^6  
--------------------------------------------------------------------------------
Cl   s Sr   s Buckingham    Buckingham A     2191.0900    eV        0.000 12.000
                            Buckingham rho  0.34570000    Ang       
                            Buckingham C     0.0000000    eV*Ang^6  
--------------------------------------------------------------------------------
O    s Ba   s Buckingham    Buckingham A     905.70000    eV        0.000 12.000
                            Buckingham rho  0.39760000    Ang       
                            Buckingham C     0.0000000    eV*Ang^6  
--------------------------------------------------------------------------------
Cl   s Ba   s Buckingham    Buckingham A     2704.5500    eV        0.000 12.000
                            Buckingham rho  0.35280000    Ang       
                            Buckingham C     0.0000000    eV*Ang^6  
--------------------------------------------------------------------------------

********************************************************************************
*  Output for configuration   1                                                *
********************************************************************************


  Components of energy : 

--------------------------------------------------------------------------------
  Interatomic potentials     =           5.13022605 eV    
  Monopole - monopole (real) =         -10.03624526 eV    
  Monopole - monopole (recip)=         -29.53581274 eV    
  Monopole - monopole (total)=         -39.57205800 eV    
--------------------------------------------------------------------------------
  Total lattice energy       =         -34.44183194 eV    
--------------------------------------------------------------------------------
  Total lattice energy       =           -3323.1103 kJ/(mole unit cells)
--------------------------------------------------------------------------------


  Number of variables =        1

  Maximum number of calculations  =          1000
  Maximum Hessian update interval =            10
  Maximum step size               =   1.000000000
  Maximum parameter tolerance     =   0.000010000
  Maximum function  tolerance     =   0.000010000
  Maximum gradient  tolerance     =   0.001000000
  Maximum gradient  component     =   0.010000000

  Symmetry constrained optimisation

  Symmetry used for second derivatives

  Cell parameters to be optimised using strains

  Newton-Raphson optimiser to be used

  BFGS hessian update to be used

  Lower half triangular hessian to be used

  Start of bulk optimisation :

  Cycle:      0 Energy:       -34.441832  Gnorm:      0.196570  CPU:    0.009
  ** Hessian calculated **
  Cycle:      1 Energy:       -34.441914  Gnorm:      0.000103  CPU:    0.011


  **** Optimisation achieved ****


  Final energy =     -34.44191447 eV
  Final Gnorm  =       0.00000000

  Components of energy : 

--------------------------------------------------------------------------------
  Interatomic potentials     =           5.09689708 eV    
  Monopole - monopole (real) =         -10.02781331 eV    
  Monopole - monopole (recip)=         -29.51099824 eV    
  Monopole - monopole (total)=         -39.53881155 eV    
--------------------------------------------------------------------------------
  Total lattice energy       =         -34.44191447 eV    
--------------------------------------------------------------------------------
  Total lattice energy       =           -3323.1183 kJ/(mole unit cells)
--------------------------------------------------------------------------------

  Final asymmetric unit coordinates :

--------------------------------------------------------------------------------
   No.  Atomic        x           y           z         Radius
        Label       (Frac)      (Frac)      (Frac)       (Angs) 
--------------------------------------------------------------------------------
     1  Cl    c     0.000000    0.000000    0.000000    0.000000
     2  O     c     0.500000    0.500000    0.500000    0.000000
     3  Na    c     0.500000    0.500000    0.000000    0.000000
     4  Cl    s     0.000000    0.000000    0.000000    0.000000
     5  O     s     0.500000    0.500000    0.500000    0.000000
--------------------------------------------------------------------------------

  Final Cartesian lattice vectors (Angstroms) :

        4.507787    0.000000    0.000000
        0.000000    4.507787    0.000000
        0.000000    0.000000    4.507787


  Final cell parameters and derivatives :

--------------------------------------------------------------------------------
       a            4.507787 Angstrom     dE/de1(xx)     0.000000 eV/strain
       b            4.507787 Angstrom     dE/de2(yy)     0.000000 eV/strain
       c            4.507787 Angstrom     dE/de3(zz)     0.000000 eV/strain
       alpha       90.000000 Degrees      dE/de4(yz)     0.000000 eV/strain
       beta        90.000000 Degrees      dE/de5(xz)     0.000000 eV/strain
       gamma       90.000000 Degrees      dE/de6(xy)     0.000000 eV/strain
--------------------------------------------------------------------------------

  Primitive cell volume =            91.598892 Angs**3

  Density of cell =      2.183054 g/cm**3

  Non-primitive cell volume =            91.598892 Angs**3


  Final internal derivatives :

--------------------------------------------------------------------------------
   No.  Atomic          a             b             c           Radius
        Label          (eV)          (eV)          (eV)        (eV/Angs)
--------------------------------------------------------------------------------
      1 Cl    c       0.000000      0.000000      0.000000      0.000000
      2 O     c       0.000000      0.000000      0.000000      0.000000
      3 Na    c       0.000000      0.000000      0.000000      0.000000
      4 Cl    s       0.000000      0.000000      0.000000      0.000000
      5 O     s       0.000000      0.000000      0.000000      0.000000
--------------------------------------------------------------------------------
  Maximum abs         0.000000      0.000000      0.000000      0.000000
--------------------------------------------------------------------------------

  Comparison of initial and final structures : 

--------------------------------------------------------------------------------
  Parameter   Initial value   Final value   Difference    Units      Percent
--------------------------------------------------------------------------------
    Volume        91.368216     91.598892     0.230676    Angs**3      0.25
    a              4.504000      4.507787     0.003787    Angstroms    0.08
    b              4.504000      4.507787     0.003787    Angstroms    0.08
    c              4.504000      4.507787     0.003787    Angstroms    0.08
    alpha         90.000000     90.000000     0.000000    Degrees      0.00
    beta          90.000000     90.000000     0.000000    Degrees      0.00
    gamma         90.000000     90.000000     0.000000    Degrees      0.00
      1 x          0.000000      0.000000     0.000000    Fractional   0.00
      1 y          0.000000      0.000000     0.000000    Fractional   0.00
      1 z          0.000000      0.000000     0.000000    Fractional   0.00
      2 x          0.500000      0.500000     0.000000    Fractional   0.00
      2 y          0.500000      0.500000     0.000000    Fractional   0.00
      2 z          0.500000      0.500000     0.000000    Fractional   0.00
      3 x          0.500000      0.500000     0.000000    Fractional   0.00
      3 y          0.500000      0.500000     0.000000    Fractional   0.00
      3 z          0.000000      0.000000     0.000000    Fractional   0.00
      4 x          0.000000      0.000000     0.000000    Fractional   0.00
      4 y          0.000000      0.000000     0.000000    Fractional   0.00
      4 z          0.000000      0.000000     0.000000    Fractional   0.00
      5 x          0.500000      0.500000     0.000000    Fractional   0.00
      5 y          0.500000      0.500000     0.000000    Fractional   0.00
      5 z          0.500000      0.500000     0.000000    Fractional   0.00
--------------------------------------------------------------------------------


  Born effective charge tensors : 

-------------------------------------------------------------------------------
  Atom             x           y             z
-------------------------------------------------------------------------------
    1 Cl    x      -1.0181     -0.0000      0.0000
            y      -0.0000     -1.0181      0.0000
            z       0.0000      0.0000     -1.0181
-------------------------------------------------------------------------------
    2 O     x      -2.2647      0.0000     -0.0000
            y       0.0000     -2.2647     -0.0000
            z      -0.0000     -0.0000     -2.2647
-------------------------------------------------------------------------------
    3 Na    x       1.2258     -0.0000      0.0000
            y      -0.0000      1.2258     -0.0000
            z       0.0000     -0.0000      0.8313
-------------------------------------------------------------------------------




  Elastic Constant Matrix: (Units=GPa)

-------------------------------------------------------------------------------
  Indices      1         2         3         4         5         6    
-------------------------------------------------------------------------------
       1     95.8177   20.0737   20.0737   -0.0000   -0.0000    0.0000
       2     20.0737   95.8177   20.0737   -0.0000   -0.0000    0.0000
       3     20.0737   20.0737   95.8177   -0.0000   -0.0000    0.0000
       4     -0.0000   -0.0000   -0.0000   20.0737   -0.0000    0.0000
       5     -0.0000   -0.0000   -0.0000   -0.0000   20.0737    0.0000
       6      0.0000    0.0000    0.0000    0.0000    0.0000   20.0737
-------------------------------------------------------------------------------


  Elastic Compliance Matrix: (Units=1/GPa)

-------------------------------------------------------------------------------
  Indices      1         2         3         4         5         6    
-------------------------------------------------------------------------------
       1    0.011253 -0.001949 -0.001949  0.000000  0.000000 -0.000000
       2   -0.001949  0.011253 -0.001949  0.000000  0.000000  0.000000
       3   -0.001949 -0.001949  0.011253  0.000000  0.000000 -0.000000
       4    0.000000  0.000000  0.000000  0.049816  0.000000 -0.000000
       5    0.000000  0.000000  0.000000  0.000000  0.049816 -0.000000
       6   -0.000000  0.000000 -0.000000 -0.000000 -0.000000  0.049816
-------------------------------------------------------------------------------

  Mechanical properties :

-------------------------------------------------------------------------------
  Convention :                    Reuss         Voigt         Hill
-------------------------------------------------------------------------------
  Bulk  Modulus (GPa)     =      45.32174      45.32174      45.32174
  Shear Modulus (GPa)     =      24.72085      27.19304      25.95695
-------------------------------------------------------------------------------
  Velocity S-wave (km/s)  =       3.36511       3.52937       3.44822
  Velocity P-wave (km/s)  =       5.98827       6.11304       6.05098
-------------------------------------------------------------------------------
  Compressibility (1/GPa) =    0.02206447
-------------------------------------------------------------------------------
  Stress axis :                     x             y             z
-------------------------------------------------------------------------------
  Youngs Moduli (GPa)     =      88.86373      88.86373      88.86373
-------------------------------------------------------------------------------
  Poissons Ratio (x)      =                     0.17321       0.17321
  Poissons Ratio (y)      =       0.17321                     0.17321
  Poissons Ratio (z)      =       0.17321       0.17321
-------------------------------------------------------------------------------


  Piezoelectric Strain Matrix: (Units=C/m**2)

-------------------------------------------------------------------------------
  Indices      1         2         3         4         5         6    
-------------------------------------------------------------------------------
       x    -0.00000  -0.00000  -0.00000   0.00000  -0.00000  -0.00000
       y    -0.00000  -0.00000   0.00000  -0.00000   0.00000   0.00000
       z    -0.00000  -0.00000  -0.00000  -0.00000   0.00000   0.00000
-------------------------------------------------------------------------------


  Piezoelectric Stress Matrix: (Units=10**-11 C/N)

-------------------------------------------------------------------------------
  Indices      1         2         3         4         5         6    
-------------------------------------------------------------------------------
       x    -0.00000   0.00000   0.00000   0.00000  -0.00000  -0.00000
       y    -0.00000  -0.00000   0.00000  -0.00000   0.00000   0.00000
       z     0.00000   0.00000  -0.00000  -0.00000   0.00000   0.00000
-------------------------------------------------------------------------------


  Static dielectric constant tensor : 

-------------------------------------------------------------------------------
              x         y         z
-------------------------------------------------------------------------------
       x    22.84729   0.00000   0.00000
       y     0.00000  22.84729  -0.00000
       z     0.00000  -0.00000  22.84729
--------------------------------------------------------------------------------

  High frequency dielectric constant tensor : 

-------------------------------------------------------------------------------
              x         y         z
-------------------------------------------------------------------------------
       x     1.47557   0.00000  -0.00000
       y     0.00000   1.47557  -0.00000
       z    -0.00000  -0.00000   1.47557
-------------------------------------------------------------------------------

  Static refractive indices : 

-------------------------------------------------------------------------------
    1 =    4.77988      2 =    4.77988      3 =    4.77988
-------------------------------------------------------------------------------

  High frequency refractive indices : 

-------------------------------------------------------------------------------
    1 =    1.21473      2 =    1.21473      3 =    1.21473
-------------------------------------------------------------------------------


  Time to end of optimisation =       0.0155 seconds

********************************************************************************
*  Defect calculation for configuration   1 :                                  *
********************************************************************************

  Total number of defects =      3

  Total charge on defect  =  -1.00

  Defect centre is at   0.5000   0.1500   0.3500  Frac

  Region 1 radius =  12.0000      Number of ions =    543

  Number of symmetry inequivalent region 1 ions  =    315

  Region 2 radius =  16.0000      Number of ions =    778

  Number of symmetry inequivalent region 2a ions =    424

  Region 2a mode = 4 : screened electrostatics due to region 1 
                       neglect correction to region 1 forces from 2a
                       region 2a displacements based on defects only

  Region 2a ions will only interact with defects in region 1

  Vacancies:

--------------------------------------------------------------------------------
    Specification type     Symbol/Number         x          y          z
--------------------------------------------------------------------------------
    Fractional                               0.500000   0.500000   0.000000
    Fractional                               0.500000   0.000000   0.500000
--------------------------------------------------------------------------------

  Interstitials:

--------------------------------------------------------------------------------
    Specification type     Symbol/Number         x          y          z
--------------------------------------------------------------------------------
    Atom/Fractional         Na               0.500000   0.150000   0.350000
--------------------------------------------------------------------------------


  Symmetry reduced region 1 (Relative to defect centre) :

--------------------------------------------------------------------------------
   No.   Atomic       x            y             z       Radius  Multiplicity   
         Label      (Angs)       (Angs)        (Angs)    (Angs)     
--------------------------------------------------------------------------------
     1  Na    c      0.0000       0.0000       0.0000    0.0000     1    Defect
     2  O     c      0.0000       1.5777 *     0.6762 *  0.0000     1          
     3  Cl    c      2.2539 *    -0.6762 *    -1.5777 *  0.0000     2          
     4  Na    c      2.2539 *     1.5777 *     0.6762 *  0.0000     2          
     5  O     c      0.0000      -2.9301 *     0.6762 *  0.0000     1          
     6  Na    c      0.0000       1.5777 *     2.9301 *  0.0000     1          
     7  Na    c      0.0000      -2.9301 *    -1.5777 *  0.0000     1          
     8  Na    c      2.2539 *    -2.9301 *     0.6762 *  0.0000     2          
     9  Cl    c      2.2539 *    -0.6762 *     2.9301 *  0.0000     2          
    10  Na    c      0.0000       3.8316 *     0.6762 *  0.0000     1          
    11  Na    c      0.0000      -0.6762 *    -3.8316 *  0.0000     1          
    12  Na    c      0.0000      -2.9301 *     2.9301 *  0.0000     1          
    13  O     c      0.0000       1.5777 *    -3.8316 *  0.0000     1          
    14  Na    c     -4.5078 *    -0.6762 *     0.6762 *  0.0000     2          
    15  Cl    c      2.2539 *     3.8316 *    -1.5777 *  0.0000     2          
    16  Na    c      2.2539 *     1.5777 *    -3.8316 *  0.0000     2          
    17  O     c     -4.5078 *     1.5777 *     0.6762 *  0.0000     2          
    18  O     c      0.0000      -2.9301 *    -3.8316 *  0.0000     1          
    19  Na    c     -4.5078 *     1.5777 *    -1.5777 *  0.0000     2          
    20  Na    c      0.0000      -0.6762 *     5.1840 *  0.0000     1          
    21  Na    c      0.0000      -5.1840 *     0.6762 *  0.0000     1          
    22  Cl    c      2.2539 *     3.8316 *     2.9301 *  0.0000     2          
    23  Na    c      2.2539 *    -2.9301 *    -3.8316 *  0.0000     2          
    24  O     c      0.0000       1.5777 *     5.1840 *  0.0000     1          
    25  O     c     -4.5078 *    -2.9301 *     0.6762 *  0.0000     2          
    26  Na    c      0.0000       3.8316 *    -3.8316 *  0.0000     1          
    27  Na    c     -4.5078 *     1.5777 *     2.9301 *  0.0000     2          
    28  Na    c     -4.5078 *    -2.9301 *    -1.5777 *  0.0000     2          
    29  Na    c      2.2539 *     1.5777 *     5.1840 *  0.0000     2          
    30  Cl    c      2.2539 *    -5.1840 *    -1.5777 *  0.0000     2          
    31  O     c      0.0000      -2.9301 *     5.1840 *  0.0000     1          
    32  Na    c     -4.5078 *     3.8316 *     0.6762 *  0.0000     2          
    33  Na    c     -4.5078 *    -0.6762 *    -3.8316 *  0.0000     2          
    34  Na    c     -4.5078 *    -2.9301 *     2.9301 *  0.0000     2          
    35  O     c      0.0000       6.0855 *     0.6762 *  0.0000     1          
    36  O     c     -4.5078 *     1.5777 *    -3.8316 *  0.0000     2          
    37  Na    c      0.0000       1.5777 *    -6.0855 *  0.0000     1          
    38  Na    c      0.0000       6.0855 *    -1.5777 *  0.0000     1          
    39  Na    c      2.2539 *    -2.9301 *     5.1840 *  0.0000     2          
    40  Cl    c      2.2539 *    -5.1840 *     2.9301 *  0.0000     2          
    41  Na    c      0.0000       3.8316 *     5.1840 *  0.0000     1          
    42  Na    c      0.0000      -5.1840 *    -3.8316 *  0.0000     1          
    43  Cl    c      2.2539 *    -0.6762 *    -6.0855 *  0.0000     2          
    44  Na    c      2.2539 *     6.0855 *     0.6762 *  0.0000     2          
    45  O     c     -4.5078 *    -2.9301 *    -3.8316 *  0.0000     2          
    46  Na    c      0.0000      -2.9301 *    -6.0855 *  0.0000     1          
    47  Na    c      0.0000       6.0855 *     2.9301 *  0.0000     1          
    48  Na    c     -4.5078 *    -0.6762 *     5.1840 *  0.0000     2          
    49  Na    c     -4.5078 *    -5.1840 *     0.6762 *  0.0000     2          
    50  Cl    c      6.7617 *    -0.6762 *    -1.5777 *  0.0000     2          
    51  Na    c      6.7617 *     1.5777 *     0.6762 *  0.0000     2          
    52  O     c     -4.5078 *     1.5777 *     5.1840 *  0.0000     2          
    53  Na    c     -4.5078 *     3.8316 *    -3.8316 *  0.0000     2          
    54  O     c      0.0000       6.0855 *    -3.8316 *  0.0000     1          
    55  Na    c      0.0000      -5.1840 *     5.1840 *  0.0000     1          
    56  Cl    c      6.7617 *    -0.6762 *     2.9301 *  0.0000     2          
    57  Na    c      6.7617 *    -2.9301 *     0.6762 *  0.0000     2          
    58  O     c      0.0000      -7.4378 *     0.6762 *  0.0000     1          
    59  O     c     -4.5078 *    -2.9301 *     5.1840 *  0.0000     2          
    60  Cl    c      2.2539 *     3.8316 *    -6.0855 *  0.0000     2          
    61  Na    c      2.2539 *     6.0855 *    -3.8316 *  0.0000     2          
    62  O     c     -4.5078 *     6.0855 *     0.6762 *  0.0000     2          
    63  Na    c      0.0000       1.5777 *     7.4378 *  0.0000     1          
    64  Na    c      0.0000      -7.4378 *    -1.5777 *  0.0000     1          
    65  Na    c     -4.5078 *     1.5777 *    -6.0855 *  0.0000     2          
    66  Na    c     -4.5078 *     6.0855 *    -1.5777 *  0.0000     2          
    67  Cl    c      2.2539 *    -0.6762 *     7.4378 *  0.0000     2          
    68  Na    c      2.2539 *    -7.4378 *     0.6762 *  0.0000     2          
    69  Na    c      4.5078 *     3.8316 *     5.1840 *  0.0000     2          
    70  Na    c     -4.5078 *    -5.1840 *    -3.8316 *  0.0000     2          
    71  Cl    c      6.7617 *     3.8316 *    -1.5777 *  0.0000     2          
    72  Na    c      6.7617 *     1.5777 *    -3.8316 *  0.0000     2          
    73  O     c      0.0000       6.0855 *     5.1840 *  0.0000     1          
    74  Na    c      0.0000      -2.9301 *     7.4378 *  0.0000     1          
    75  Na    c      0.0000      -7.4378 *     2.9301 *  0.0000     1          
    76  Na    c     -4.5078 *     6.0855 *     2.9301 *  0.0000     2          
    77  Na    c     -4.5078 *    -2.9301 *    -6.0855 *  0.0000     2          
    78  Na    c      2.2539 *     6.0855 *     5.1840 *  0.0000     2          
    79  Cl    c      2.2539 *    -5.1840 *    -6.0855 *  0.0000     2          
    80  Cl    c      6.7617 *     3.8316 *     2.9301 *  0.0000     2          
    81  Na    c      6.7617 *    -2.9301 *    -3.8316 *  0.0000     2          
    82  O     c      0.0000      -7.4378 *    -3.8316 *  0.0000     1          
    83  Na    c      0.0000      -0.6762 *    -8.3394 *  0.0000     1          
    84  Na    c      0.0000       8.3394 *     0.6762 *  0.0000     1          
    85  O     c      0.0000       1.5777 *    -8.3394 *  0.0000     1          
    86  O     c     -4.5078 *     6.0855 *    -3.8316 *  0.0000     2          
    87  Na    c     -4.5078 *    -5.1840 *     5.1840 *  0.0000     2          
    88  Na    c      0.0000       6.0855 *    -6.0855 *  0.0000     1          
    89  Cl    c      2.2539 *     3.8316 *     7.4378 *  0.0000     2          
    90  Na    c      2.2539 *    -7.4378 *    -3.8316 *  0.0000     2          
    91  Na    c      6.7617 *     1.5777 *     5.1840 *  0.0000     2          
    92  Cl    c      6.7617 *    -5.1840 *    -1.5777 *  0.0000     2          
    93  O     c      4.5078 *    -7.4378 *     0.6762 *  0.0000     2          
    94  Cl    c      2.2539 *     8.3394 *    -1.5777 *  0.0000     2          
    95  Na    c      2.2539 *     1.5777 *    -8.3394 *  0.0000     2          
    96  O     c      0.0000      -2.9301 *    -8.3394 *  0.0000     1          
    97  Na    c      4.5078 *     1.5777 *     7.4378 *  0.0000     2          
    98  Na    c      4.5078 *    -7.4378 *    -1.5777 *  0.0000     2          
    99  Na    c      6.7617 *    -2.9301 *     5.1840 *  0.0000     2          
   100  Cl    c      6.7617 *    -5.1840 *     2.9301 *  0.0000     2          
   101  O     c      0.0000      -7.4378 *     5.1840 *  0.0000     1          
   102  Na    c      9.0156 *    -0.6762 *     0.6762 *  0.0000     2          
   103  Cl    c      2.2539 *     8.3394 *     2.9301 *  0.0000     2          
   104  Cl    c      6.7617 *    -0.6762 *    -6.0855 *  0.0000     2          
   105  Na    c      2.2539 *    -2.9301 *    -8.3394 *  0.0000     2          
   106  Na    c      6.7617 *     6.0855 *     0.6762 *  0.0000     2          
   107  O     c     -4.5078 *     6.0855 *     5.1840 *  0.0000     2          
   108  Na    c     -4.5078 *    -2.9301 *     7.4378 *  0.0000     2          
   109  Na    c      0.0000       3.8316 *    -8.3394 *  0.0000     1          
   110  Na    c      0.0000       8.3394 *    -3.8316 *  0.0000     1          
   111  O     c      9.0156 *     1.5777 *     0.6762 *  0.0000     2          
   112  Na    c      4.5078 *    -7.4378 *     2.9301 *  0.0000     2          
   113  Na    c      9.0156 *     1.5777 *    -1.5777 *  0.0000     2          
   114  Cl    c      2.2539 *    -5.1840 *     7.4378 *  0.0000     2          
   115  Na    c      2.2539 *    -7.4378 *     5.1840 *  0.0000     2          
   116  O     c      4.5078 *    -7.4378 *    -3.8316 *  0.0000     2          
   117  Na    c     -4.5078 *    -0.6762 *    -8.3394 *  0.0000     2          
   118  Na    c     -4.5078 *     8.3394 *     0.6762 *  0.0000     2          
   119  O     c      9.0156 *    -2.9301 *     0.6762 *  0.0000     2          
   120  O     c      4.5078 *     1.5777 *    -8.3394 *  0.0000     2          
   121  Na    c      0.0000       6.0855 *     7.4378 *  0.0000     1          
   122  Na    c      0.0000      -7.4378 *    -6.0855 *  0.0000     1          
   123  Na    c      9.0156 *     1.5777 *     2.9301 *  0.0000     2          
   124  Na    c      9.0156 *    -2.9301 *    -1.5777 *  0.0000     2          
   125  Na    c      0.0000      -0.6762 *     9.6917 *  0.0000     1          
   126  Na    c      0.0000      -9.6917 *     0.6762 *  0.0000     1          
   127  Na    c      4.5078 *     6.0855 *    -6.0855 *  0.0000     2          
   128  O     c      0.0000       1.5777 *     9.6917 *  0.0000     1          
   129  Na    c      0.0000       8.3394 *     5.1840 *  0.0000     1          
   130  Na    c      0.0000      -5.1840 *    -8.3394 *  0.0000     1          
   131  Na    c      9.0156 *    -0.6762 *    -3.8316 *  0.0000     2          
   132  Na    c      9.0156 *     3.8316 *     0.6762 *  0.0000     2          
   133  Cl    c      6.7617 *     3.8316 *    -6.0855 *  0.0000     2          
   134  Na    c      6.7617 *     6.0855 *    -3.8316 *  0.0000     2          
   135  O     c      4.5078 *    -2.9301 *    -8.3394 *  0.0000     2          
   136  O     c      9.0156 *     1.5777 *    -3.8316 *  0.0000     2          
   137  Na    c      9.0156 *    -2.9301 *     2.9301 *  0.0000     2          
   138  Cl    c      2.2539 *    -9.6917 *    -1.5777 *  0.0000     2          
   139  Na    c      2.2539 *     1.5777 *     9.6917 *  0.0000     2          
   140  Cl    c      6.7617 *    -0.6762 *     7.4378 *  0.0000     2          
   141  Na    c      6.7617 *    -7.4378 *     0.6762 *  0.0000     2          
   142  O     c      0.0000      -2.9301 *     9.6917 *  0.0000     1          
   143  O     c      4.5078 *    -7.4378 *     5.1840 *  0.0000     2          
   144  Na    c     -4.5078 *     8.3394 *    -3.8316 *  0.0000     2          
   145  O     c      9.0156 *    -2.9301 *    -3.8316 *  0.0000     2          
   146  Na    c      4.5078 *     3.8316 *    -8.3394 *  0.0000     2          
   147  O     c      0.0000       6.0855 *    -8.3394 *  0.0000     1          
   148  Cl    c      2.2539 *    -9.6917 *     2.9301 *  0.0000     2          
   149  Na    c      2.2539 *    -2.9301 *     9.6917 *  0.0000     2          
   150  Na    c      0.0000       3.8316 *     9.6917 *  0.0000     1          
   151  Na    c      0.0000      -9.6917 *    -3.8316 *  0.0000     1          
   152  Na    c      9.0156 *    -0.6762 *     5.1840 *  0.0000     2          
   153  Na    c      9.0156 *    -5.1840 *     0.6762 *  0.0000     2          
   154  Cl    c      6.7617 *    -5.1840 *    -6.0855 *  0.0000     2          
   155  Na    c      6.7617 *     6.0855 *     5.1840 *  0.0000     2          
   156  O     c      9.0156 *     1.5777 *     5.1840 *  0.0000     2          
   157  Na    c      0.0000      -7.4378 *     7.4378 *  0.0000     1          
   158  Na    c      9.0156 *     3.8316 *    -3.8316 *  0.0000     2          
   159  Cl    c      2.2539 *     8.3394 *    -6.0855 *  0.0000     2          
   160  Na    c      2.2539 *     6.0855 *    -8.3394 *  0.0000     2          
   161  O     c      0.0000      10.5933 *     0.6762 *  0.0000     1          
   162  Na    c      4.5078 *    -7.4378 *    -6.0855 *  0.0000     2          
   163  Na    c     -4.5078 *     6.0855 *     7.4378 *  0.0000     2          
   164  Na    c      0.0000       1.5777 *   -10.5933 *  0.0000     1          
   165  Na    c      0.0000      10.5933 *    -1.5777 *  0.0000     1          
   166  Na    c     -4.5078 *    -0.6762 *     9.6917 *  0.0000     2          
   167  Na    c     -4.5078 *    -9.6917 *     0.6762 *  0.0000     2          
   168  Cl    c      6.7617 *     3.8316 *     7.4378 *  0.0000     2          
   169  Na    c      6.7617 *    -7.4378 *    -3.8316 *  0.0000     2          
   170  O     c      4.5078 *     1.5777 *     9.6917 *  0.0000     2          
   171  Na    c     -4.5078 *     8.3394 *     5.1840 *  0.0000     2          
   172  O     c      9.0156 *    -2.9301 *     5.1840 *  0.0000     2          
   173  Na    c     -4.5078 *    -5.1840 *    -8.3394 *  0.0000     2          
   174  Cl    c      2.2539 *    -0.6762 *   -10.5933 *  0.0000     2          
   175  Na    c      2.2539 *    10.5933 *     0.6762 *  0.0000     2          
   176  Cl    c      6.7617 *     8.3394 *    -1.5777 *  0.0000     2          
   177  Na    c      6.7617 *     1.5777 *    -8.3394 *  0.0000     2          
   178  O     c      9.0156 *     6.0855 *     0.6762 *  0.0000     2          
   179  Na    c      0.0000      10.5933 *     2.9301 *  0.0000     1          
   180  Na    c      0.0000      -2.9301 *   -10.5933 *  0.0000     1          
   181  Na    c      0.0000      -9.6917 *     5.1840 *  0.0000     1          
   182  Na    c      0.0000      -5.1840 *     9.6917 *  0.0000     1          
   183  Na    c      9.0156 *     1.5777 *    -6.0855 *  0.0000     2          
   184  Na    c      9.0156 *     6.0855 *    -1.5777 *  0.0000     2          
   185  O     c      4.5078 *    -2.9301 *     9.6917 *  0.0000     2          
   186  Na    c      9.0156 *     3.8316 *     5.1840 *  0.0000     2          
   187  Na    c      9.0156 *    -5.1840 *    -3.8316 *  0.0000     2          
   188  Cl    c      6.7617 *     8.3394 *     2.9301 *  0.0000     2          
   189  Na    c      6.7617 *    -2.9301 *    -8.3394 *  0.0000     2          
   190  O     c      0.0000      -7.4378 *    -8.3394 *  0.0000     1          
   191  O     c      0.0000      10.5933 *    -3.8316 *  0.0000     1          
   192  O     c     -4.5078 *     6.0855 *    -8.3394 *  0.0000     2          
   193  Na    c      9.0156 *     6.0855 *     2.9301 *  0.0000     2          
   194  Na    c      9.0156 *    -2.9301 *    -6.0855 *  0.0000     2          
   195  Na    c      6.7617 *    -7.4378 *     5.1840 *  0.0000     2          
   196  Cl    c      6.7617 *    -5.1840 *     7.4378 *  0.0000     2          
   197  Na    c      4.5078 *     3.8316 *     9.6917 *  0.0000     2          
   198  Na    c      4.5078 *    -9.6917 *    -3.8316 *  0.0000     2          
   199  Cl    c     11.2695 *    -0.6762 *    -1.5777 *  0.0000     2          
   200  Na    c     11.2695 *     1.5777 *     0.6762 *  0.0000     2          
   201  Cl    c      2.2539 *     8.3394 *     7.4378 *  0.0000     2          
   202  Na    c      2.2539 *    -7.4378 *    -8.3394 *  0.0000     2          
   203  O     c      0.0000       6.0855 *     9.6917 *  0.0000     1          
   204  Na    c      4.5078 *    -7.4378 *     7.4378 *  0.0000     2          
   205  Cl    c      2.2539 *     3.8316 *   -10.5933 *  0.0000     2          
   206  Na    c      2.2539 *    10.5933 *    -3.8316 *  0.0000     2          
   207  O     c      4.5078 *    10.5933 *     0.6762 *  0.0000     2          
   208  O     c      9.0156 *     6.0855 *    -3.8316 *  0.0000     2          
   209  Na    c      4.5078 *    10.5933 *    -1.5777 *  0.0000     2          
   210  Na    c      4.5078 *     1.5777 *   -10.5933 *  0.0000     2          
   211  Na    c      9.0156 *    -5.1840 *     5.1840 *  0.0000     2          
   212  Cl    c      2.2539 *    -9.6917 *    -6.0855 *  0.0000     2          
   213  Cl    c     11.2695 *    -0.6762 *     2.9301 *  0.0000     2          
   214  Na    c     11.2695 *    -2.9301 *     0.6762 *  0.0000     2          
   215  Na    c      2.2539 *     6.0855 *     9.6917 *  0.0000     2          
   216  O     c      9.0156 *    -7.4378 *     0.6762 *  0.0000     2          
   217  O     c      0.0000      10.5933 *     5.1840 *  0.0000     1          
   218  Na    c      9.0156 *     1.5777 *     7.4378 *  0.0000     2          
   219  Na    c      9.0156 *    -7.4378 *    -1.5777 *  0.0000     2          
   220  Na    c      0.0000       8.3394 *    -8.3394 *  0.0000     1          
   221  Na    c      4.5078 *    10.5933 *     2.9301 *  0.0000     2          
   222  Na    c     -4.5078 *    -2.9301 *   -10.5933 *  0.0000     2          
   223  Na    c     -4.5078 *    -5.1840 *     9.6917 *  0.0000     2          
   224  Na    c     -4.5078 *    -9.6917 *     5.1840 *  0.0000     2          
   225  Cl    c      6.7617 *    -9.6917 *    -1.5777 *  0.0000     2          
   226  Na    c      6.7617 *     1.5777 *     9.6917 *  0.0000     2          
   227  O     c      0.0000     -11.9456 *     0.6762 *  0.0000     1          
   228  O     s      0.0000       1.5777 *     0.6762 *  0.0000     1          
   229  Cl    s      2.2539 *    -0.6762 *    -1.5777 *  0.0000     2          
   230  O     s      0.0000      -2.9301 *     0.6762 *  0.0000     1          
   231  Cl    s      2.2539 *    -0.6762 *     2.9301 *  0.0000     2          
   232  O     s      0.0000       1.5777 *    -3.8316 *  0.0000     1          
   233  Cl    s      2.2539 *     3.8316 *    -1.5777 *  0.0000     2          
   234  O     s     -4.5078 *     1.5777 *     0.6762 *  0.0000     2          
   235  O     s      0.0000      -2.9301 *    -3.8316 *  0.0000     1          
   236  Cl    s      2.2539 *     3.8316 *     2.9301 *  0.0000     2          
   237  O     s      0.0000       1.5777 *     5.1840 *  0.0000     1          
   238  O     s     -4.5078 *    -2.9301 *     0.6762 *  0.0000     2          
   239  Cl    s      2.2539 *    -5.1840 *    -1.5777 *  0.0000     2          
   240  O     s      0.0000      -2.9301 *     5.1840 *  0.0000     1          
   241  O     s      0.0000       6.0855 *     0.6762 *  0.0000     1          
   242  O     s     -4.5078 *     1.5777 *    -3.8316 *  0.0000     2          
   243  Cl    s      2.2539 *    -5.1840 *     2.9301 *  0.0000     2          
   244  Cl    s      2.2539 *    -0.6762 *    -6.0855 *  0.0000     2          
   245  O     s     -4.5078 *    -2.9301 *    -3.8316 *  0.0000     2          
   246  Cl    s      6.7617 *    -0.6762 *    -1.5777 *  0.0000     2          
   247  O     s     -4.5078 *     1.5777 *     5.1840 *  0.0000     2          
   248  O     s      0.0000       6.0855 *    -3.8316 *  0.0000     1          
   249  Cl    s      6.7617 *    -0.6762 *     2.9301 *  0.0000     2          
   250  O     s      0.0000      -7.4378 *     0.6762 *  0.0000     1          
   251  O     s     -4.5078 *    -2.9301 *     5.1840 *  0.0000     2          
   252  Cl    s      2.2539 *     3.8316 *    -6.0855 *  0.0000     2          
   253  O     s     -4.5078 *     6.0855 *     0.6762 *  0.0000     2          
   254  Cl    s      2.2539 *    -0.6762 *     7.4378 *  0.0000     2          
   255  Cl    s      6.7617 *     3.8316 *    -1.5777 *  0.0000     2          
   256  O     s      0.0000       6.0855 *     5.1840 *  0.0000     1          
   257  Cl    s      2.2539 *    -5.1840 *    -6.0855 *  0.0000     2          
   258  Cl    s      6.7617 *     3.8316 *     2.9301 *  0.0000     2          
   259  O     s      0.0000      -7.4378 *    -3.8316 *  0.0000     1          
   260  O     s      0.0000       1.5777 *    -8.3394 *  0.0000     1          
   261  O     s     -4.5078 *     6.0855 *    -3.8316 *  0.0000     2          
   262  Cl    s      2.2539 *     3.8316 *     7.4378 *  0.0000     2          
   263  Cl    s      6.7617 *    -5.1840 *    -1.5777 *  0.0000     2          
   264  O     s      4.5078 *    -7.4378 *     0.6762 *  0.0000     2          
   265  Cl    s      2.2539 *     8.3394 *    -1.5777 *  0.0000     2          
   266  O     s      0.0000      -2.9301 *    -8.3394 *  0.0000     1          
   267  Cl    s      6.7617 *    -5.1840 *     2.9301 *  0.0000     2          
   268  O     s      0.0000      -7.4378 *     5.1840 *  0.0000     1          
   269  Cl    s      2.2539 *     8.3394 *     2.9301 *  0.0000     2          
   270  Cl    s      6.7617 *    -0.6762 *    -6.0855 *  0.0000     2          
   271  O     s     -4.5078 *     6.0855 *     5.1840 *  0.0000     2          
   272  O     s      9.0156 *     1.5777 *     0.6762 *  0.0000     2          
   273  Cl    s      2.2539 *    -5.1840 *     7.4378 *  0.0000     2          
   274  O     s      4.5078 *    -7.4378 *    -3.8316 *  0.0000     2          
   275  O     s      9.0156 *    -2.9301 *     0.6762 *  0.0000     2          
   276  O     s      4.5078 *     1.5777 *    -8.3394 *  0.0000     2          
   277  O     s      0.0000       1.5777 *     9.6917 *  0.0000     1          
   278  Cl    s      6.7617 *     3.8316 *    -6.0855 *  0.0000     2          
   279  O     s      4.5078 *    -2.9301 *    -8.3394 *  0.0000     2          
   280  O     s      9.0156 *     1.5777 *    -3.8316 *  0.0000     2          
   281  Cl    s      2.2539 *    -9.6917 *    -1.5777 *  0.0000     2          
   282  Cl    s      6.7617 *    -0.6762 *     7.4378 *  0.0000     2          
   283  O     s      0.0000      -2.9301 *     9.6917 *  0.0000     1          
   284  O     s      4.5078 *    -7.4378 *     5.1840 *  0.0000     2          
   285  O     s      9.0156 *    -2.9301 *    -3.8316 *  0.0000     2          
   286  O     s      0.0000       6.0855 *    -8.3394 *  0.0000     1          
   287  Cl    s      2.2539 *    -9.6917 *     2.9301 *  0.0000     2          
   288  Cl    s      6.7617 *    -5.1840 *    -6.0855 *  0.0000     2          
   289  O     s      9.0156 *     1.5777 *     5.1840 *  0.0000     2          
   290  Cl    s      2.2539 *     8.3394 *    -6.0855 *  0.0000     2          
   291  O     s      0.0000      10.5933 *     0.6762 *  0.0000     1          
   292  Cl    s      6.7617 *     3.8316 *     7.4378 *  0.0000     2          
   293  O     s      4.5078 *     1.5777 *     9.6917 *  0.0000     2          
   294  O     s      9.0156 *    -2.9301 *     5.1840 *  0.0000     2          
   295  Cl    s      2.2539 *    -0.6762 *   -10.5933 *  0.0000     2          
   296  Cl    s      6.7617 *     8.3394 *    -1.5777 *  0.0000     2          
   297  O     s      9.0156 *     6.0855 *     0.6762 *  0.0000     2          
   298  O     s      4.5078 *    -2.9301 *     9.6917 *  0.0000     2          
   299  Cl    s      6.7617 *     8.3394 *     2.9301 *  0.0000     2          
   300  O     s      0.0000      -7.4378 *    -8.3394 *  0.0000     1          
   301  O     s      0.0000      10.5933 *    -3.8316 *  0.0000     1          
   302  O     s     -4.5078 *     6.0855 *    -8.3394 *  0.0000     2          
   303  Cl    s      6.7617 *    -5.1840 *     7.4378 *  0.0000     2          
   304  Cl    s     11.2695 *    -0.6762 *    -1.5777 *  0.0000     2          
   305  Cl    s      2.2539 *     8.3394 *     7.4378 *  0.0000     2          
   306  O     s      0.0000       6.0855 *     9.6917 *  0.0000     1          
   307  Cl    s      2.2539 *     3.8316 *   -10.5933 *  0.0000     2          
   308  O     s      4.5078 *    10.5933 *     0.6762 *  0.0000     2          
   309  O     s      9.0156 *     6.0855 *    -3.8316 *  0.0000     2          
   310  Cl    s      2.2539 *    -9.6917 *    -6.0855 *  0.0000     2          
   311  Cl    s     11.2695 *    -0.6762 *     2.9301 *  0.0000     2          
   312  O     s      9.0156 *    -7.4378 *     0.6762 *  0.0000     2          
   313  O     s      0.0000      10.5933 *     5.1840 *  0.0000     1          
   314  Cl    s      6.7617 *    -9.6917 *    -1.5777 *  0.0000     2          
   315  O     s      0.0000     -11.9456 *     0.6762 *  0.0000     1          
--------------------------------------------------------------------------------

  Components of defect energy : 

--------------------------------------------------------------------------------
  Region 1 - region 1                   =      0.22810281 eV
  Region 1 - region 2a (unrelaxed)      =      9.24990760 eV
  Region 1 - 2a (relaxed - correction)  =     -0.30120406 eV
  Region 1 (Total)                      =      9.17680635 eV
  Region 2a                             =      0.15051454 eV
  Region 2b                             =     -0.43129445 eV
--------------------------------------------------------------------------------
  Total defect energy                   =      8.89602644 eV
--------------------------------------------------------------------------------

  Largest displacement in region 2 =   0.0247 Angstroms


  Number of variables =      856

  Maximum number of calculations  =        1000
  Maximum Hessian update interval =          10
  Maximum step size               =   1.0000000
  Maximum parameter tolerance     =   0.0000100
  Maximum function  tolerance     =   0.0000100
  Maximum gradient  tolerance     =   0.0010000

  Symmetry adapted optimisation

  Symmetry to be used for second derivatives

  Newton-Raphson optimiser to be used

  BFGS hessian update to be used

  Lower half triangular hessian to be used

  Start of defect optimisation :

  Cycle:      0 Defect Energy:   8.896026  Gnorm:     0.020515  CPU:    0.970
  ** Hessian calculated **
  Cycle:      1 Defect Energy:   7.342247  Gnorm:     0.009854  CPU:    9.859
  Cycle:      2 Defect Energy:   6.860320  Gnorm:     0.008980  CPU:   14.585
  Cycle:      3 Defect Energy:   6.699457  Gnorm:     0.007449  CPU:   18.178
  Cycle:      4 Defect Energy:   6.454086  Gnorm:     0.007774  CPU:   23.533
  Cycle:      5 Defect Energy:   6.237080  Gnorm:     0.005907  CPU:   27.623
  Cycle:      6 Defect Energy:   5.995678  Gnorm:     0.007260  CPU:   31.692
  Cycle:      7 Defect Energy:   5.728491  Gnorm:     0.006885  CPU:   38.287
  Cycle:      8 Defect Energy:   5.534897  Gnorm:     0.004051  CPU:   43.111
  Cycle:      9 Defect Energy:   5.475110  Gnorm:     0.003345  CPU:   44.277
  Cycle:     10 Defect Energy:   5.402192  Gnorm:     0.003006  CPU:   45.479
  ** Hessian calculated **
  Cycle:     11 Defect Energy:   5.281433  Gnorm:     0.002608  CPU:   48.287
  Cycle:     12 Defect Energy:   5.131146  Gnorm:     0.002034  CPU:   49.348
  Cycle:     13 Defect Energy:   5.017161  Gnorm:     0.001473  CPU:   50.498
  Cycle:     14 Defect Energy:   4.996077  Gnorm:     0.001333  CPU:   51.521
  ** Hessian calculated **
  Cycle:     15 Defect Energy:   4.938822  Gnorm:     0.000996  CPU:   54.146
  Cycle:     16 Defect Energy:   4.907585  Gnorm:     0.000597  CPU:   55.237
  Cycle:     17 Defect Energy:   4.889464  Gnorm:     0.000461  CPU:   56.236
  Cycle:     18 Defect Energy:   4.867676  Gnorm:     0.000408  CPU:   57.247
  Cycle:     19 Defect Energy:   4.917628  Gnorm:     0.001457  CPU:   58.240
  Cycle:     20 Defect Energy:   4.871263  Gnorm:     0.000965  CPU:   59.266
  Cycle:     21 Defect Energy:   4.858168  Gnorm:     0.000814  CPU:   60.319
  Cycle:     22 Defect Energy:   4.842364  Gnorm:     0.000543  CPU:   61.281
  Cycle:     23 Defect Energy:   4.835303  Gnorm:     0.000456  CPU:   62.227
  Cycle:     24 Defect Energy:   4.830730  Gnorm:     0.000381  CPU:   63.168
  ** Hessian calculated **
  Cycle:     25 Defect Energy:   4.825412  Gnorm:     0.000345  CPU:   65.626
  Cycle:     26 Defect Energy:   4.820121  Gnorm:     0.000286  CPU:   66.547
  Cycle:     27 Defect Energy:   4.812943  Gnorm:     0.000188  CPU:   67.471
  Cycle:     28 Defect Energy:   4.810972  Gnorm:     0.000107  CPU:   68.382
  Cycle:     29 Defect Energy:   4.810394  Gnorm:     0.000068  CPU:   69.430
  Cycle:     30 Defect Energy:   4.810244  Gnorm:     0.000045  CPU:   70.013
  Cycle:     31 Defect Energy:   4.810117  Gnorm:     0.000030  CPU:   73.115
  Cycle:     32 Defect Energy:   4.810085  Gnorm:     0.000018  CPU:   75.439
  Cycle:     33 Defect Energy:   4.810066  Gnorm:     0.000013  CPU:   76.565


  **** Optimisation achieved ****


  Final defect energy  =        4.81005851
  Final defect Gnorm   =        0.00000843

  Components of defect energy : 

--------------------------------------------------------------------------------
  Region 1 - region 1                   =     -3.05637959 eV
  Region 1 - region 2a (unrelaxed)      =      8.41411774 eV
  Region 1 - 2a (relaxed - correction)  =     -0.23561757 eV
  Region 1 (Total)                      =      5.12212058 eV
  Region 2a                             =      0.11779119 eV
  Region 2b                             =     -0.42985327 eV
--------------------------------------------------------------------------------
  Total defect energy                   =      4.81005851 eV
--------------------------------------------------------------------------------

  Largest displacement in region 2 =   0.0247 Angstroms

  Final coordinates of region 1 :

--------------------------------------------------------------------------------
   No.  Atomic        x           y           z          Radius      Charge
        Label       (Angs)      (Angs)      (Angs)       (Angs)       (e) 
--------------------------------------------------------------------------------
     1  Na    c     2.253894    0.676168    1.577726    0.000000    1.000000
     2  O     c     2.253894    2.622958    2.414057    0.000000    0.183000
     3  Cl    c     4.587660   -0.052999   -0.004269    0.000000    1.485000
     4  Cl    c    -0.079873   -0.052999   -0.004269    0.000000    1.485000
     5  Na    c     4.491447    2.698405    2.215676    0.000000    1.000000
     6  Na    c     0.016340    2.698405    2.215676    0.000000    1.000000
     7  O     c     2.253894   -2.152666    2.253287    0.000000    0.183000
     8  Na    c     2.253894    2.503105    4.587336    0.000000    1.000000
     9  Na    c     2.253894   -2.402127    0.021026    0.000000    1.000000
    10  Na    c     4.477147   -2.169096    2.295354    0.000000    1.000000
    11  Na    c     0.030640   -2.169096    2.295354    0.000000    1.000000
    12  Cl    c     4.653724    0.004457    4.613293    0.000000    1.485000
    13  Cl    c    -0.145937    0.004457    4.613293    0.000000    1.485000
    14  Na    c     2.253894    4.618261    1.541879    0.000000    1.000000
    15  Na    c     2.253894    0.078911   -1.952740    0.000000    1.000000
    16  Na    c     2.253894   -1.583474    4.422055    0.000000    1.000000
    17  O     c     2.253894    2.279330   -2.292566    0.000000    0.183000
    18  Na    c    -1.958005    0.064816    2.253693    0.000000    1.000000
    19  Na    c     6.465792    0.064816    2.253693    0.000000    1.000000
    20  Cl    c     4.660100    4.688390   -0.005133    0.000000    1.485000
    21  Cl    c    -0.152313    4.688390   -0.005133    0.000000    1.485000
    22  Na    c     4.421603    2.306654   -1.776474    0.000000    1.000000
    23  Na    c     0.086184    2.306654   -1.776474    0.000000    1.000000
    24  O     c    -2.251745    2.305078    2.260790    0.000000    0.183000
    25  O     c     6.759533    2.305078    2.260790    0.000000    0.183000
    26  O     c     2.253894   -2.208783   -2.256825    0.000000    0.183000
    27  Na    c    -2.505979    2.153122    0.021579    0.000000    1.000000
    28  Na    c     7.013766    2.153122    0.021579    0.000000    1.000000
    29  Na    c     2.253894    0.034662    6.958554    0.000000    1.000000
    30  Na    c     2.253894   -4.405403    2.628599    0.000000    1.000000
    31  Cl    c     4.640718    4.571823    4.656033    0.000000    1.485000
    32  Cl    c    -0.132930    4.571823    4.656033    0.000000    1.485000
    33  Na    c     4.502853   -2.300416   -2.300644    0.000000    1.000000
    34  Na    c     0.004934   -2.300416   -2.300644    0.000000    1.000000
    35  O     c     2.253894    2.294361    6.839439    0.000000    0.183000
    36  O     c    -2.245790   -2.194398    2.261470    0.000000    0.183000
    37  O     c     6.753577   -2.194398    2.261470    0.000000    0.183000
    38  Na    c     2.253894    4.472704   -1.936735    0.000000    1.000000
    39  Na    c    -2.106597    2.375617    4.522036    0.000000    1.000000
    40  Na    c     6.614385    2.375617    4.522036    0.000000    1.000000
    41  Na    c    -2.117430   -2.334860    0.006921    0.000000    1.000000
    42  Na    c     6.625217   -2.334860    0.006921    0.000000    1.000000
    43  Na    c     4.509866    2.323937    6.819690    0.000000    1.000000
    44  Na    c    -0.002079    2.323937    6.819690    0.000000    1.000000
    45  Cl    c     4.534500   -4.507192   -0.024915    0.000000    1.485000
    46  Cl    c    -0.026713   -4.507192   -0.024915    0.000000    1.485000
    47  O     c     2.253894   -2.208371    6.666054    0.000000    0.183000
    48  Na    c    -2.518608    4.542991    2.070454    0.000000    1.000000
    49  Na    c     7.026396    4.542991    2.070454    0.000000    1.000000
    50  Na    c    -2.079703    0.011923   -2.251163    0.000000    1.000000
    51  Na    c     6.587490    0.011923   -2.251163    0.000000    1.000000
    52  Na    c    -2.401749   -2.071677    4.505473    0.000000    1.000000
    53  Na    c     6.909536   -2.071677    4.505473    0.000000    1.000000
    54  O     c     2.253894    6.793866    2.222215    0.000000    0.183000
    55  O     c    -2.202153    2.263421   -2.211374    0.000000    0.183000
    56  O     c     6.709941    2.263421   -2.211374    0.000000    0.183000
    57  Na    c     2.253894    2.239520   -4.492460    0.000000    1.000000
    58  Na    c     2.253894    7.273588   -0.007643    0.000000    1.000000
    59  Na    c     4.509943   -2.304913    6.570186    0.000000    1.000000
    60  Na    c    -0.002155   -2.304913    6.570186    0.000000    1.000000
    61  Cl    c     4.562881   -4.551868    4.513088    0.000000    1.485000
    62  Cl    c    -0.055094   -4.551868    4.513088    0.000000    1.485000
    63  Na    c     2.253894    4.535794    7.089564    0.000000    1.000000
    64  Na    c     2.253894   -4.460869   -2.567526    0.000000    1.000000
    65  Cl    c     4.600290   -0.091396   -4.590892    0.000000    1.485000
    66  Cl    c    -0.092502   -0.091396   -4.590892    0.000000    1.485000
    67  Na    c     4.519471    6.686151    2.257583    0.000000    1.000000
    68  Na    c    -0.011683    6.686151    2.257583    0.000000    1.000000
    69  O     c    -2.256763   -2.244670   -2.251831    0.000000    0.183000
    70  O     c     6.764550   -2.244670   -2.251831    0.000000    0.183000
    71  Na    c     2.253894   -1.858246   -4.493378    0.000000    1.000000
    72  Na    c     2.253894    6.267644    4.453170    0.000000    1.000000
    73  Na    c    -2.110404    0.011094    6.772364    0.000000    1.000000
    74  Na    c     6.618191    0.011094    6.772364    0.000000    1.000000
    75  Na    c    -2.356001   -4.455909    2.433682    0.000000    1.000000
    76  Na    c     6.863789   -4.455909    2.433682    0.000000    1.000000
    77  Cl    c     9.049678    0.038155   -0.007622    0.000000    1.485000
    78  Cl    c    -4.541890    0.038155   -0.007622    0.000000    1.485000
    79  Na    c     9.009851    2.042361    2.486250    0.000000    1.000000
    80  Na    c    -4.502064    2.042361    2.486250    0.000000    1.000000
    81  O     c    -2.261167    2.262767    6.782866    0.000000    0.183000
    82  O     c     6.768954    2.262767    6.782866    0.000000    0.183000
    83  Na    c    -2.295978    4.516293   -2.097963    0.000000    1.000000
    84  Na    c     6.803765    4.516293   -2.097963    0.000000    1.000000
    85  O     c     2.253894    6.757739   -2.225461    0.000000    0.183000
    86  Na    c     2.253894   -4.463969    6.365272    0.000000    1.000000
    87  Cl    c     9.065109   -0.019373    4.539759    0.000000    1.485000
    88  Cl    c    -4.557322   -0.019373    4.539759    0.000000    1.485000
    89  Na    c     9.003294   -2.006955    2.083187    0.000000    1.000000
    90  Na    c    -4.495507   -2.006955    2.083187    0.000000    1.000000
    91  O     c     2.253894   -6.686602    2.256553    0.000000    0.183000
    92  O     c    -2.261919   -2.248227    6.758399    0.000000    0.183000
    93  O     c     6.769707   -2.248227    6.758399    0.000000    0.183000
    94  Cl    c     4.555731    4.627764   -4.626341    0.000000    1.485000
    95  Cl    c    -0.047944    4.627764   -4.626341    0.000000    1.485000
    96  Na    c     4.507587    6.673408   -2.247259    0.000000    1.000000
    97  Na    c     0.000200    6.673408   -2.247259    0.000000    1.000000
    98  O     c    -2.275427    6.786627    2.268648    0.000000    0.183000
    99  O     c     6.783214    6.786627    2.268648    0.000000    0.183000
   100  Na    c     2.253894    2.208898    9.070488    0.000000    1.000000
   101  Na    c     2.253894   -6.379265    0.006154    0.000000    1.000000
   102  Na    c    -1.903567    2.334909   -4.460011    0.000000    1.000000
   103  Na    c     6.411354    2.334909   -4.460011    0.000000    1.000000
   104  Na    c    -2.200234    6.944757    0.005243    0.000000    1.000000
   105  Na    c     6.708021    6.944757    0.005243    0.000000    1.000000
   106  Cl    c     4.497151    0.042202    9.044083    0.000000    1.485000
   107  Cl    c     0.010636    0.042202    9.044083    0.000000    1.485000
   108  Na    c     4.505944   -6.601357    2.222318    0.000000    1.000000
   109  Na    c     0.001843   -6.601357    2.222318    0.000000    1.000000
   110  Na    c     6.805234    4.513226    6.904922    0.000000    1.000000
   111  Na    c    -2.297447    4.513226    6.904922    0.000000    1.000000
   112  Na    c    -2.354909   -4.491231   -2.399999    0.000000    1.000000
   113  Na    c     6.862696   -4.491231   -2.399999    0.000000    1.000000
   114  Cl    c     9.050334    4.533757   -0.021904    0.000000    1.485000
   115  Cl    c    -4.542546    4.533757   -0.021904    0.000000    1.485000
   116  Na    c     8.970806    2.188523   -2.503936    0.000000    1.000000
   117  Na    c    -4.463018    2.188523   -2.503936    0.000000    1.000000
   118  O     c     2.253894    6.752738    6.717115    0.000000    0.183000
   119  Na    c     2.253894   -2.419363    8.950700    0.000000    1.000000
   120  Na    c     2.253894   -7.042829    4.489471    0.000000    1.000000
   121  Na    c    -2.295329    6.526606    4.513284    0.000000    1.000000
   122  Na    c     6.803117    6.526606    4.513284    0.000000    1.000000
   123  Na    c    -2.340043   -2.161164   -4.501945    0.000000    1.000000
   124  Na    c     6.847830   -2.161164   -4.501945    0.000000    1.000000
   125  Na    c     4.514242    6.741203    6.668621    0.000000    1.000000
   126  Na    c    -0.006455    6.741203    6.668621    0.000000    1.000000
   127  Cl    c     4.531670   -4.541270   -4.493782    0.000000    1.485000
   128  Cl    c    -0.023883   -4.541270   -4.493782    0.000000    1.485000
   129  Cl    c     9.056326    4.507058    4.499836    0.000000    1.485000
   130  Cl    c    -4.548539    4.507058    4.499836    0.000000    1.485000
   131  Na    c     9.011147   -2.124661   -2.110063    0.000000    1.000000
   132  Na    c    -4.503360   -2.124661   -2.110063    0.000000    1.000000
   133  O     c     2.253894   -6.717977   -2.242368    0.000000    0.183000
   134  Na    c     2.253894    0.001963   -6.948769    0.000000    1.000000
   135  Na    c     2.253894    9.011663    2.615848    0.000000    1.000000
   136  O     c     2.253894    2.247234   -6.787154    0.000000    0.183000
   137  O     c    -2.257705    6.777722   -2.254708    0.000000    0.183000
   138  O     c     6.765493    6.777722   -2.254708    0.000000    0.183000
   139  Na    c    -2.359917   -4.497430    6.608282    0.000000    1.000000
   140  Na    c     6.867704   -4.497430    6.608282    0.000000    1.000000
   141  Na    c     2.253894    6.513930   -4.487803    0.000000    1.000000
   142  Cl    c     4.500187    4.509446    9.044583    0.000000    1.485000
   143  Cl    c     0.007600    4.509446    9.044583    0.000000    1.485000
   144  Na    c     4.510301   -6.660562   -2.210611    0.000000    1.000000
   145  Na    c    -0.002514   -6.660562   -2.210611    0.000000    1.000000
   146  Na    c     9.015173    2.156004    6.630561    0.000000    1.000000
   147  Na    c    -4.507385    2.156004    6.630561    0.000000    1.000000
   148  Cl    c     9.038089   -4.506921    0.002457    0.000000    1.485000
   149  Cl    c    -4.530302   -4.506921    0.002457    0.000000    1.485000
   150  O     c     6.758354   -6.733348    2.250811    0.000000    0.183000
   151  O     c    -2.250567   -6.733348    2.250811    0.000000    0.183000
   152  Cl    c     4.551822    9.076047   -0.002977    0.000000    1.485000
   153  Cl    c    -0.044035    9.076047   -0.002977    0.000000    1.485000
   154  Na    c     4.493472    2.241670   -6.864867    0.000000    1.000000
   155  Na    c     0.014315    2.241670   -6.864867    0.000000    1.000000
   156  O     c     2.253894   -2.240631   -6.733091    0.000000    0.183000
   157  Na    c     6.835894    2.189768    9.024956    0.000000    1.000000
   158  Na    c    -2.328106    2.189768    9.024956    0.000000    1.000000
   159  Na    c     6.800945   -6.536177    0.003808    0.000000    1.000000
   160  Na    c    -2.293158   -6.536177    0.003808    0.000000    1.000000
   161  Na    c     9.010611   -2.129661    6.908806    0.000000    1.000000
   162  Na    c    -4.502824   -2.129661    6.908806    0.000000    1.000000
   163  Cl    c     9.041629   -4.538361    4.521679    0.000000    1.485000
   164  Cl    c    -4.533842   -4.538361    4.521679    0.000000    1.485000
   165  O     c     2.253894   -6.724179    6.731668    0.000000    0.183000
   166  Na    c    11.450519    0.006430    2.282254    0.000000    1.000000
   167  Na    c    -6.942731    0.006430    2.282254    0.000000    1.000000
   168  Cl    c     4.531953    9.120162    4.531521    0.000000    1.485000
   169  Cl    c    -0.024166    9.120162    4.531521    0.000000    1.485000
   170  Cl    c     9.065870   -0.021860   -4.516458    0.000000    1.485000
   171  Cl    c    -4.558082   -0.021860   -4.516458    0.000000    1.485000
   172  Na    c     4.515783   -2.269877   -6.665619    0.000000    1.000000
   173  Na    c    -0.007996   -2.269877   -6.665619    0.000000    1.000000
   174  Na    c     9.022547    6.956662    2.245342    0.000000    1.000000
   175  Na    c    -4.514760    6.956662    2.245342    0.000000    1.000000
   176  O     c    -2.268626    6.770101    6.764602    0.000000    0.183000
   177  O     c     6.776413    6.770101    6.764602    0.000000    0.183000
   178  Na    c    -2.157661   -2.334952    9.006733    0.000000    1.000000
   179  Na    c     6.665448   -2.334952    9.006733    0.000000    1.000000
   180  Na    c     2.253894    4.500106   -6.778109    0.000000    1.000000
   181  Na    c     2.253894    9.003110   -2.542445    0.000000    1.000000
   182  O     c    11.257624    2.253514    2.252209    0.000000    0.183000
   183  O     c    -6.749837    2.253514    2.252209    0.000000    0.183000
   184  Na    c     6.688692   -6.885296    4.500767    0.000000    1.000000
   185  Na    c    -2.180905   -6.885296    4.500767    0.000000    1.000000
   186  Na    c    11.068047    2.235566   -0.013850    0.000000    1.000000
   187  Na    c    -6.560260    2.235566   -0.013850    0.000000    1.000000
   188  Cl    c     4.511305   -4.507146    9.078834    0.000000    1.485000
   189  Cl    c    -0.003517   -4.507146    9.078834    0.000000    1.485000
   190  Na    c     4.505832   -6.657073    6.770308    0.000000    1.000000
   191  Na    c     0.001955   -6.657073    6.770308    0.000000    1.000000
   192  O     c     6.766456   -6.749165   -2.246533    0.000000    0.183000
   193  O     c    -2.258669   -6.749165   -2.246533    0.000000    0.183000
   194  Na    c    -2.227565    0.008138   -6.703950    0.000000    1.000000
   195  Na    c     6.735352    0.008138   -6.703950    0.000000    1.000000
   196  Na    c    -2.173040    9.026990    2.451552    0.000000    1.000000
   197  Na    c     6.680827    9.026990    2.451552    0.000000    1.000000
   198  O     c    11.261035   -2.243671    2.255852    0.000000    0.183000
   199  O     c    -6.753248   -2.243671    2.255852    0.000000    0.183000
   200  O     c     6.735067    2.261530   -6.731609    0.000000    0.183000
   201  O     c    -2.227280    2.261530   -6.731609    0.000000    0.183000
   202  Na    c     2.253894    6.974522    8.986656    0.000000    1.000000
   203  Na    c     2.253894   -6.961067   -4.489392    0.000000    1.000000
   204  Na    c    11.394505    2.393276    4.496397    0.000000    1.000000
   205  Na    c    -6.886718    2.393276    4.496397    0.000000    1.000000
   206  Na    c    11.380256   -2.314646    0.011310    0.000000    1.000000
   207  Na    c    -6.872468   -2.314646    0.011310    0.000000    1.000000
   208  Na    c     2.253894   -0.010922   11.241991    0.000000    1.000000
   209  Na    c     2.253894   -8.970485    2.059888    0.000000    1.000000
   210  Na    c     6.769599    6.647196   -4.509631    0.000000    1.000000
   211  Na    c    -2.261812    6.647196   -4.509631    0.000000    1.000000
   212  O     c     2.253894    2.252533   11.288663    0.000000    0.183000
   213  Na    c     2.253894    9.007359    6.519612    0.000000    1.000000
   214  Na    c     2.253894   -4.498169   -6.562730    0.000000    1.000000
   215  Na    c    11.300851    0.004105   -2.220778    0.000000    1.000000
   216  Na    c    -6.793064    0.004105   -2.220778    0.000000    1.000000
   217  Na    c    11.108800    4.511629    2.168962    0.000000    1.000000
   218  Na    c    -6.601013    4.511629    2.168962    0.000000    1.000000
   219  Cl    c     9.052853    4.517531   -4.508828    0.000000    1.485000
   220  Cl    c    -4.545066    4.517531   -4.508828    0.000000    1.485000
   221  Na    c     9.014024    6.802571   -2.245015    0.000000    1.000000
   222  Na    c    -4.506237    6.802571   -2.245015    0.000000    1.000000
   223  O     c     6.776960   -2.254804   -6.754564    0.000000    0.183000
   224  O     c    -2.269173   -2.254804   -6.754564    0.000000    0.183000
   225  O     c    11.246774    2.249226   -2.274698    0.000000    0.183000
   226  O     c    -6.738987    2.249226   -2.274698    0.000000    0.183000
   227  Na    c    11.113197   -2.288762    4.510158    0.000000    1.000000
   228  Na    c    -6.605410   -2.288762    4.510158    0.000000    1.000000
   229  Cl    c     4.504600   -9.106575   -0.000176    0.000000    1.485000
   230  Cl    c     0.003187   -9.106575   -0.000176    0.000000    1.485000
   231  Na    c     4.515045    2.253875   11.273439    0.000000    1.000000
   232  Na    c    -0.007258    2.253875   11.273439    0.000000    1.000000
   233  Cl    c     9.026924    0.006710    9.052726    0.000000    1.485000
   234  Cl    c    -4.519137    0.006710    9.052726    0.000000    1.485000
   235  Na    c     9.002876   -6.846442    2.276014    0.000000    1.000000
   236  Na    c    -4.495088   -6.846442    2.276014    0.000000    1.000000
   237  O     c     2.253894   -2.263775   11.250370    0.000000    0.183000
   238  O     c     6.762121   -6.753400    6.755136    0.000000    0.183000
   239  O     c    -2.254334   -6.753400    6.755136    0.000000    0.183000
   240  Na    c    -2.179674    9.018031   -2.387783    0.000000    1.000000
   241  Na    c     6.687461    9.018031   -2.387783    0.000000    1.000000
   242  O     c    11.268237   -2.246686   -2.234746    0.000000    0.183000
   243  O     c    -6.760450   -2.246686   -2.234746    0.000000    0.183000
   244  Na    c     6.744224    4.508779   -6.772100    0.000000    1.000000
   245  Na    c    -2.236436    4.508779   -6.772100    0.000000    1.000000
   246  O     c     2.253894    6.751639   -6.751721    0.000000    0.183000
   247  Cl    c     4.522994   -9.017254    4.528452    0.000000    1.485000
   248  Cl    c    -0.015207   -9.017254    4.528452    0.000000    1.485000
   249  Na    c     4.499626   -2.236714   11.254495    0.000000    1.000000
   250  Na    c     0.008161   -2.236714   11.254495    0.000000    1.000000
   251  Na    c     2.253894    4.516938   11.225509    0.000000    1.000000
   252  Na    c     2.253894   -8.986920   -2.083878    0.000000    1.000000
   253  Na    c    11.339223    0.003964    6.655774    0.000000    1.000000
   254  Na    c    -6.831436    0.003964    6.655774    0.000000    1.000000
   255  Na    c    11.112280   -4.503671    2.279951    0.000000    1.000000
   256  Na    c    -6.604493   -4.503671    2.279951    0.000000    1.000000
   257  Cl    c     9.030622   -4.539942   -4.517460    0.000000    1.485000
   258  Cl    c    -4.522835   -4.539942   -4.517460    0.000000    1.485000
   259  Na    c     9.019544    6.820632    6.762546    0.000000    1.000000
   260  Na    c    -4.511757    6.820632    6.762546    0.000000    1.000000
   261  O     c    11.273864    2.254278    6.744191    0.000000    0.183000
   262  O     c    -6.766077    2.254278    6.744191    0.000000    0.183000
   263  Na    c     2.253894   -6.602777    8.996989    0.000000    1.000000
   264  Na    c    11.216418    4.504759   -2.240665    0.000000    1.000000
   265  Na    c    -6.708631    4.504759   -2.240665    0.000000    1.000000
   266  Cl    c     4.502365    9.073630   -4.509000    0.000000    1.485000
   267  Cl    c     0.005422    9.073630   -4.509000    0.000000    1.485000
   268  Na    c     4.509413    6.761781   -6.716860    0.000000    1.000000
   269  Na    c    -0.001626    6.761781   -6.716860    0.000000    1.000000
   270  O     c     2.253894   11.263968    2.268554    0.000000    0.183000
   271  Na    c     6.718346   -6.840525   -4.503285    0.000000    1.000000
   272  Na    c    -2.210558   -6.840525   -4.503285    0.000000    1.000000
   273  Na    c    -2.224450    6.870839    9.011886    0.000000    1.000000
   274  Na    c     6.732237    6.870839    9.011886    0.000000    1.000000
   275  Na    c     2.253894    2.315308   -9.039384    0.000000    1.000000
   276  Na    c     2.253894   11.120977    0.003477    0.000000    1.000000
   277  Na    c    -2.264757   -0.006556   11.254928    0.000000    1.000000
[...]
    235 y         -2.253894     -2.208825     0.045069    Cartesian   -2.00
    235 z         -2.253894     -2.256871    -0.002978    Cartesian    0.13
    236 x          4.507787      4.649128     0.141340    Cartesian    3.14
    236 y          4.507787      4.580452     0.072665    Cartesian    1.61
    236 z          4.507787      4.664099     0.156312    Cartesian    3.47
    237 x          2.253894      2.253894     0.000000    Cartesian    0.00
    237 y          2.253894      2.294398     0.040504    Cartesian    1.80
    237 z          6.761681      6.839535     0.077854    Cartesian    1.15
    238 x         -2.253894     -2.245780     0.008113    Cartesian   -0.36
    238 y         -2.253894     -2.194374     0.059520    Cartesian   -2.64
    238 z          2.253894      2.261485     0.007591    Cartesian    0.34
    239 x          4.507787      4.534183     0.026396    Cartesian    0.59
    239 y         -4.507787     -4.515552    -0.007765    Cartesian    0.17
    239 z          0.000000     -0.027498    -0.027498    Cartesian *******
    240 x          2.253894      2.253894     0.000000    Cartesian    0.00
    240 y         -2.253894     -2.208337     0.045557    Cartesian   -2.02
    240 z          6.761681      6.666070    -0.095611    Cartesian   -1.41
    241 x          2.253894      2.253894     0.000000    Cartesian    0.00
    241 y          6.761681      6.793870     0.032189    Cartesian    0.48
    241 z          2.253894      2.222173    -0.031720    Cartesian   -1.41
    242 x         -2.253894     -2.202208     0.051686    Cartesian   -2.29
    242 y          2.253894      2.263404     0.009510    Cartesian    0.42
    242 z         -2.253894     -2.211334     0.042560    Cartesian   -1.89
    243 x          4.507787      4.557129     0.049342    Cartesian    1.09
    243 y         -4.507787     -4.557054    -0.049267    Cartesian    1.09
    243 z          4.507787      4.517031     0.009244    Cartesian    0.21
    244 x          4.507787      4.610814     0.103026    Cartesian    2.29
    244 y          0.000000     -0.105667    -0.105667    Cartesian    0.00
    244 z         -4.507787     -4.599768    -0.091980    Cartesian    2.04
    245 x         -2.253894     -2.256751    -0.002858    Cartesian    0.13
    245 y         -2.253894     -2.244671     0.009222    Cartesian   -0.41
    245 z         -2.253894     -2.251856     0.002037    Cartesian   -0.09
    246 x          9.015574      9.051252     0.035678    Cartesian    0.40
    246 y          0.000000      0.041185     0.041185    Cartesian    0.00
    246 z          0.000000     -0.005488    -0.005488    Cartesian *******
    247 x         -2.253894     -2.261140    -0.007247    Cartesian    0.32
    247 y          2.253894      2.262768     0.008874    Cartesian    0.39
    247 z          6.761681      6.782898     0.021217    Cartesian    0.31
    248 x          2.253894      2.253894     0.000000    Cartesian    0.00
    248 y          6.761681      6.757793    -0.003888    Cartesian   -0.06
    248 z         -2.253894     -2.225489     0.028405    Cartesian   -1.26
    249 x          9.015574      9.066771     0.051197    Cartesian    0.57
    249 y          0.000000     -0.020100    -0.020100    Cartesian    0.00
    249 z          4.507787      4.538890     0.031103    Cartesian    0.69
    250 x          2.253894      2.253894     0.000000    Cartesian    0.00
    250 y         -6.761681     -6.686607     0.075074    Cartesian   -1.11
    250 z          2.253894      2.256575     0.002682    Cartesian    0.12
    251 x         -2.253894     -2.261941    -0.008047    Cartesian    0.36
    251 y         -2.253894     -2.248211     0.005683    Cartesian   -0.25
    251 z          6.761681      6.758387    -0.003294    Cartesian   -0.05
    252 x          4.507787      4.564411     0.056624    Cartesian    1.26
    252 y          4.507787      4.641621     0.133834    Cartesian    2.97
    252 z         -4.507787     -4.640020    -0.132233    Cartesian    2.93
    253 x         -2.253894     -2.275465    -0.021572    Cartesian    0.96
    253 y          6.761681      6.786644     0.024963    Cartesian    0.37
    253 z          2.253894      2.268653     0.014760    Cartesian    0.65
    254 x          4.507787      4.495386    -0.012401    Cartesian   -0.28
    254 y          0.000000      0.048799     0.048799    Cartesian    0.00
    254 z          9.015574      9.044442     0.028867    Cartesian    0.32
    255 x          9.015574      9.049542     0.033967    Cartesian    0.38
    255 y          4.507787      4.531816     0.024029    Cartesian    0.53
    255 z          0.000000     -0.015757    -0.015757    Cartesian *******
    256 x          2.253894      2.253894     0.000000    Cartesian    0.00
    256 y          6.761681      6.752686    -0.008995    Cartesian   -0.13
    256 z          6.761681      6.717177    -0.044504    Cartesian   -0.66
    257 x          4.507787      4.528242     0.020455    Cartesian    0.45
    257 y         -4.507787     -4.544114    -0.036327    Cartesian    0.81
    257 z         -4.507787     -4.490041     0.017746    Cartesian   -0.39
    258 x          9.015574      9.058045     0.042471    Cartesian    0.47
    258 y          4.507787      4.509200     0.001413    Cartesian    0.03
    258 z          4.507787      4.497674    -0.010113    Cartesian   -0.22
    259 x          2.253894      2.253894     0.000000    Cartesian    0.00
    259 y         -6.761681     -6.717954     0.043727    Cartesian   -0.65
    259 z         -2.253894     -2.242402     0.011491    Cartesian   -0.51
    260 x          2.253894      2.253894     0.000000    Cartesian    0.00
    260 y          2.253894      2.247241    -0.006652    Cartesian   -0.30
    260 z         -6.761681     -6.787259    -0.025579    Cartesian    0.38
    261 x         -2.253894     -2.257704    -0.003810    Cartesian    0.17
    261 y          6.761681      6.777742     0.016061    Cartesian    0.24
    261 z         -2.253894     -2.254713    -0.000820    Cartesian    0.04
    262 x          4.507787      4.495093    -0.012694    Cartesian   -0.28
    262 y          4.507787      4.506857    -0.000930    Cartesian   -0.02
    262 z          9.015574      9.041743     0.026168    Cartesian    0.29
    263 x          9.015574      9.040001     0.024427    Cartesian    0.27
    263 y         -4.507787     -4.511459    -0.003672    Cartesian    0.08
    263 z          0.000000      0.002545     0.002545    Cartesian *******
    264 x          6.761681      6.758365    -0.003316    Cartesian   -0.05
    264 y         -6.761681     -6.733359     0.028322    Cartesian   -0.42
    264 z          2.253894      2.250824    -0.003070    Cartesian   -0.14
    265 x          4.507787      4.550423     0.042635    Cartesian    0.95
    265 y          9.015574      9.076646     0.061071    Cartesian    0.68
    265 z          0.000000     -0.003450    -0.003450    Cartesian *******
    266 x          2.253894      2.253894     0.000000    Cartesian    0.00
    266 y         -2.253894     -2.240587     0.013307    Cartesian   -0.59
    266 z         -6.761681     -6.733094     0.028587    Cartesian   -0.42
    267 x          9.015574      9.043346     0.027772    Cartesian    0.31
    267 y         -4.507787     -4.540167    -0.032380    Cartesian    0.72
    267 z          4.507787      4.521534     0.013747    Cartesian    0.30
    268 x          2.253894      2.253894     0.000000    Cartesian    0.00
    268 y         -6.761681     -6.724213     0.037468    Cartesian   -0.55
    268 z          6.761681      6.731647    -0.030034    Cartesian   -0.44
    269 x          4.507787      4.532343     0.024556    Cartesian    0.54
    269 y          9.015574      9.129795     0.114221    Cartesian    1.27
    269 z          4.507787      4.531343     0.023556    Cartesian    0.52
    270 x          9.015574      9.070707     0.055132    Cartesian    0.61
    270 y          0.000000     -0.022595    -0.022595    Cartesian    0.00
    270 z         -4.507787     -4.516353    -0.008565    Cartesian    0.19
    271 x         -2.253894     -2.268650    -0.014756    Cartesian    0.65
    271 y          6.761681      6.770097     0.008416    Cartesian    0.12
    271 z          6.761681      6.764608     0.002927    Cartesian    0.04
    272 x         11.269468     11.257643    -0.011825    Cartesian   -0.10
    272 y          2.253894      2.253507    -0.000387    Cartesian   -0.02
    272 z          2.253894      2.252246    -0.001648    Cartesian   -0.07
    273 x          4.507787      4.511359     0.003572    Cartesian    0.08
    273 y         -4.507787     -4.507683     0.000105    Cartesian   -0.00
    273 z          9.015574      9.087827     0.072253    Cartesian    0.80
    274 x          6.761681      6.766472     0.004791    Cartesian    0.07
    274 y         -6.761681     -6.749152     0.012529    Cartesian   -0.19
    274 z         -2.253894     -2.246544     0.007350    Cartesian   -0.33
    275 x         11.269468     11.261065    -0.008403    Cartesian   -0.07
    275 y         -2.253894     -2.243664     0.010230    Cartesian   -0.45
    275 z          2.253894      2.255833     0.001940    Cartesian    0.09
    276 x          6.761681      6.735013    -0.026668    Cartesian   -0.39
    276 y          2.253894      2.261539     0.007645    Cartesian    0.34
    276 z         -6.761681     -6.731652     0.030029    Cartesian   -0.44
    277 x          2.253894      2.253894     0.000000    Cartesian    0.00
    277 y          2.253894      2.252523    -0.001371    Cartesian   -0.06
    277 z         11.269468     11.288616     0.019148    Cartesian    0.17
    278 x          9.015574      9.057392     0.041818    Cartesian    0.46
    278 y          4.507787      4.517193     0.009406    Cartesian    0.21
    278 z         -4.507787     -4.509378    -0.001591    Cartesian    0.04
    279 x          6.761681      6.776984     0.015303    Cartesian    0.23
    279 y         -2.253894     -2.254801    -0.000907    Cartesian    0.04
    279 z         -6.761681     -6.754552     0.007129    Cartesian   -0.11
    280 x         11.269468     11.246781    -0.022687    Cartesian   -0.20
    280 y          2.253894      2.249205    -0.004689    Cartesian   -0.21
    280 z         -2.253894     -2.274751    -0.020857    Cartesian    0.93
    281 x          4.507787      4.503709    -0.004079    Cartesian   -0.09
    281 y         -9.015574     -9.119651    -0.104076    Cartesian    1.15
    281 z          0.000000      0.000291     0.000291    Cartesian *******
    282 x          9.015574      9.028293     0.012719    Cartesian    0.14
    282 y          0.000000      0.007217     0.007217    Cartesian    0.00
    282 z          9.015574      9.054681     0.039107    Cartesian    0.43
    283 x          2.253894      2.253894     0.000000    Cartesian    0.00
    283 y         -2.253894     -2.263796    -0.009902    Cartesian    0.44
    283 z         11.269468     11.250417    -0.019051    Cartesian   -0.17
    284 x          6.761681      6.762128     0.000447    Cartesian    0.01
    284 y         -6.761681     -6.753414     0.008267    Cartesian   -0.12
    284 z          6.761681      6.755125    -0.006556    Cartesian   -0.10
    285 x         11.269468     11.268251    -0.001217    Cartesian   -0.01
    285 y         -2.253894     -2.246669     0.007225    Cartesian   -0.32
    285 z         -2.253894     -2.234721     0.019173    Cartesian   -0.85
    286 x          2.253894      2.253894     0.000000    Cartesian    0.00
    286 y          6.761681      6.751608    -0.010073    Cartesian   -0.15
    286 z         -6.761681     -6.751724     0.009956    Cartesian   -0.15
    287 x          4.507787      4.525265     0.017478    Cartesian    0.39
    287 y         -9.015574     -9.013013     0.002561    Cartesian   -0.03
    287 z          4.507787      4.531551     0.023764    Cartesian    0.53
    288 x          9.015574      9.030357     0.014783    Cartesian    0.16
    288 y         -4.507787     -4.543030    -0.035243    Cartesian    0.78
    288 z         -4.507787     -4.515817    -0.008030    Cartesian    0.18
    289 x         11.269468     11.273892     0.004424    Cartesian    0.04
    289 y          2.253894      2.254275     0.000381    Cartesian    0.02
    289 z          6.761681      6.744171    -0.017509    Cartesian   -0.26
    290 x          4.507787      4.499899    -0.007889    Cartesian   -0.17
    290 y          9.015574      9.080631     0.065056    Cartesian    0.72
    290 z         -4.507787     -4.504440     0.003347    Cartesian   -0.07
    291 x          2.253894      2.253894     0.000000    Cartesian    0.00
    291 y         11.269468     11.264000    -0.005468    Cartesian   -0.05
    291 z          2.253894      2.268608     0.014715    Cartesian    0.65
    292 x          9.015574      9.043173     0.027599    Cartesian    0.31
    292 y          4.507787      4.526646     0.018859    Cartesian    0.42
    292 z          9.015574      9.042151     0.026577    Cartesian    0.29
    293 x          6.761681      6.773735     0.012054    Cartesian    0.18
    293 y          2.253894      2.250901    -0.002992    Cartesian   -0.13
    293 z         11.269468     11.273663     0.004195    Cartesian    0.04
    294 x         11.269468     11.260292    -0.009176    Cartesian   -0.08
    294 y         -2.253894     -2.245843     0.008051    Cartesian   -0.36
    294 z          6.761681      6.767447     0.005766    Cartesian    0.09
    295 x          4.507787      4.509794     0.002007    Cartesian    0.04
    295 y          0.000000      0.026937     0.026937    Cartesian    0.00
    295 z         -9.015574     -9.034874    -0.019299    Cartesian    0.21
    296 x          9.015574      9.078185     0.062610    Cartesian    0.69
    296 y          9.015574      9.029691     0.014117    Cartesian    0.16
    296 z          0.000000      0.021807     0.021807    Cartesian *******
    297 x         11.269468     11.265711    -0.003757    Cartesian   -0.03
    297 y          6.761681      6.767936     0.006255    Cartesian    0.09
    297 z          2.253894      2.247147    -0.006746    Cartesian   -0.30
    298 x          6.761681      6.755345    -0.006336    Cartesian   -0.09
    298 y         -2.253894     -2.258204    -0.004310    Cartesian    0.19
    298 z         11.269468     11.270212     0.000744    Cartesian    0.01
    299 x          9.015574      9.025239     0.009665    Cartesian    0.11
    299 y          9.015574      9.048038     0.032463    Cartesian    0.36
    299 z          4.507787      4.504210    -0.003577    Cartesian   -0.08
    300 x          2.253894      2.253894     0.000000    Cartesian    0.00
    300 y         -6.761681     -6.762897    -0.001216    Cartesian    0.02
    300 z         -6.761681     -6.745000     0.016681    Cartesian   -0.25
    301 x          2.253894      2.253894     0.000000    Cartesian    0.00
    301 y         11.269468     11.253753    -0.015715    Cartesian   -0.14
    301 z         -2.253894     -2.257912    -0.004019    Cartesian    0.18
    302 x         -2.253894     -2.263305    -0.009411    Cartesian    0.42
    302 y          6.761681      6.766328     0.004647    Cartesian    0.07
    302 z         -6.761681     -6.770924    -0.009243    Cartesian    0.14
    303 x          9.015574      9.036292     0.020717    Cartesian    0.23
    303 y         -4.507787     -4.503867     0.003920    Cartesian   -0.09
    303 z          9.015574      9.041424     0.025849    Cartesian    0.29
    304 x         13.523362     13.558115     0.034754    Cartesian    0.26
    304 y          0.000000     -0.006824    -0.006824    Cartesian    0.00
    304 z          0.000000     -0.019107    -0.019107    Cartesian *******
    305 x          4.507787      4.514091     0.006304    Cartesian    0.14
    305 y          9.015574      9.018002     0.002427    Cartesian    0.03
    305 z          9.015574      9.072346     0.056771    Cartesian    0.63
    306 x          2.253894      2.253894     0.000000    Cartesian    0.00
    306 y          6.761681      6.773307     0.011626    Cartesian    0.17
    306 z         11.269468     11.255875    -0.013593    Cartesian   -0.12
    307 x          4.507787      4.485421    -0.022366    Cartesian   -0.50
    307 y          4.507787      4.489068    -0.018719    Cartesian   -0.42
    307 z         -9.015574     -9.056589    -0.041015    Cartesian    0.45
    308 x          6.761681      6.761470    -0.000211    Cartesian   -0.00
    308 y         11.269468     11.275215     0.005747    Cartesian    0.05
    308 z          2.253894      2.263922     0.010029    Cartesian    0.44
    309 x         11.269468     11.274393     0.004925    Cartesian    0.04
    309 y          6.761681      6.769388     0.007708    Cartesian    0.11
    309 z         -2.253894     -2.256212    -0.002318    Cartesian    0.10
    310 x          4.507787      4.509971     0.002184    Cartesian    0.05
    310 y         -9.015574     -9.020400    -0.004826    Cartesian    0.05
    310 z         -4.507787     -4.541059    -0.033272    Cartesian    0.74
    311 x         13.523362     13.551958     0.028596    Cartesian    0.21
    311 y          0.000000      0.005120     0.005120    Cartesian    0.00
    311 z          4.507787      4.539992     0.032205    Cartesian    0.71
    312 x         11.269468     11.260175    -0.009293    Cartesian   -0.08
    312 y         -6.761681     -6.766074    -0.004394    Cartesian    0.06
    312 z          2.253894      2.258033     0.004139    Cartesian    0.18
    313 x          2.253894      2.253894     0.000000    Cartesian    0.00
    313 y         11.269468     11.281996     0.012528    Cartesian    0.11
    313 z          6.761681      6.751519    -0.010161    Cartesian   -0.15
    314 x          9.015574      9.021363     0.005788    Cartesian    0.06
    314 y         -9.015574     -9.053367    -0.037792    Cartesian    0.42
    314 z          0.000000     -0.001132    -0.001132    Cartesian *******
    315 x          2.253894      2.253894     0.000000    Cartesian    0.00
    315 y        -11.269468    -11.259588     0.009880    Cartesian   -0.09
    315 z          2.253894      2.250106    -0.003788    Cartesian   -0.17
--------------------------------------------------------------------------------


  Time to end of optimisation  =       77.6930 seconds


  Peak dynamic memory used =      91.07 MB 


  Timing analysis for GULP :

--------------------------------------------------------------------------------
  Task / Subroutine                                          Time (Seconds)
--------------------------------------------------------------------------------
  Calculation of reciprocal space energy and derivatives          0.0003
  Calculation of reciprocal space energy using symmetry           0.0004
  Calculation of real space energy and derivatives                0.0020
  Calculation of real space energy using symmetry                 0.0042
  Calculation for region 1 energy and derivatives (2-b)          41.2494
  Calculation for region 2a energy                               33.2912
  Calculation for region 2b energy                                0.0119
  Calculation and manipulation of Hessian matrix                  0.0754
  Calculation of matrix inversion                                 2.8436
  Symmetry generation of equivalent positions                     0.0025
--------------------------------------------------------------------------------
  Total CPU time                                                 77.6931
--------------------------------------------------------------------------------


  Dump file written as Na3OCl.grs


  Job Finished at 19:25.46 30th November   2020                               

