********************************************************************************
*                       GENERAL UTILITY LATTICE PROGRAM                        *
*                                 Julian Gale                                  *
*                       Curtin Institute for Computation                       *
*                    School of Molecular and Life Sciences                     *
*                    Curtin University, Western Australia                      *
********************************************************************************
* Version = 5.2.0 * Last modified =  10th September 2020                       *
********************************************************************************
*  optimise     - perform optimisation run                                     *
*  conp         - constant pressure calculation                                *
*  property     - calculate properties for final geometry                      *
*  defect       - perform defect calculation after bulk run                    *
*  compare      - compare initial and final structures                         *
********************************************************************************

  Job Started  at 19:27.02 30th November   2020                               

  Number of CPUs =     1


  Total number of configurations input =      1

********************************************************************************
*  Input for Configuration =   1                                               *
********************************************************************************

  Formula = ClONa3                                                      

  Number of irreducible atoms/shells =       5


  Total number atoms/shells =       7

  Dimensionality = 3               :  Bulk   


  Symmetry :

  Crystal family                   :  Cubic       
  Crystal class  (Groth - 1921)    :  Cubic Hexakisoctahedral              

  Space group (centrosymmetric)    :  P M 3 M         

  Patterson group                  :  P m -3 m 

  Cartesian lattice vectors (Angstroms) :

        4.504000    0.000000    0.000000
        0.000000    4.504000    0.000000
        0.000000    0.000000    4.504000

  Cell parameters (Angstroms/Degrees):

  a =       4.5040    alpha =  90.0000
  b =       4.5040    beta  =  90.0000
  c =       4.5040    gamma =  90.0000

  Initial cell volume =          91.368216 Angs**3

  Temperature of configuration =   0.00     K 

  Pressure of configuration =         0.000 GPa 

  Fractional coordinates of asymmetric unit :

--------------------------------------------------------------------------------
   No.  Atomic       x           y          z         Charge      Occupancy
        Label      (Frac)      (Frac)     (Frac)        (e)         (Frac)  
--------------------------------------------------------------------------------
      1 Cl    c    0.000000    0.000000    0.000000     1.48500    1.000000    
      2 O     c    0.500000    0.500000    0.500000     0.18300    1.000000    
      3 Na    c    0.500000    0.500000    0.000000     1.00000    1.000000    
      4 Cl    s    0.000000    0.000000    0.000000    -2.48500    1.000000    
      5 O     s    0.500000    0.500000    0.500000    -2.18300    1.000000    
--------------------------------------------------------------------------------


  Constraints : 

--------------------------------------------------------------------------------
  Constraint no.      Unconstrained     Constrained    Coefficient    Offset
                         Variable         Variable
--------------------------------------------------------------------------------
           1              Strain 1        Strain 2       1.00000      0.0000
           2              Strain 1        Strain 3       1.00000      0.0000
--------------------------------------------------------------------------------


********************************************************************************
*  General input information                                                   *
********************************************************************************

  Species output for all configurations : 

--------------------------------------------------------------------------------
  Species    Type    Atomic    Atomic    Charge       Radii (Angs)     Library
                     Number     Mass       (e)     Cova   Ionic  VDW   Symbol
--------------------------------------------------------------------------------
    Na       Core       11      22.99   1.000000   0.970  0.000  2.300          
    O        Core        8      16.00   0.183000   0.730  0.000  1.360          
    O        Shell       8       0.00  -2.183000   0.730  0.000  1.360          
    Cl       Core       17      35.45   1.485000   0.990  0.000  1.650          
    Cl       Shell      17       0.00  -2.485000   0.990  0.000  1.650          
    Mg       Core       12      24.31   0.415000   1.100  0.000  0.000          
    Mg       Shell      12       0.00   1.585000   1.100  0.000  0.000          
    Ca       Core       20      40.08  -1.135000   0.990  0.000  0.000          
    Ca       Shell      20       0.00   3.135000   0.990  0.000  0.000          
    Sr       Core       38      87.62  -1.251000   1.120  0.000  0.000          
    Sr       Shell      38       0.00   3.251000   1.120  0.000  0.000          
    Ba       Core       56     137.33  -7.203000   1.340  0.000  0.000          
    Ba       Shell      56       0.00   9.203000   1.340  0.000  0.000          
--------------------------------------------------------------------------------


  Lattice summation method               =    Ewald          (3-D)
                                         =    Parry          (2-D)
                                         =    Saunders et al (1-D)
  Accuracy factor for lattice sums       =   12.000


  Analytic derivatives to be used

  Time limit = Infinity

  Maximum range for interatomic potentials =    100000.000000 Angstroms

  General interatomic potentials :

--------------------------------------------------------------------------------
Atom  Types   Potential      Parameter       Value         Units   Cutoffs(Ang)
  1     2                                                            Min /  Max 
--------------------------------------------------------------------------------
O    c O    s Spring (c-s)  Spring k 2       593.71600    eV*Ang^-2 0.000  0.800
                            Spring k 4       0.0000000    eV*Ang^-4 
--------------------------------------------------------------------------------
Cl   c Cl   s Spring (c-s)  Spring k 2       29.380000    eV*Ang^-2 0.000  0.800
                            Spring k 4       0.0000000    eV*Ang^-4 
--------------------------------------------------------------------------------
Mg   c Mg   s Spring (c-s)  Spring k 2       361.60000    eV*Ang^-2 0.000  0.800
                            Spring k 4       0.0000000    eV*Ang^-4 
--------------------------------------------------------------------------------
Ca   c Ca   s Spring (c-s)  Spring k 2       110.20000    eV*Ang^-2 0.000  0.800
                            Spring k 4       0.0000000    eV*Ang^-4 
--------------------------------------------------------------------------------
Sr   c Sr   s Spring (c-s)  Spring k 2       71.700000    eV*Ang^-2 0.000  0.800
                            Spring k 4       0.0000000    eV*Ang^-4 
--------------------------------------------------------------------------------
Ba   c Ba   s Spring (c-s)  Spring k 2       495.20000    eV*Ang^-2 0.000  0.800
                            Spring k 4       0.0000000    eV*Ang^-4 
--------------------------------------------------------------------------------
Na   c Na   c Buckingham    Buckingham A     1788.1900    eV        0.000 12.000
                            Buckingham rho  0.15900000    Ang       
                            Buckingham C     0.0000000    eV*Ang^6  
--------------------------------------------------------------------------------
Na   c O    s Buckingham    Buckingham A     1226.8400    eV        0.000 12.000
                            Buckingham rho  0.30700000    Ang       
                            Buckingham C     0.0000000    eV*Ang^6  
--------------------------------------------------------------------------------
Na   c Cl   s Buckingham    Buckingham A     2314.7000    eV        0.000 12.000
                            Buckingham rho  0.29000000    Ang       
                            Buckingham C     0.0000000    eV*Ang^6  
--------------------------------------------------------------------------------
O    s O    s Buckingham    Buckingham A     22764.300    eV        0.000 12.000
                            Buckingham rho  0.14900000    Ang       
                            Buckingham C     13.190000    eV*Ang^6  
--------------------------------------------------------------------------------
O    s Cl   s Buckingham    Buckingham A     8286.9100    eV        0.000 12.000
                            Buckingham rho  0.25900000    Ang       
                            Buckingham C     62.200000    eV*Ang^6  
--------------------------------------------------------------------------------
Cl   s Cl   s Buckingham    Buckingham A     1227.2000    eV        0.000 12.000
                            Buckingham rho  0.32100000    Ang       
                            Buckingham C     14.530000    eV*Ang^6  
--------------------------------------------------------------------------------
O    s Mg   s Buckingham    Buckingham A     1428.5000    eV        0.000 12.000
                            Buckingham rho  0.29450000    Ang       
                            Buckingham C     0.0000000    eV*Ang^6  
--------------------------------------------------------------------------------
Mg   s Cl   s Buckingham    Buckingham A     4914.5400    eV        0.000 12.000
                            Buckingham rho  0.25700000    Ang       
                            Buckingham C     0.0000000    eV*Ang^6  
--------------------------------------------------------------------------------
O    s Ca   s Buckingham    Buckingham A     1090.4000    eV        0.000 12.000
                            Buckingham rho  0.34370000    Ang       
                            Buckingham C     0.0000000    eV*Ang^6  
--------------------------------------------------------------------------------
Cl   s Ca   s Buckingham    Buckingham A     2302.0000    eV        0.000 12.000
                            Buckingham rho  0.34020000    Ang       
                            Buckingham C     0.0000000    eV*Ang^6  
--------------------------------------------------------------------------------
O    s Sr   s Buckingham    Buckingham A     959.10000    eV        0.000 12.000
                            Buckingham rho  0.37210000    Ang       
                            Buckingham C     0.0000000    eV*Ang^6  
--------------------------------------------------------------------------------
Cl   s Sr   s Buckingham    Buckingham A     2191.0900    eV        0.000 12.000
                            Buckingham rho  0.34570000    Ang       
                            Buckingham C     0.0000000    eV*Ang^6  
--------------------------------------------------------------------------------
O    s Ba   s Buckingham    Buckingham A     905.70000    eV        0.000 12.000
                            Buckingham rho  0.39760000    Ang       
                            Buckingham C     0.0000000    eV*Ang^6  
--------------------------------------------------------------------------------
Cl   s Ba   s Buckingham    Buckingham A     2704.5500    eV        0.000 12.000
                            Buckingham rho  0.35280000    Ang       
                            Buckingham C     0.0000000    eV*Ang^6  
--------------------------------------------------------------------------------

********************************************************************************
*  Output for configuration   1                                                *
********************************************************************************


  Components of energy : 

--------------------------------------------------------------------------------
  Interatomic potentials     =           5.13022605 eV    
  Monopole - monopole (real) =         -10.03624526 eV    
  Monopole - monopole (recip)=         -29.53581274 eV    
  Monopole - monopole (total)=         -39.57205800 eV    
--------------------------------------------------------------------------------
  Total lattice energy       =         -34.44183194 eV    
--------------------------------------------------------------------------------
  Total lattice energy       =           -3323.1103 kJ/(mole unit cells)
--------------------------------------------------------------------------------


  Number of variables =        1

  Maximum number of calculations  =          1000
  Maximum Hessian update interval =            10
  Maximum step size               =   1.000000000
  Maximum parameter tolerance     =   0.000010000
  Maximum function  tolerance     =   0.000010000
  Maximum gradient  tolerance     =   0.001000000
  Maximum gradient  component     =   0.010000000

  Symmetry constrained optimisation

  Symmetry used for second derivatives

  Cell parameters to be optimised using strains

  Newton-Raphson optimiser to be used

  BFGS hessian update to be used

  Lower half triangular hessian to be used

  Start of bulk optimisation :

  Cycle:      0 Energy:       -34.441832  Gnorm:      0.196570  CPU:    0.020
  ** Hessian calculated **
  Cycle:      1 Energy:       -34.441914  Gnorm:      0.000103  CPU:    0.024


  **** Optimisation achieved ****


  Final energy =     -34.44191447 eV
  Final Gnorm  =       0.00000000

  Components of energy : 

--------------------------------------------------------------------------------
  Interatomic potentials     =           5.09689708 eV    
  Monopole - monopole (real) =         -10.02781331 eV    
  Monopole - monopole (recip)=         -29.51099824 eV    
  Monopole - monopole (total)=         -39.53881155 eV    
--------------------------------------------------------------------------------
  Total lattice energy       =         -34.44191447 eV    
--------------------------------------------------------------------------------
  Total lattice energy       =           -3323.1183 kJ/(mole unit cells)
--------------------------------------------------------------------------------

  Final asymmetric unit coordinates :

--------------------------------------------------------------------------------
   No.  Atomic        x           y           z         Radius
        Label       (Frac)      (Frac)      (Frac)       (Angs) 
--------------------------------------------------------------------------------
     1  Cl    c     0.000000    0.000000    0.000000    0.000000
     2  O     c     0.500000    0.500000    0.500000    0.000000
     3  Na    c     0.500000    0.500000    0.000000    0.000000
     4  Cl    s     0.000000    0.000000    0.000000    0.000000
     5  O     s     0.500000    0.500000    0.500000    0.000000
--------------------------------------------------------------------------------

  Final Cartesian lattice vectors (Angstroms) :

        4.507787    0.000000    0.000000
        0.000000    4.507787    0.000000
        0.000000    0.000000    4.507787


  Final cell parameters and derivatives :

--------------------------------------------------------------------------------
       a            4.507787 Angstrom     dE/de1(xx)     0.000000 eV/strain
       b            4.507787 Angstrom     dE/de2(yy)     0.000000 eV/strain
       c            4.507787 Angstrom     dE/de3(zz)     0.000000 eV/strain
       alpha       90.000000 Degrees      dE/de4(yz)     0.000000 eV/strain
       beta        90.000000 Degrees      dE/de5(xz)     0.000000 eV/strain
       gamma       90.000000 Degrees      dE/de6(xy)     0.000000 eV/strain
--------------------------------------------------------------------------------

  Primitive cell volume =            91.598892 Angs**3

  Density of cell =      2.183054 g/cm**3

  Non-primitive cell volume =            91.598892 Angs**3


  Final internal derivatives :

--------------------------------------------------------------------------------
   No.  Atomic          a             b             c           Radius
        Label          (eV)          (eV)          (eV)        (eV/Angs)
--------------------------------------------------------------------------------
      1 Cl    c       0.000000      0.000000      0.000000      0.000000
      2 O     c       0.000000      0.000000      0.000000      0.000000
      3 Na    c       0.000000      0.000000      0.000000      0.000000
      4 Cl    s       0.000000      0.000000      0.000000      0.000000
      5 O     s       0.000000      0.000000      0.000000      0.000000
--------------------------------------------------------------------------------
  Maximum abs         0.000000      0.000000      0.000000      0.000000
--------------------------------------------------------------------------------

  Comparison of initial and final structures : 

--------------------------------------------------------------------------------
  Parameter   Initial value   Final value   Difference    Units      Percent
--------------------------------------------------------------------------------
    Volume        91.368216     91.598892     0.230676    Angs**3      0.25
    a              4.504000      4.507787     0.003787    Angstroms    0.08
    b              4.504000      4.507787     0.003787    Angstroms    0.08
    c              4.504000      4.507787     0.003787    Angstroms    0.08
    alpha         90.000000     90.000000     0.000000    Degrees      0.00
    beta          90.000000     90.000000     0.000000    Degrees      0.00
    gamma         90.000000     90.000000     0.000000    Degrees      0.00
      1 x          0.000000      0.000000     0.000000    Fractional   0.00
      1 y          0.000000      0.000000     0.000000    Fractional   0.00
      1 z          0.000000      0.000000     0.000000    Fractional   0.00
      2 x          0.500000      0.500000     0.000000    Fractional   0.00
      2 y          0.500000      0.500000     0.000000    Fractional   0.00
      2 z          0.500000      0.500000     0.000000    Fractional   0.00
      3 x          0.500000      0.500000     0.000000    Fractional   0.00
      3 y          0.500000      0.500000     0.000000    Fractional   0.00
      3 z          0.000000      0.000000     0.000000    Fractional   0.00
      4 x          0.000000      0.000000     0.000000    Fractional   0.00
      4 y          0.000000      0.000000     0.000000    Fractional   0.00
      4 z          0.000000      0.000000     0.000000    Fractional   0.00
      5 x          0.500000      0.500000     0.000000    Fractional   0.00
      5 y          0.500000      0.500000     0.000000    Fractional   0.00
      5 z          0.500000      0.500000     0.000000    Fractional   0.00
--------------------------------------------------------------------------------


  Born effective charge tensors : 

-------------------------------------------------------------------------------
  Atom             x           y             z
-------------------------------------------------------------------------------
    1 Cl    x      -1.0181     -0.0000      0.0000
            y      -0.0000     -1.0181      0.0000
            z       0.0000      0.0000     -1.0181
-------------------------------------------------------------------------------
    2 O     x      -2.2647      0.0000     -0.0000
            y       0.0000     -2.2647     -0.0000
            z      -0.0000     -0.0000     -2.2647
-------------------------------------------------------------------------------
    3 Na    x       1.2258     -0.0000      0.0000
            y      -0.0000      1.2258     -0.0000
            z       0.0000     -0.0000      0.8313
-------------------------------------------------------------------------------




  Elastic Constant Matrix: (Units=GPa)

-------------------------------------------------------------------------------
  Indices      1         2         3         4         5         6    
-------------------------------------------------------------------------------
       1     95.8177   20.0737   20.0737   -0.0000   -0.0000    0.0000
       2     20.0737   95.8177   20.0737   -0.0000   -0.0000    0.0000
       3     20.0737   20.0737   95.8177   -0.0000   -0.0000    0.0000
       4     -0.0000   -0.0000   -0.0000   20.0737   -0.0000    0.0000
       5     -0.0000   -0.0000   -0.0000   -0.0000   20.0737    0.0000
       6      0.0000    0.0000    0.0000    0.0000    0.0000   20.0737
-------------------------------------------------------------------------------


  Elastic Compliance Matrix: (Units=1/GPa)

-------------------------------------------------------------------------------
  Indices      1         2         3         4         5         6    
-------------------------------------------------------------------------------
       1    0.011253 -0.001949 -0.001949  0.000000  0.000000 -0.000000
       2   -0.001949  0.011253 -0.001949  0.000000  0.000000  0.000000
       3   -0.001949 -0.001949  0.011253  0.000000  0.000000 -0.000000
       4    0.000000  0.000000  0.000000  0.049816  0.000000 -0.000000
       5    0.000000  0.000000  0.000000  0.000000  0.049816 -0.000000
       6   -0.000000  0.000000 -0.000000 -0.000000 -0.000000  0.049816
-------------------------------------------------------------------------------

  Mechanical properties :

-------------------------------------------------------------------------------
  Convention :                    Reuss         Voigt         Hill
-------------------------------------------------------------------------------
  Bulk  Modulus (GPa)     =      45.32174      45.32174      45.32174
  Shear Modulus (GPa)     =      24.72085      27.19304      25.95695
-------------------------------------------------------------------------------
  Velocity S-wave (km/s)  =       3.36511       3.52937       3.44822
  Velocity P-wave (km/s)  =       5.98827       6.11304       6.05098
-------------------------------------------------------------------------------
  Compressibility (1/GPa) =    0.02206447
-------------------------------------------------------------------------------
  Stress axis :                     x             y             z
-------------------------------------------------------------------------------
  Youngs Moduli (GPa)     =      88.86373      88.86373      88.86373
-------------------------------------------------------------------------------
  Poissons Ratio (x)      =                     0.17321       0.17321
  Poissons Ratio (y)      =       0.17321                     0.17321
  Poissons Ratio (z)      =       0.17321       0.17321
-------------------------------------------------------------------------------


  Piezoelectric Strain Matrix: (Units=C/m**2)

-------------------------------------------------------------------------------
  Indices      1         2         3         4         5         6    
-------------------------------------------------------------------------------
       x    -0.00000  -0.00000  -0.00000   0.00000  -0.00000  -0.00000
       y    -0.00000  -0.00000   0.00000  -0.00000   0.00000   0.00000
       z    -0.00000  -0.00000  -0.00000  -0.00000   0.00000   0.00000
-------------------------------------------------------------------------------


  Piezoelectric Stress Matrix: (Units=10**-11 C/N)

-------------------------------------------------------------------------------
  Indices      1         2         3         4         5         6    
-------------------------------------------------------------------------------
       x    -0.00000   0.00000   0.00000   0.00000  -0.00000  -0.00000
       y    -0.00000  -0.00000   0.00000  -0.00000   0.00000   0.00000
       z     0.00000   0.00000  -0.00000  -0.00000   0.00000   0.00000
-------------------------------------------------------------------------------


  Static dielectric constant tensor : 

-------------------------------------------------------------------------------
              x         y         z
-------------------------------------------------------------------------------
       x    22.84729   0.00000   0.00000
       y     0.00000  22.84729  -0.00000
       z     0.00000  -0.00000  22.84729
--------------------------------------------------------------------------------

  High frequency dielectric constant tensor : 

-------------------------------------------------------------------------------
              x         y         z
-------------------------------------------------------------------------------
       x     1.47557   0.00000  -0.00000
       y     0.00000   1.47557  -0.00000
       z    -0.00000  -0.00000   1.47557
-------------------------------------------------------------------------------

  Static refractive indices : 

-------------------------------------------------------------------------------
    1 =    4.77988      2 =    4.77988      3 =    4.77988
-------------------------------------------------------------------------------

  High frequency refractive indices : 

-------------------------------------------------------------------------------
    1 =    1.21473      2 =    1.21473      3 =    1.21473
-------------------------------------------------------------------------------


  Time to end of optimisation =       0.0360 seconds

********************************************************************************
*  Defect calculation for configuration   1 :                                  *
********************************************************************************

  Total number of defects =      3

  Total charge on defect  =  -1.00

  Defect centre is at   0.5000   0.1900   0.3100  Frac

  Region 1 radius =  12.0000      Number of ions =    549

  Number of symmetry inequivalent region 1 ions  =    318

  Region 2 radius =  16.0000      Number of ions =    772

  Number of symmetry inequivalent region 2a ions =    421

  Region 2a mode = 4 : screened electrostatics due to region 1 
                       neglect correction to region 1 forces from 2a
                       region 2a displacements based on defects only

  Region 2a ions will only interact with defects in region 1

  Vacancies:

--------------------------------------------------------------------------------
    Specification type     Symbol/Number         x          y          z
--------------------------------------------------------------------------------
    Fractional                               0.500000   0.500000   0.000000
    Fractional                               0.500000   0.000000   0.500000
--------------------------------------------------------------------------------

  Interstitials:

--------------------------------------------------------------------------------
    Specification type     Symbol/Number         x          y          z
--------------------------------------------------------------------------------
    Atom/Fractional         Na               0.500000   0.190000   0.310000
--------------------------------------------------------------------------------


  Symmetry reduced region 1 (Relative to defect centre) :

--------------------------------------------------------------------------------
   No.   Atomic       x            y             z       Radius  Multiplicity   
         Label      (Angs)       (Angs)        (Angs)    (Angs)     
--------------------------------------------------------------------------------
     1  Na    c      0.0000       0.0000       0.0000    0.0000     1    Defect
     2  O     c      0.0000       1.3974 *     0.8565 *  0.0000     1          
     3  Na    c      2.2539 *     1.3974 *     0.8565 *  0.0000     2          
     4  Cl    c      2.2539 *    -0.8565 *    -1.3974 *  0.0000     2          
     5  O     c      0.0000      -3.1104 *     0.8565 *  0.0000     1          
     6  Na    c      0.0000       1.3974 *     3.1104 *  0.0000     1          
     7  Na    c      0.0000      -3.1104 *    -1.3974 *  0.0000     1          
     8  Na    c      0.0000      -0.8565 *    -3.6513 *  0.0000     1          
     9  Na    c      0.0000       3.6513 *     0.8565 *  0.0000     1          
    10  O     c      0.0000       1.3974 *    -3.6513 *  0.0000     1          
    11  Cl    c      2.2539 *    -0.8565 *     3.1104 *  0.0000     2          
    12  Na    c      2.2539 *    -3.1104 *     0.8565 *  0.0000     2          
    13  Na    c      0.0000      -3.1104 *     3.1104 *  0.0000     1          
    14  Cl    c      2.2539 *     3.6513 *    -1.3974 *  0.0000     2          
    15  Na    c      2.2539 *     1.3974 *    -3.6513 *  0.0000     2          
    16  Na    c     -4.5078 *    -0.8565 *     0.8565 *  0.0000     2          
    17  O     c      0.0000      -3.1104 *    -3.6513 *  0.0000     1          
    18  O     c     -4.5078 *     1.3974 *     0.8565 *  0.0000     2          
    19  Na    c     -4.5078 *     1.3974 *    -1.3974 *  0.0000     2          
    20  Na    c      0.0000       3.6513 *    -3.6513 *  0.0000     1          
    21  Cl    c      2.2539 *     3.6513 *     3.1104 *  0.0000     2          
    22  Na    c      2.2539 *    -3.1104 *    -3.6513 *  0.0000     2          
    23  Na    c      0.0000      -0.8565 *     5.3643 *  0.0000     1          
    24  Na    c      0.0000      -5.3643 *     0.8565 *  0.0000     1          
    25  O     c      0.0000       1.3974 *     5.3643 *  0.0000     1          
    26  O     c     -4.5078 *    -3.1104 *     0.8565 *  0.0000     2          
    27  Na    c     -4.5078 *     1.3974 *     3.1104 *  0.0000     2          
    28  Na    c     -4.5078 *    -3.1104 *    -1.3974 *  0.0000     2          
    29  Na    c     -4.5078 *    -0.8565 *    -3.6513 *  0.0000     2          
    30  Na    c     -4.5078 *     3.6513 *     0.8565 *  0.0000     2          
    31  O     c     -4.5078 *     1.3974 *    -3.6513 *  0.0000     2          
    32  O     c      0.0000       5.9052 *     0.8565 *  0.0000     1          
    33  Na    c      2.2539 *     1.3974 *     5.3643 *  0.0000     2          
    34  Cl    c      2.2539 *    -5.3643 *    -1.3974 *  0.0000     2          
    35  Na    c      0.0000       1.3974 *    -5.9052 *  0.0000     1          
    36  Na    c      0.0000       5.9052 *    -1.3974 *  0.0000     1          
    37  O     c      0.0000      -3.1104 *     5.3643 *  0.0000     1          
    38  Na    c     -4.5078 *    -3.1104 *     3.1104 *  0.0000     2          
    39  Cl    c      2.2539 *    -0.8565 *    -5.9052 *  0.0000     2          
    40  Na    c      2.2539 *     5.9052 *     0.8565 *  0.0000     2          
    41  Na    c      0.0000       3.6513 *     5.3643 *  0.0000     1          
    42  Na    c      0.0000      -5.3643 *    -3.6513 *  0.0000     1          
    43  O     c     -4.5078 *    -3.1104 *    -3.6513 *  0.0000     2          
    44  Cl    c      2.2539 *    -5.3643 *     3.1104 *  0.0000     2          
    45  Na    c      2.2539 *    -3.1104 *     5.3643 *  0.0000     2          
    46  Na    c      0.0000       5.9052 *     3.1104 *  0.0000     1          
    47  Na    c      0.0000      -3.1104 *    -5.9052 *  0.0000     1          
    48  Na    c     -4.5078 *     3.6513 *    -3.6513 *  0.0000     2          
    49  O     c      0.0000       5.9052 *    -3.6513 *  0.0000     1          
    50  Cl    c      6.7617 *    -0.8565 *    -1.3974 *  0.0000     2          
    51  Na    c      6.7617 *     1.3974 *     0.8565 *  0.0000     2          
    52  Na    c     -4.5078 *    -0.8565 *     5.3643 *  0.0000     2          
    53  Na    c     -4.5078 *    -5.3643 *     0.8565 *  0.0000     2          
    54  O     c     -4.5078 *     1.3974 *     5.3643 *  0.0000     2          
    55  Cl    c      2.2539 *     3.6513 *    -5.9052 *  0.0000     2          
    56  Na    c      2.2539 *     5.9052 *    -3.6513 *  0.0000     2          
    57  O     c      4.5078 *     5.9052 *     0.8565 *  0.0000     2          
    58  Cl    c      6.7617 *    -0.8565 *     3.1104 *  0.0000     2          
    59  Na    c      6.7617 *    -3.1104 *     0.8565 *  0.0000     2          
    60  Na    c     -4.5078 *     1.3974 *    -5.9052 *  0.0000     2          
    61  Na    c      4.5078 *     5.9052 *    -1.3974 *  0.0000     2          
    62  Na    c      0.0000      -5.3643 *     5.3643 *  0.0000     1          
    63  O     c      0.0000      -7.6182 *     0.8565 *  0.0000     1          
    64  O     c      4.5078 *    -3.1104 *     5.3643 *  0.0000     2          
    65  Na    c      0.0000       1.3974 *     7.6182 *  0.0000     1          
    66  Na    c      0.0000      -7.6182 *    -1.3974 *  0.0000     1          
    67  Cl    c      6.7617 *     3.6513 *    -1.3974 *  0.0000     2          
    68  Na    c      6.7617 *     1.3974 *    -3.6513 *  0.0000     2          
    69  Na    c     -4.5078 *    -5.3643 *    -3.6513 *  0.0000     2          
    70  Na    c      4.5078 *     3.6513 *     5.3643 *  0.0000     2          
    71  O     c      0.0000       5.9052 *     5.3643 *  0.0000     1          
    72  Cl    c      2.2539 *    -0.8565 *     7.6182 *  0.0000     2          
    73  Na    c      2.2539 *    -7.6182 *     0.8565 *  0.0000     2          
    74  Na    c      4.5078 *     5.9052 *     3.1104 *  0.0000     2          
    75  Na    c      4.5078 *    -3.1104 *    -5.9052 *  0.0000     2          
    76  Na    c      0.0000      -0.8565 *    -8.1591 *  0.0000     1          
    77  Na    c      0.0000       8.1591 *     0.8565 *  0.0000     1          
    78  Na    c      0.0000      -3.1104 *     7.6182 *  0.0000     1          
    79  Na    c      0.0000      -7.6182 *     3.1104 *  0.0000     1          
    80  O     c      0.0000       1.3974 *    -8.1591 *  0.0000     1          
    81  O     c      4.5078 *     5.9052 *    -3.6513 *  0.0000     2          
    82  Cl    c      6.7617 *     3.6513 *     3.1104 *  0.0000     2          
    83  Na    c      2.2539 *     5.9052 *     5.3643 *  0.0000     2          
    84  Cl    c      2.2539 *    -5.3643 *    -5.9052 *  0.0000     2          
    85  Na    c      6.7617 *    -3.1104 *    -3.6513 *  0.0000     2          
    86  Na    c      0.0000       5.9052 *    -5.9052 *  0.0000     1          
    87  O     c      0.0000      -7.6182 *    -3.6513 *  0.0000     1          
    88  Cl    c      2.2539 *     8.1591 *    -1.3974 *  0.0000     2          
    89  Na    c      2.2539 *     1.3974 *    -8.1591 *  0.0000     2          
    90  O     c      0.0000      -3.1104 *    -8.1591 *  0.0000     1          
    91  Cl    c      2.2539 *     3.6513 *     7.6182 *  0.0000     2          
    92  Cl    c      6.7617 *    -5.3643 *    -1.3974 *  0.0000     2          
    93  Na    c      2.2539 *    -7.6182 *    -3.6513 *  0.0000     2          
    94  Na    c      6.7617 *     1.3974 *     5.3643 *  0.0000     2          
    95  Na    c      4.5078 *    -5.3643 *     5.3643 *  0.0000     2          
    96  O     c     -4.5078 *    -7.6182 *     0.8565 *  0.0000     2          
    97  Na    c      0.0000       3.6513 *    -8.1591 *  0.0000     1          
    98  Na    c      0.0000       8.1591 *    -3.6513 *  0.0000     1          
    99  Na    c      4.5078 *     1.3974 *     7.6182 *  0.0000     2          
   100  Na    c     -4.5078 *    -7.6182 *    -1.3974 *  0.0000     2          
   101  Cl    c      2.2539 *     8.1591 *     3.1104 *  0.0000     2          
   102  Cl    c      6.7617 *    -0.8565 *    -5.9052 *  0.0000     2          
   103  Na    c      2.2539 *    -3.1104 *    -8.1591 *  0.0000     2          
   104  Na    c      6.7617 *     5.9052 *     0.8565 *  0.0000     2          
   105  Na    c      9.0156 *    -0.8565 *     0.8565 *  0.0000     2          
   106  O     c      9.0156 *     1.3974 *     0.8565 *  0.0000     2          
   107  O     c      4.5078 *     5.9052 *     5.3643 *  0.0000     2          
   108  Cl    c      6.7617 *    -5.3643 *     3.1104 *  0.0000     2          
   109  Na    c      6.7617 *    -3.1104 *     5.3643 *  0.0000     2          
   110  Na    c      9.0156 *     1.3974 *    -1.3974 *  0.0000     2          
   111  O     c      0.0000      -7.6182 *     5.3643 *  0.0000     1          
   112  Na    c     -4.5078 *    -0.8565 *    -8.1591 *  0.0000     2          
   113  Na    c     -4.5078 *     8.1591 *     0.8565 *  0.0000     2          
   114  Na    c     -4.5078 *    -3.1104 *     7.6182 *  0.0000     2          
   115  Na    c     -4.5078 *    -7.6182 *     3.1104 *  0.0000     2          
   116  O     c     -4.5078 *     1.3974 *    -8.1591 *  0.0000     2          
   117  Na    c      4.5078 *     5.9052 *    -5.9052 *  0.0000     2          
   118  O     c      9.0156 *    -3.1104 *     0.8565 *  0.0000     2          
   119  O     c     -4.5078 *    -7.6182 *    -3.6513 *  0.0000     2          
   120  Cl    c      2.2539 *    -5.3643 *     7.6182 *  0.0000     2          
   121  Na    c      2.2539 *    -7.6182 *     5.3643 *  0.0000     2          
   122  Na    c      0.0000       5.9052 *     7.6182 *  0.0000     1          
   123  Na    c      9.0156 *     1.3974 *     3.1104 *  0.0000     2          
   124  Na    c      9.0156 *    -3.1104 *    -1.3974 *  0.0000     2          
   125  Na    c      0.0000      -7.6182 *    -5.9052 *  0.0000     1          
   126  Cl    c      6.7617 *     3.6513 *    -5.9052 *  0.0000     2          
   127  Na    c      6.7617 *     5.9052 *    -3.6513 *  0.0000     2          
   128  Na    c      0.0000       8.1591 *     5.3643 *  0.0000     1          
   129  Na    c      0.0000      -5.3643 *    -8.1591 *  0.0000     1          
   130  Na    c      9.0156 *    -0.8565 *    -3.6513 *  0.0000     2          
   131  Na    c      9.0156 *     3.6513 *     0.8565 *  0.0000     2          
   132  O     c      4.5078 *    -3.1104 *    -8.1591 *  0.0000     2          
   133  O     c      9.0156 *     1.3974 *    -3.6513 *  0.0000     2          
   134  Na    c      0.0000      -0.8565 *     9.8721 *  0.0000     1          
   135  Na    c      0.0000      -9.8721 *     0.8565 *  0.0000     1          
   136  O     c      0.0000       1.3974 *     9.8721 *  0.0000     1          
   137  Na    c     -4.5078 *     3.6513 *    -8.1591 *  0.0000     2          
   138  Na    c     -4.5078 *     8.1591 *    -3.6513 *  0.0000     2          
   139  Na    c      9.0156 *    -3.1104 *     3.1104 *  0.0000     2          
   140  O     c      0.0000       5.9052 *    -8.1591 *  0.0000     1          
   141  O     c      9.0156 *    -3.1104 *    -3.6513 *  0.0000     2          
   142  Cl    c      2.2539 *    -9.8721 *    -1.3974 *  0.0000     2          
   143  Cl    c      6.7617 *    -0.8565 *     7.6182 *  0.0000     2          
   144  Na    c      2.2539 *     1.3974 *     9.8721 *  0.0000     2          
   145  Na    c      6.7617 *    -7.6182 *     0.8565 *  0.0000     2          
   146  Cl    c      2.2539 *     8.1591 *    -5.9052 *  0.0000     2          
   147  Na    c      2.2539 *     5.9052 *    -8.1591 *  0.0000     2          
   148  O     c      0.0000      -3.1104 *     9.8721 *  0.0000     1          
   149  O     c     -4.5078 *    -7.6182 *     5.3643 *  0.0000     2          
   150  Na    c      9.0156 *     3.6513 *    -3.6513 *  0.0000     2          
   151  O     c      0.0000      10.4130 *     0.8565 *  0.0000     1          
   152  Cl    c      6.7617 *    -5.3643 *    -5.9052 *  0.0000     2          
   153  Na    c      6.7617 *     5.9052 *     5.3643 *  0.0000     2          
   154  Na    c      0.0000       1.3974 *   -10.4130 *  0.0000     1          
   155  Na    c      0.0000      10.4130 *    -1.3974 *  0.0000     1          
   156  Na    c      0.0000       3.6513 *     9.8721 *  0.0000     1          
   157  Na    c      0.0000      -9.8721 *    -3.6513 *  0.0000     1          
   158  Na    c      9.0156 *    -0.8565 *     5.3643 *  0.0000     2          
   159  Na    c      9.0156 *    -5.3643 *     0.8565 *  0.0000     2          
   160  O     c      9.0156 *     1.3974 *     5.3643 *  0.0000     2          
   161  Cl    c      2.2539 *    -9.8721 *     3.1104 *  0.0000     2          
   162  Na    c      2.2539 *    -3.1104 *     9.8721 *  0.0000     2          
   163  Na    c      4.5078 *     5.9052 *     7.6182 *  0.0000     2          
   164  Na    c      4.5078 *    -7.6182 *    -5.9052 *  0.0000     2          
   165  Cl    c      6.7617 *     8.1591 *    -1.3974 *  0.0000     2          
   166  Cl    c      2.2539 *    -0.8565 *   -10.4130 *  0.0000     2          
   167  Na    c      2.2539 *    10.4130 *     0.8565 *  0.0000     2          
   168  Na    c      6.7617 *     1.3974 *    -8.1591 *  0.0000     2          
   169  Na    c      4.5078 *    -5.3643 *    -8.1591 *  0.0000     2          
   170  Na    c     -4.5078 *     8.1591 *     5.3643 *  0.0000     2          
   171  Na    c      0.0000      -7.6182 *     7.6182 *  0.0000     1          
   172  O     c      9.0156 *     5.9052 *     0.8565 *  0.0000     2          
   173  Cl    c      6.7617 *     3.6513 *     7.6182 *  0.0000     2          
   174  Na    c      6.7617 *    -7.6182 *    -3.6513 *  0.0000     2          
   175  Na    c      9.0156 *     1.3974 *    -5.9052 *  0.0000     2          
   176  Na    c      9.0156 *     5.9052 *    -1.3974 *  0.0000     2          
   177  Na    c      0.0000      10.4130 *     3.1104 *  0.0000     1          
   178  Na    c      0.0000      -3.1104 *   -10.4130 *  0.0000     1          
   179  Na    c     -4.5078 *    -0.8565 *     9.8721 *  0.0000     2          
   180  Na    c     -4.5078 *    -9.8721 *     0.8565 *  0.0000     2          
   181  O     c     -4.5078 *     1.3974 *     9.8721 *  0.0000     2          
   182  O     c      9.0156 *    -3.1104 *     5.3643 *  0.0000     2          
   183  O     c      4.5078 *     5.9052 *    -8.1591 *  0.0000     2          
   184  O     c      0.0000      10.4130 *    -3.6513 *  0.0000     1          
   185  Cl    c      6.7617 *     8.1591 *     3.1104 *  0.0000     2          
   186  Na    c      6.7617 *    -3.1104 *    -8.1591 *  0.0000     2          
   187  Na    c      9.0156 *     3.6513 *     5.3643 *  0.0000     2          
   188  Na    c      9.0156 *    -5.3643 *    -3.6513 *  0.0000     2          
   189  O     c      0.0000      -7.6182 *    -8.1591 *  0.0000     1          
   190  Na    c      9.0156 *     5.9052 *     3.1104 *  0.0000     2          
   191  Na    c      9.0156 *    -3.1104 *    -5.9052 *  0.0000     2          
   192  Na    c      0.0000      -5.3643 *     9.8721 *  0.0000     1          
   193  Na    c      0.0000      -9.8721 *     5.3643 *  0.0000     1          
   194  Cl    c      2.2539 *     3.6513 *   -10.4130 *  0.0000     2          
   195  Na    c      2.2539 *    10.4130 *    -3.6513 *  0.0000     2          
   196  O     c      4.5078 *    -3.1104 *     9.8721 *  0.0000     2          
   197  O     c      9.0156 *     5.9052 *    -3.6513 *  0.0000     2          
   198  O     c      4.5078 *    10.4130 *     0.8565 *  0.0000     2          
   199  Cl    c     11.2695 *    -0.8565 *    -1.3974 *  0.0000     2          
   200  Na    c     11.2695 *     1.3974 *     0.8565 *  0.0000     2          
   201  Cl    c      2.2539 *     8.1591 *     7.6182 *  0.0000     2          
   202  Na    c      2.2539 *    -7.6182 *    -8.1591 *  0.0000     2          
   203  Na    c      4.5078 *     1.3974 *   -10.4130 *  0.0000     2          
   204  Na    c      4.5078 *    10.4130 *    -1.3974 *  0.0000     2          
   205  Na    c     -4.5078 *     3.6513 *     9.8721 *  0.0000     2          
   206  Na    c     -4.5078 *    -9.8721 *    -3.6513 *  0.0000     2          
   207  O     c      0.0000       5.9052 *     9.8721 *  0.0000     1          
   208  Cl    c      6.7617 *    -5.3643 *     7.6182 *  0.0000     2          
   209  Na    c      6.7617 *    -7.6182 *     5.3643 *  0.0000     2          
   210  Na    c      0.0000       8.1591 *    -8.1591 *  0.0000     1          
   211  Na    c      4.5078 *    -7.6182 *     7.6182 *  0.0000     2          
   212  O     c      0.0000      10.4130 *     5.3643 *  0.0000     1          
   213  Cl    c     11.2695 *    -0.8565 *     3.1104 *  0.0000     2          
   214  Na    c     11.2695 *    -3.1104 *     0.8565 *  0.0000     2          
   215  Cl    c      2.2539 *    -9.8721 *    -5.9052 *  0.0000     2          
   216  Na    c      2.2539 *     5.9052 *     9.8721 *  0.0000     2          
   217  Na    c      4.5078 *    10.4130 *     3.1104 *  0.0000     2          
   218  Na    c      4.5078 *    -3.1104 *   -10.4130 *  0.0000     2          
   219  Na    c      9.0156 *    -5.3643 *     5.3643 *  0.0000     2          
   220  O     c      9.0156 *    -7.6182 *     0.8565 *  0.0000     2          
   221  Na    c      9.0156 *     1.3974 *     7.6182 *  0.0000     2          
   222  Na    c      9.0156 *    -7.6182 *    -1.3974 *  0.0000     2          
   223  O     c      4.5078 *    10.4130 *    -3.6513 *  0.0000     2          
   224  Cl    c     11.2695 *     3.6513 *    -1.3974 *  0.0000     2          
   225  Na    c     11.2695 *     1.3974 *    -3.6513 *  0.0000     2          
   226  Cl    c      2.2539 *    -5.3643 *   -10.4130 *  0.0000     2          
   227  Na    c      2.2539 *    10.4130 *     5.3643 *  0.0000     2          
   228  Na    c      0.0000       5.9052 *   -10.4130 *  0.0000     1          
   229  Na    c      0.0000      10.4130 *    -5.9052 *  0.0000     1          
   230  O     s      0.0000       1.3974 *     0.8565 *  0.0000     1          
   231  Cl    s      2.2539 *    -0.8565 *    -1.3974 *  0.0000     2          
   232  O     s      0.0000      -3.1104 *     0.8565 *  0.0000     1          
   233  O     s      0.0000       1.3974 *    -3.6513 *  0.0000     1          
   234  Cl    s      2.2539 *    -0.8565 *     3.1104 *  0.0000     2          
   235  Cl    s      2.2539 *     3.6513 *    -1.3974 *  0.0000     2          
   236  O     s      0.0000      -3.1104 *    -3.6513 *  0.0000     1          
   237  O     s     -4.5078 *     1.3974 *     0.8565 *  0.0000     2          
   238  Cl    s      2.2539 *     3.6513 *     3.1104 *  0.0000     2          
   239  O     s      0.0000       1.3974 *     5.3643 *  0.0000     1          
   240  O     s     -4.5078 *    -3.1104 *     0.8565 *  0.0000     2          
   241  O     s     -4.5078 *     1.3974 *    -3.6513 *  0.0000     2          
   242  O     s      0.0000       5.9052 *     0.8565 *  0.0000     1          
   243  Cl    s      2.2539 *    -5.3643 *    -1.3974 *  0.0000     2          
   244  O     s      0.0000      -3.1104 *     5.3643 *  0.0000     1          
   245  Cl    s      2.2539 *    -0.8565 *    -5.9052 *  0.0000     2          
   246  O     s     -4.5078 *    -3.1104 *    -3.6513 *  0.0000     2          
   247  Cl    s      2.2539 *    -5.3643 *     3.1104 *  0.0000     2          
   248  O     s      0.0000       5.9052 *    -3.6513 *  0.0000     1          
   249  Cl    s      6.7617 *    -0.8565 *    -1.3974 *  0.0000     2          
   250  O     s     -4.5078 *     1.3974 *     5.3643 *  0.0000     2          
   251  Cl    s      2.2539 *     3.6513 *    -5.9052 *  0.0000     2          
   252  O     s      4.5078 *     5.9052 *     0.8565 *  0.0000     2          
   253  Cl    s      6.7617 *    -0.8565 *     3.1104 *  0.0000     2          
   254  O     s      0.0000      -7.6182 *     0.8565 *  0.0000     1          
   255  O     s      4.5078 *    -3.1104 *     5.3643 *  0.0000     2          
   256  Cl    s      6.7617 *     3.6513 *    -1.3974 *  0.0000     2          
   257  O     s      0.0000       5.9052 *     5.3643 *  0.0000     1          
   258  Cl    s      2.2539 *    -0.8565 *     7.6182 *  0.0000     2          
   259  O     s      0.0000       1.3974 *    -8.1591 *  0.0000     1          
   260  O     s      4.5078 *     5.9052 *    -3.6513 *  0.0000     2          
   261  Cl    s      6.7617 *     3.6513 *     3.1104 *  0.0000     2          
   262  Cl    s      2.2539 *    -5.3643 *    -5.9052 *  0.0000     2          
   263  O     s      0.0000      -7.6182 *    -3.6513 *  0.0000     1          
   264  Cl    s      2.2539 *     8.1591 *    -1.3974 *  0.0000     2          
   265  O     s      0.0000      -3.1104 *    -8.1591 *  0.0000     1          
   266  Cl    s      2.2539 *     3.6513 *     7.6182 *  0.0000     2          
   267  Cl    s      6.7617 *    -5.3643 *    -1.3974 *  0.0000     2          
   268  O     s     -4.5078 *    -7.6182 *     0.8565 *  0.0000     2          
   269  Cl    s      2.2539 *     8.1591 *     3.1104 *  0.0000     2          
   270  Cl    s      6.7617 *    -0.8565 *    -5.9052 *  0.0000     2          
   271  O     s      9.0156 *     1.3974 *     0.8565 *  0.0000     2          
   272  O     s      4.5078 *     5.9052 *     5.3643 *  0.0000     2          
   273  Cl    s      6.7617 *    -5.3643 *     3.1104 *  0.0000     2          
   274  O     s      0.0000      -7.6182 *     5.3643 *  0.0000     1          
   275  O     s     -4.5078 *     1.3974 *    -8.1591 *  0.0000     2          
   276  O     s      9.0156 *    -3.1104 *     0.8565 *  0.0000     2          
   277  O     s     -4.5078 *    -7.6182 *    -3.6513 *  0.0000     2          
   278  Cl    s      2.2539 *    -5.3643 *     7.6182 *  0.0000     2          
   279  Cl    s      6.7617 *     3.6513 *    -5.9052 *  0.0000     2          
   280  O     s      4.5078 *    -3.1104 *    -8.1591 *  0.0000     2          
   281  O     s      9.0156 *     1.3974 *    -3.6513 *  0.0000     2          
   282  O     s      0.0000       1.3974 *     9.8721 *  0.0000     1          
   283  O     s      0.0000       5.9052 *    -8.1591 *  0.0000     1          
   284  O     s      9.0156 *    -3.1104 *    -3.6513 *  0.0000     2          
   285  Cl    s      2.2539 *    -9.8721 *    -1.3974 *  0.0000     2          
   286  Cl    s      6.7617 *    -0.8565 *     7.6182 *  0.0000     2          
   287  Cl    s      2.2539 *     8.1591 *    -5.9052 *  0.0000     2          
   288  O     s      0.0000      -3.1104 *     9.8721 *  0.0000     1          
   289  O     s     -4.5078 *    -7.6182 *     5.3643 *  0.0000     2          
   290  O     s      0.0000      10.4130 *     0.8565 *  0.0000     1          
   291  Cl    s      6.7617 *    -5.3643 *    -5.9052 *  0.0000     2          
   292  O     s      9.0156 *     1.3974 *     5.3643 *  0.0000     2          
   293  Cl    s      2.2539 *    -9.8721 *     3.1104 *  0.0000     2          
   294  Cl    s      6.7617 *     8.1591 *    -1.3974 *  0.0000     2          
   295  Cl    s      2.2539 *    -0.8565 *   -10.4130 *  0.0000     2          
   296  O     s      9.0156 *     5.9052 *     0.8565 *  0.0000     2          
   297  Cl    s      6.7617 *     3.6513 *     7.6182 *  0.0000     2          
   298  O     s     -4.5078 *     1.3974 *     9.8721 *  0.0000     2          
   299  O     s      9.0156 *    -3.1104 *     5.3643 *  0.0000     2          
   300  O     s      4.5078 *     5.9052 *    -8.1591 *  0.0000     2          
   301  O     s      0.0000      10.4130 *    -3.6513 *  0.0000     1          
   302  Cl    s      6.7617 *     8.1591 *     3.1104 *  0.0000     2          
   303  O     s      0.0000      -7.6182 *    -8.1591 *  0.0000     1          
   304  Cl    s      2.2539 *     3.6513 *   -10.4130 *  0.0000     2          
   305  O     s      4.5078 *    -3.1104 *     9.8721 *  0.0000     2          
   306  O     s      9.0156 *     5.9052 *    -3.6513 *  0.0000     2          
   307  O     s      4.5078 *    10.4130 *     0.8565 *  0.0000     2          
   308  Cl    s     11.2695 *    -0.8565 *    -1.3974 *  0.0000     2          
   309  Cl    s      2.2539 *     8.1591 *     7.6182 *  0.0000     2          
   310  O     s      0.0000       5.9052 *     9.8721 *  0.0000     1          
   311  Cl    s      6.7617 *    -5.3643 *     7.6182 *  0.0000     2          
   312  O     s      0.0000      10.4130 *     5.3643 *  0.0000     1          
   313  Cl    s     11.2695 *    -0.8565 *     3.1104 *  0.0000     2          
   314  Cl    s      2.2539 *    -9.8721 *    -5.9052 *  0.0000     2          
   315  O     s      9.0156 *    -7.6182 *     0.8565 *  0.0000     2          
   316  O     s      4.5078 *    10.4130 *    -3.6513 *  0.0000     2          
   317  Cl    s     11.2695 *     3.6513 *    -1.3974 *  0.0000     2          
   318  Cl    s      2.2539 *    -5.3643 *   -10.4130 *  0.0000     2          
--------------------------------------------------------------------------------

  Components of defect energy : 

--------------------------------------------------------------------------------
  Region 1 - region 1                   =      5.75627272 eV
  Region 1 - region 2a (unrelaxed)      =      4.45347239 eV
  Region 1 - 2a (relaxed - correction)  =     -0.29299602 eV
  Region 1 (Total)                      =      9.91674909 eV
  Region 2a                             =      0.14641890 eV
  Region 2b                             =     -0.43038775 eV
--------------------------------------------------------------------------------
  Total defect energy                   =      9.63278024 eV
--------------------------------------------------------------------------------

  Largest displacement in region 2 =   0.0240 Angstroms


  Number of variables =      865

  Maximum number of calculations  =        1000
  Maximum Hessian update interval =          10
  Maximum step size               =   1.0000000
  Maximum parameter tolerance     =   0.0000100
  Maximum function  tolerance     =   0.0000100
  Maximum gradient  tolerance     =   0.0010000

  Symmetry adapted optimisation

  Symmetry to be used for second derivatives

  Newton-Raphson optimiser to be used

  BFGS hessian update to be used

  Lower half triangular hessian to be used

  Start of defect optimisation :

  Cycle:      0 Defect Energy:   9.632780  Gnorm:     0.022344  CPU:    3.147
  ** Hessian calculated **
  Cycle:      1 Defect Energy:   8.098138  Gnorm:     0.012210  CPU:    8.411
  Cycle:      2 Defect Energy:   7.579613  Gnorm:     0.011169  CPU:   12.866
  Cycle:      3 Defect Energy:   7.361477  Gnorm:     0.009292  CPU:   16.212
  Cycle:      4 Defect Energy:   7.000219  Gnorm:     0.009654  CPU:   21.159
  Cycle:      5 Defect Energy:   6.643441  Gnorm:     0.006925  CPU:   25.974
  Cycle:      6 Defect Energy:   6.254123  Gnorm:     0.007922  CPU:   33.310
  Cycle:      7 Defect Energy:   5.892311  Gnorm:     0.006921  CPU:   37.190
  Cycle:      8 Defect Energy:   5.609309  Gnorm:     0.004570  CPU:   41.834
  Cycle:      9 Defect Energy:   5.540666  Gnorm:     0.003575  CPU:   42.856
  Cycle:     10 Defect Energy:   5.466630  Gnorm:     0.002826  CPU:   43.944
  ** Hessian calculated **
  Cycle:     11 Defect Energy:   5.394434  Gnorm:     0.002591  CPU:   46.441
  Cycle:     12 Defect Energy:   5.337134  Gnorm:     0.002390  CPU:   47.414
  ** Hessian calculated **
  Cycle:     13 Defect Energy:   5.276877  Gnorm:     0.002156  CPU:   49.993
  Cycle:     14 Defect Energy:   5.250694  Gnorm:     0.002051  CPU:   50.918
  ** Hessian calculated **
  Cycle:     15 Defect Energy:   5.118591  Gnorm:     0.001525  CPU:   53.488
  Cycle:     16 Defect Energy:   5.034612  Gnorm:     0.000782  CPU:   54.408
  Cycle:     17 Defect Energy:   5.013098  Gnorm:     0.000561  CPU:   55.311
  Cycle:     18 Defect Energy:   5.016895  Gnorm:     0.000729  CPU:   56.209
  ** Hessian calculated **
  Cycle:     19 Defect Energy:   5.012789  Gnorm:     0.000483  CPU:   58.506
  Cycle:     20 Defect Energy:   5.010219  Gnorm:     0.000397  CPU:   59.684
  Cycle:     21 Defect Energy:   5.007718  Gnorm:     0.000371  CPU:   63.515
  Cycle:     22 Defect Energy:   5.005640  Gnorm:     0.000357  CPU:   64.651
  Cycle:     23 Defect Energy:   5.003955  Gnorm:     0.000352  CPU:   65.759
  Cycle:     24 Defect Energy:   5.002708  Gnorm:     0.000355  CPU:   66.895
  Cycle:     25 Defect Energy:   5.001587  Gnorm:     0.000351  CPU:   68.014
  Cycle:     26 Defect Energy:   5.000839  Gnorm:     0.000337  CPU:   69.201
  Cycle:     27 Defect Energy:   5.000142  Gnorm:     0.000330  CPU:   70.251
  Cycle:     28 Defect Energy:   4.999639  Gnorm:     0.000317  CPU:   71.298
  ** Hessian calculated **
  Cycle:     29 Defect Energy:   4.999015  Gnorm:     0.000317  CPU:   74.131
  Cycle:     30 Defect Energy:   4.998083  Gnorm:     0.000317  CPU:   75.163
  Cycle:     31 Defect Energy:   4.996667  Gnorm:     0.000318  CPU:   76.185
  Cycle:     32 Defect Energy:   4.994372  Gnorm:     0.000319  CPU:   77.200
  Cycle:     33 Defect Energy:   4.990211  Gnorm:     0.000322  CPU:   78.291
  Cycle:     34 Defect Energy:   4.982607  Gnorm:     0.000342  CPU:   79.273
  Cycle:     35 Defect Energy:   4.971977  Gnorm:     0.000454  CPU:   80.259
  Cycle:     36 Defect Energy:   4.968483  Gnorm:     0.000341  CPU:   81.221
  Cycle:     37 Defect Energy:   4.964715  Gnorm:     0.000429  CPU:   82.184
  Cycle:     38 Defect Energy:   4.960769  Gnorm:     0.000470  CPU:   83.233
  ** Hessian calculated **
  Cycle:     39 Defect Energy:   4.949824  Gnorm:     0.000429  CPU:   85.663
  Cycle:     40 Defect Energy:   4.936778  Gnorm:     0.000390  CPU:   86.618
  Cycle:     41 Defect Energy:   4.929218  Gnorm:     0.000257  CPU:   87.544
  Cycle:     42 Defect Energy:   4.926766  Gnorm:     0.000301  CPU:   88.543
  Cycle:     43 Defect Energy:   4.922977  Gnorm:     0.000201  CPU:   89.456
  Cycle:     44 Defect Energy:   4.921025  Gnorm:     0.000167  CPU:   90.355
  Cycle:     45 Defect Energy:   4.919410  Gnorm:     0.000126  CPU:   91.258
  Cycle:     46 Defect Energy:   4.918003  Gnorm:     0.000126  CPU:   92.161
  Cycle:     47 Defect Energy:   4.916604  Gnorm:     0.000098  CPU:   93.153
  Cycle:     48 Defect Energy:   4.915977  Gnorm:     0.000080  CPU:   94.434
  ** Hessian calculated **
  Cycle:     49 Defect Energy:   4.915457  Gnorm:     0.000078  CPU:   99.909
  Cycle:     50 Defect Energy:   4.914866  Gnorm:     0.000112  CPU:  101.054
  Cycle:     51 Defect Energy:   4.914622  Gnorm:     0.000126  CPU:  102.203
  Cycle:     52 Defect Energy:   4.914970  Gnorm:     0.000166  CPU:  103.433
  Cycle:     53 Defect Energy:   4.914408  Gnorm:     0.000107  CPU:  104.524
  Cycle:     54 Defect Energy:   4.913989  Gnorm:     0.000079  CPU:  105.592
  Cycle:     55 Defect Energy:   4.913754  Gnorm:     0.000057  CPU:  106.667
  Cycle:     56 Defect Energy:   4.913572  Gnorm:     0.000040  CPU:  107.742
  Cycle:     57 Defect Energy:   4.913401  Gnorm:     0.000028  CPU:  108.887
  Cycle:     58 Defect Energy:   4.913264  Gnorm:     0.000019  CPU:  109.920
  ** Hessian calculated **
  Cycle:     59 Defect Energy:   4.913135  Gnorm:     0.000014  CPU:  112.595
  Cycle:     60 Defect Energy:   4.913056  Gnorm:     0.000011  CPU:  113.565
  Cycle:     61 Defect Energy:   4.913005  Gnorm:     0.000008  CPU:  114.565
  Cycle:     62 Defect Energy:   4.912970  Gnorm:     0.000006  CPU:  115.560
  Cycle:     63 Defect Energy:   4.912947  Gnorm:     0.000004  CPU:  116.535
  Cycle:     64 Defect Energy:   4.912931  Gnorm:     0.000003  CPU:  117.575
  Cycle:     65 Defect Energy:   4.912920  Gnorm:     0.000002  CPU:  118.510


  **** Optimisation achieved ****


  Final defect energy  =        4.91291215
  Final defect Gnorm   =        0.00000145

  Components of defect energy : 

--------------------------------------------------------------------------------
  Region 1 - region 1                   =      1.80165554 eV
  Region 1 - region 2a (unrelaxed)      =      3.65266159 eV
  Region 1 - 2a (relaxed - correction)  =     -0.22298107 eV
  Region 1 (Total)                      =      5.23133606 eV
  Region 2a                             =      0.11145052 eV
  Region 2b                             =     -0.42987443 eV
--------------------------------------------------------------------------------
  Total defect energy                   =      4.91291215 eV
--------------------------------------------------------------------------------

  Largest displacement in region 2 =   0.0240 Angstroms

  Final coordinates of region 1 :

--------------------------------------------------------------------------------
   No.  Atomic        x           y           z          Radius      Charge
        Label       (Angs)      (Angs)      (Angs)       (Angs)       (e) 
--------------------------------------------------------------------------------
     1  Na    c     2.253894    0.856480    1.397414    0.000000    1.000000
     2  O     c     2.253894    2.683840    2.438820    0.000000    0.183000
     3  Na    c     4.501430    2.774921    2.310969    0.000000    1.000000
     4  Na    c     0.006357    2.774921    2.310969    0.000000    1.000000
     5  Cl    c     4.569738   -0.064527   -0.017375    0.000000    1.485000
     6  Cl    c    -0.061951   -0.064527   -0.017375    0.000000    1.485000
     7  O     c     2.253894   -2.199934    2.262195    0.000000    0.183000
     8  Na    c     2.253894    2.400326    4.593363    0.000000    1.000000
     9  Na    c     2.253894   -2.115524    0.032305    0.000000    1.000000
    10  Na    c     2.253894    0.084218   -2.385856    0.000000    1.000000
    11  Na    c     2.253894    4.662341    1.546693    0.000000    1.000000
    12  O     c     2.253894    2.318588   -2.318702    0.000000    0.183000
    13  Cl    c     4.648731    0.021998    4.634361    0.000000    1.485000
    14  Cl    c    -0.140944    0.021998    4.634361    0.000000    1.485000
    15  Na    c     4.470573   -2.218739    2.330417    0.000000    1.000000
    16  Na    c     0.037214   -2.218739    2.330417    0.000000    1.000000
    17  Na    c     2.253894   -1.585688    4.412047    0.000000    1.000000
    18  Cl    c     4.650377    4.686006   -0.000869    0.000000    1.485000
    19  Cl    c    -0.142589    4.686006   -0.000869    0.000000    1.485000
    20  Na    c     4.412867    2.266907   -1.776194    0.000000    1.000000
    21  Na    c     0.094920    2.266907   -1.776194    0.000000    1.000000
    22  Na    c    -1.895356    0.068707    2.228510    0.000000    1.000000
    23  Na    c     6.403143    0.068707    2.228510    0.000000    1.000000
    24  O     c     2.253894   -2.215555   -2.249397    0.000000    0.183000
    25  O     c    -2.248259    2.306456    2.271857    0.000000    0.183000
    26  O     c     6.756046    2.306456    2.271857    0.000000    0.183000
    27  Na    c    -2.483285    2.197947    0.025632    0.000000    1.000000
    28  Na    c     6.991072    2.197947    0.025632    0.000000    1.000000
    29  Na    c     2.253894    4.493232   -1.825122    0.000000    1.000000
    30  Cl    c     4.659518    4.568533    4.669812    0.000000    1.485000
    31  Cl    c    -0.151731    4.568533    4.669812    0.000000    1.485000
    32  Na    c     4.500850   -2.222330   -2.303114    0.000000    1.000000
    33  Na    c     0.006937   -2.222330   -2.303114    0.000000    1.000000
    34  Na    c     2.253894    0.018995    6.995151    0.000000    1.000000
    35  Na    c     2.253894   -4.441225    2.472114    0.000000    1.000000
    36  O     c     2.253894    2.277877    6.843306    0.000000    0.183000
    37  O     c    -2.239507   -2.190503    2.264795    0.000000    0.183000
    38  O     c     6.747294   -2.190503    2.264795    0.000000    0.183000
    39  Na    c    -2.144846    2.336315    4.534614    0.000000    1.000000
    40  Na    c     6.652633    2.336315    4.534614    0.000000    1.000000
    41  Na    c    -2.104951   -2.334507    0.012824    0.000000    1.000000
    42  Na    c     6.612738   -2.334507    0.012824    0.000000    1.000000
    43  Na    c    -2.170926    0.010701   -2.225704    0.000000    1.000000
    44  Na    c     6.678713    0.010701   -2.225704    0.000000    1.000000
    45  Na    c    -2.552497    4.544461    2.115226    0.000000    1.000000
    46  Na    c     7.060284    4.544461    2.115226    0.000000    1.000000
    47  O     c    -2.194235    2.264382   -2.214390    0.000000    0.183000
    48  O     c     6.702022    2.264382   -2.214390    0.000000    0.183000
    49  O     c     2.253894    6.824423    2.214798    0.000000    0.183000
    50  Na    c     4.510720    2.311844    6.807551    0.000000    1.000000
    51  Na    c    -0.002933    2.311844    6.807551    0.000000    1.000000
    52  Cl    c     4.518685   -4.548992   -0.049133    0.000000    1.485000
    53  Cl    c    -0.010898   -4.548992   -0.049133    0.000000    1.485000
    54  Na    c     2.253894    2.611071   -4.504757    0.000000    1.000000
    55  Na    c     2.253894    7.339019   -0.015691    0.000000    1.000000
    56  O     c     2.253894   -2.216828    6.665726    0.000000    0.183000
    57  Na    c    -2.411844   -2.060488    4.508408    0.000000    1.000000
    58  Na    c     6.919631   -2.060488    4.508408    0.000000    1.000000
    59  Cl    c     4.582181   -0.109664   -4.572386    0.000000    1.485000
    60  Cl    c    -0.074393   -0.109664   -4.572386    0.000000    1.485000
    61  Na    c     4.521765    6.720682    2.230893    0.000000    1.000000
    62  Na    c    -0.013978    6.720682    2.230893    0.000000    1.000000
    63  Na    c     2.253894    4.522885    7.050457    0.000000    1.000000
    64  Na    c     2.253894   -4.471281   -2.078911    0.000000    1.000000
    65  O     c    -2.253027   -2.248977   -2.245180    0.000000    0.183000
    66  O     c     6.760815   -2.248977   -2.245180    0.000000    0.183000
    67  Cl    c     4.581702   -4.567770    4.511621    0.000000    1.485000
    68  Cl    c    -0.073915   -4.567770    4.511621    0.000000    1.485000
    69  Na    c     4.507517   -2.306067    6.562765    0.000000    1.000000
    70  Na    c     0.000271   -2.306067    6.562765    0.000000    1.000000
    71  Na    c     2.253894    6.249686    4.441664    0.000000    1.000000
    72  Na    c     2.253894   -2.457309   -4.491277    0.000000    1.000000
    73  Na    c    -2.242940    4.515768   -2.132996    0.000000    1.000000
    74  Na    c     6.750727    4.515768   -2.132996    0.000000    1.000000
    75  O     c     2.253894    6.768261   -2.227513    0.000000    0.183000
    76  Cl    c     9.015419    0.040124   -0.016896    0.000000    1.485000
    77  Cl    c    -4.507632    0.040124   -0.016896    0.000000    1.485000
    78  Na    c     9.002703    1.991611    2.477648    0.000000    1.000000
    79  Na    c    -4.494915    1.991611    2.477648    0.000000    1.000000
    80  Na    c    -2.108182    0.006954    6.802274    0.000000    1.000000
    81  Na    c     6.615969    0.006954    6.802274    0.000000    1.000000
    82  Na    c    -2.387553   -4.455022    2.426116    0.000000    1.000000
    83  Na    c     6.895340   -4.455022    2.426116    0.000000    1.000000
    84  O     c    -2.263955    2.258739    6.792309    0.000000    0.183000
    85  O     c     6.771742    2.258739    6.792309    0.000000    0.183000
    86  Cl    c     4.564550    4.624585   -4.604628    0.000000    1.485000
    87  Cl    c    -0.056763    4.624585   -4.604628    0.000000    1.485000
    88  Na    c     4.505426    6.700700   -2.245866    0.000000    1.000000
    89  Na    c     0.002362    6.700700   -2.245866    0.000000    1.000000
    90  O     c     6.785291    6.789210    2.269519    0.000000    0.183000
    91  O     c    -2.277503    6.789210    2.269519    0.000000    0.183000
    92  Cl    c     9.068039   -0.015802    4.549245    0.000000    1.485000
    93  Cl    c    -4.560252   -0.015802    4.549245    0.000000    1.485000
    94  Na    c     8.998871   -1.963809    2.087440    0.000000    1.000000
    95  Na    c    -4.491084   -1.963809    2.087440    0.000000    1.000000
    96  Na    c    -1.855355    2.305119   -4.459792    0.000000    1.000000
    97  Na    c     6.363142    2.305119   -4.459792    0.000000    1.000000
    98  Na    c     6.736997    6.911181    0.004975    0.000000    1.000000
    99  Na    c    -2.229210    6.911181    0.004975    0.000000    1.000000
   100  Na    c     2.253894   -4.468442    6.327535    0.000000    1.000000
   101  O     c     2.253894   -6.728378    2.267550    0.000000    0.183000
   102  O     c     6.766634   -2.249668    6.761372    0.000000    0.183000
   103  O     c    -2.258846   -2.249668    6.761372    0.000000    0.183000
   104  Na    c     2.253894    2.238462    9.072443    0.000000    1.000000
   105  Na    c     2.253894   -6.673578    0.019114    0.000000    1.000000
   106  Cl    c     9.042243    4.538971   -0.021933    0.000000    1.485000
   107  Cl    c    -4.534455    4.538971   -0.021933    0.000000    1.485000
   108  Na    c     8.961586    2.230410   -2.534795    0.000000    1.000000
   109  Na    c    -4.453799    2.230410   -2.534795    0.000000    1.000000
   110  Na    c    -2.274744   -4.495229   -2.366939    0.000000    1.000000
   111  Na    c     6.782531   -4.495229   -2.366939    0.000000    1.000000
   112  Na    c     6.800297    4.511305    6.880433    0.000000    1.000000
   113  Na    c    -2.292510    4.511305    6.880433    0.000000    1.000000
   114  O     c     2.253894    6.744001    6.708629    0.000000    0.183000
   115  Cl    c     4.506378    0.040073    9.052122    0.000000    1.485000
   116  Cl    c     0.001410    0.040073    9.052122    0.000000    1.485000
   117  Na    c     4.508266   -6.603402    2.243270    0.000000    1.000000
   118  Na    c    -0.000478   -6.603402    2.243270    0.000000    1.000000
   119  Na    c     6.773795    6.549959    4.514371    0.000000    1.000000
   120  Na    c    -2.266008    6.549959    4.514371    0.000000    1.000000
   121  Na    c     6.825766   -2.194203   -4.499383    0.000000    1.000000
   122  Na    c    -2.317979   -2.194203   -4.499383    0.000000    1.000000
   123  Na    c     2.253894    0.013997   -6.439754    0.000000    1.000000
   124  Na    c     2.253894    9.026214    2.655507    0.000000    1.000000
   125  Na    c     2.253894   -2.460317    8.948898    0.000000    1.000000
   126  Na    c     2.253894   -7.019653    4.497909    0.000000    1.000000
   127  O     c     2.253894    2.260851   -6.772815    0.000000    0.183000
   128  O     c     6.765135    6.777398   -2.256740    0.000000    0.183000
   129  O     c    -2.257348    6.777398   -2.256740    0.000000    0.183000
   130  Cl    c     9.057231    4.520705    4.493323    0.000000    1.485000
   131  Cl    c    -4.549444    4.520705    4.493323    0.000000    1.485000
   132  Na    c     4.515362    6.743371    6.681767    0.000000    1.000000
   133  Na    c    -0.007575    6.743371    6.681767    0.000000    1.000000
   134  Cl    c     4.505859   -4.516993   -4.502140    0.000000    1.485000
   135  Cl    c     0.001929   -4.516993   -4.502140    0.000000    1.485000
   136  Na    c     9.008677   -2.196764   -2.117722    0.000000    1.000000
   137  Na    c    -4.500889   -2.196764   -2.117722    0.000000    1.000000
   138  Na    c     2.253894    6.414113   -4.491712    0.000000    1.000000
   139  O     c     2.253894   -6.734497   -2.239000    0.000000    0.183000
   140  Cl    c     4.568584    9.086732   -0.004680    0.000000    1.485000
   141  Cl    c    -0.060797    9.086732   -0.004680    0.000000    1.485000
   142  Na    c     4.493343    2.220870   -6.903909    0.000000    1.000000
   143  Na    c     0.014444    2.220870   -6.903909    0.000000    1.000000
   144  O     c     2.253894   -2.241290   -6.740325    0.000000    0.183000
   145  Cl    c     4.494046    4.508805    9.043658    0.000000    1.485000
   146  Cl    c     0.013741    4.508805    9.043658    0.000000    1.485000
   147  Cl    c     9.039227   -4.511611   -0.002207    0.000000    1.485000
   148  Cl    c    -4.531440   -4.511611   -0.002207    0.000000    1.485000
   149  Na    c     4.507809   -6.701641   -2.258115    0.000000    1.000000
   150  Na    c    -0.000022   -6.701641   -2.258115    0.000000    1.000000
   151  Na    c     9.017645    2.142094    6.680093    0.000000    1.000000
   152  Na    c    -4.509857    2.142094    6.680093    0.000000    1.000000
   153  Na    c     6.841612   -4.499326    6.607862    0.000000    1.000000
   154  Na    c    -2.333825   -4.499326    6.607862    0.000000    1.000000
   155  O     c    -2.252464   -6.731551    2.251905    0.000000    0.183000
   156  O     c     6.760251   -6.731551    2.251905    0.000000    0.183000
   157  Na    c     2.253894    4.508240   -7.038256    0.000000    1.000000
   158  Na    c     2.253894    9.006813   -2.624174    0.000000    1.000000
   159  Na    c     6.803825    2.212606    9.031102    0.000000    1.000000
   160  Na    c    -2.296038    2.212606    9.031102    0.000000    1.000000
   161  Na    c    -2.244549   -6.571747    0.001244    0.000000    1.000000
   162  Na    c     6.752336   -6.571747    0.001244    0.000000    1.000000
   163  Cl    c     4.542314    9.107342    4.533898    0.000000    1.485000
   164  Cl    c    -0.034527    9.107342    4.533898    0.000000    1.485000
   165  Cl    c     9.051034   -0.020972   -4.511082    0.000000    1.485000
   166  Cl    c    -4.543247   -0.020972   -4.511082    0.000000    1.485000
   167  Na    c     4.514196   -2.195375   -6.690936    0.000000    1.000000
   168  Na    c    -0.006409   -2.195375   -6.690936    0.000000    1.000000
   169  Na    c     9.023559    6.969487    2.280469    0.000000    1.000000
   170  Na    c    -4.515772    6.969487    2.280469    0.000000    1.000000
   171  Na    c    11.503705    0.009627    2.332489    0.000000    1.000000
   172  Na    c    -6.995918    0.009627    2.332489    0.000000    1.000000
   173  O     c    11.249570    2.252467    2.252128    0.000000    0.183000
   174  O     c    -6.741782    2.252467    2.252128    0.000000    0.183000
   175  O     c     6.778542    6.770559    6.764950    0.000000    0.183000
   176  O     c    -2.270754    6.770559    6.764950    0.000000    0.183000
   177  Cl    c     9.041491   -4.531872    4.531441    0.000000    1.485000
   178  Cl    c    -4.533704   -4.531872    4.531441    0.000000    1.485000
   179  Na    c     9.009036   -2.145600    6.913905    0.000000    1.000000
   180  Na    c    -4.501249   -2.145600    6.913905    0.000000    1.000000
   181  Na    c    11.005900    2.191863   -0.006962    0.000000    1.000000
   182  Na    c    -6.498113    2.191863   -0.006962    0.000000    1.000000
   183  O     c     2.253894   -6.726854    6.734836    0.000000    0.183000
   184  Na    c    -2.308555    0.007861   -6.677256    0.000000    1.000000
   185  Na    c     6.816342    0.007861   -6.677256    0.000000    1.000000
   186  Na    c    -2.180603    9.031864    2.436809    0.000000    1.000000
   187  Na    c     6.688390    9.031864    2.436809    0.000000    1.000000
   188  Na    c    -2.145578   -2.342234    9.008271    0.000000    1.000000
   189  Na    c     6.653365   -2.342234    9.008271    0.000000    1.000000
   190  Na    c    -2.190521   -6.856878    4.499476    0.000000    1.000000
   191  Na    c     6.698308   -6.856878    4.499476    0.000000    1.000000
   192  O     c    -2.227512    2.255162   -6.727039    0.000000    0.183000
   193  O     c     6.735300    2.255162   -6.727039    0.000000    0.183000
   194  Na    c     6.777413    6.661123   -4.510610    0.000000    1.000000
   195  Na    c    -2.269625    6.661123   -4.510610    0.000000    1.000000
   196  O     c    11.257712   -2.236368    2.257770    0.000000    0.183000
   197  O     c    -6.749925   -2.236368    2.257770    0.000000    0.183000
   198  O     c    -2.255448   -6.751207   -2.254821    0.000000    0.183000
   199  O     c     6.763235   -6.751207   -2.254821    0.000000    0.183000
   200  Cl    c     4.516726   -4.508962    9.080912    0.000000    1.485000
   201  Cl    c    -0.008939   -4.508962    9.080912    0.000000    1.485000
   202  Na    c     4.508682   -6.682794    6.777592    0.000000    1.000000
   203  Na    c    -0.000895   -6.682794    6.777592    0.000000    1.000000
   204  Na    c     2.253894    6.953556    8.981467    0.000000    1.000000
   205  Na    c    11.372379    2.421523    4.498939    0.000000    1.000000
   206  Na    c    -6.864591    2.421523    4.498939    0.000000    1.000000
   207  Na    c    11.374994   -2.271054    0.012180    0.000000    1.000000
   208  Na    c    -6.867207   -2.271054    0.012180    0.000000    1.000000
   209  Na    c     2.253894   -6.633911   -4.502092    0.000000    1.000000
   210  Cl    c     9.066154    4.536183   -4.499106    0.000000    1.485000
   211  Cl    c    -4.558367    4.536183   -4.499106    0.000000    1.485000
   212  Na    c     9.013183    6.777092   -2.257922    0.000000    1.000000
   213  Na    c    -4.505396    6.777092   -2.257922    0.000000    1.000000
   214  Na    c     2.253894    8.994411    6.501200    0.000000    1.000000
   215  Na    c     2.253894   -4.490234   -6.914271    0.000000    1.000000
   216  Na    c    11.269104    0.005056   -2.259055    0.000000    1.000000
   217  Na    c    -6.761317    0.005056   -2.259055    0.000000    1.000000
   218  Na    c    11.077009    4.509943    2.162519    0.000000    1.000000
   219  Na    c    -6.569222    4.509943    2.162519    0.000000    1.000000
   220  O     c     6.773100   -2.250666   -6.759000    0.000000    0.183000
   221  O     c    -2.265312   -2.250666   -6.759000    0.000000    0.183000
   222  O     c    11.233889    2.254668   -2.263266    0.000000    0.183000
   223  O     c    -6.726102    2.254668   -2.263266    0.000000    0.183000
   224  Na    c     2.253894   -0.015373   11.224018    0.000000    1.000000
   225  Na    c     2.253894   -9.000664    2.141610    0.000000    1.000000
   226  O     c     2.253894    2.251217   11.290456    0.000000    0.183000
   227  Na    c    -2.213593    4.506227   -6.778915    0.000000    1.000000
   228  Na    c     6.721380    4.506227   -6.778915    0.000000    1.000000
   229  Na    c    -2.205701    9.017377   -2.374628    0.000000    1.000000
   230  Na    c     6.713488    9.017377   -2.374628    0.000000    1.000000
   231  Na    c    11.105622   -2.312818    4.511176    0.000000    1.000000
   232  Na    c    -6.597835   -2.312818    4.511176    0.000000    1.000000
   233  O     c     2.253894    6.749736   -6.752308    0.000000    0.183000
   234  O     c    11.267895   -2.247566   -2.236478    0.000000    0.183000
   235  O     c    -6.760108   -2.247566   -2.236478    0.000000    0.183000
   236  Cl    c     4.502758   -9.076114    0.011799    0.000000    1.485000
   237  Cl    c     0.005029   -9.076114    0.011799    0.000000    1.485000
   238  Cl    c     9.029000    0.014625    9.054346    0.000000    1.485000
   239  Cl    c    -4.521213    0.014625    9.054346    0.000000    1.485000
   240  Na    c     4.511977    2.244734   11.285837    0.000000    1.000000
[...]
    238 y          4.507787      4.576169     0.068382    Cartesian    1.52
    238 z          4.507787      4.675836     0.168049    Cartesian    3.73
    239 x          2.253894      2.253894     0.000000    Cartesian    0.00
    239 y          2.253894      2.277914     0.024020    Cartesian    1.07
    239 z          6.761681      6.843388     0.081707    Cartesian    1.21
    240 x         -2.253894     -2.239491     0.014403    Cartesian   -0.64
    240 y         -2.253894     -2.190486     0.063407    Cartesian   -2.81
    240 z          2.253894      2.264805     0.010911    Cartesian    0.48
    241 x         -2.253894     -2.194288     0.059606    Cartesian   -2.64
    241 y          2.253894      2.264372     0.010479    Cartesian    0.46
    241 z         -2.253894     -2.214355     0.039538    Cartesian   -1.75
    242 x          2.253894      2.253894     0.000000    Cartesian    0.00
    242 y          6.761681      6.824414     0.062733    Cartesian    0.93
    242 z          2.253894      2.214755    -0.039138    Cartesian   -1.74
    243 x          4.507787      4.521498     0.013711    Cartesian    0.30
    243 y         -4.507787     -4.558995    -0.051208    Cartesian    1.14
    243 z         -0.000000     -0.056564    -0.056564    Cartesian *******
    244 x          2.253894      2.253894     0.000000    Cartesian    0.00
    244 y         -2.253894     -2.216795     0.037099    Cartesian   -1.65
    244 z          6.761681      6.665747    -0.095933    Cartesian   -1.42
    245 x          4.507787      4.590526     0.082739    Cartesian    1.84
    245 y          0.000000     -0.120006    -0.120006    Cartesian    0.00
    245 z         -4.507787     -4.583622    -0.075835    Cartesian    1.68
    246 x         -2.253894     -2.253014     0.000879    Cartesian   -0.04
    246 y         -2.253894     -2.248982     0.004911    Cartesian   -0.22
    246 z         -2.253894     -2.245197     0.008696    Cartesian   -0.39
    247 x          4.507787      4.580242     0.072455    Cartesian    1.61
    247 y         -4.507787     -4.573979    -0.066191    Cartesian    1.47
    247 z          4.507787      4.517526     0.009739    Cartesian    0.22
    248 x          2.253894      2.253894     0.000000    Cartesian    0.00
    248 y          6.761681      6.768314     0.006634    Cartesian    0.10
    248 z         -2.253894     -2.227525     0.026368    Cartesian   -1.17
    249 x          9.015574      9.017686     0.002111    Cartesian    0.02
    249 y          0.000000      0.045007     0.045007    Cartesian    0.00
    249 z         -0.000000     -0.012830    -0.012830    Cartesian *******
    250 x         -2.253894     -2.263930    -0.010037    Cartesian    0.45
    250 y          2.253894      2.258736     0.004843    Cartesian    0.21
    250 z          6.761681      6.792339     0.030658    Cartesian    0.45
    251 x          4.507787      4.569332     0.061545    Cartesian    1.37
    251 y          4.507787      4.635330     0.127542    Cartesian    2.83
    251 z         -4.507787     -4.614558    -0.106771    Cartesian    2.37
    252 x          6.761681      6.785333     0.023653    Cartesian    0.35
    252 y          6.761681      6.789232     0.027551    Cartesian    0.41
    252 z          2.253894      2.269531     0.015637    Cartesian    0.69
    253 x          9.015574      9.069453     0.053878    Cartesian    0.60
    253 y          0.000000     -0.015951    -0.015951    Cartesian    0.00
    253 z          4.507787      4.546633     0.038846    Cartesian    0.86
    254 x          2.253894      2.253894     0.000000    Cartesian    0.00
    254 y         -6.761681     -6.728402     0.033279    Cartesian   -0.49
    254 z          2.253894      2.267549     0.013655    Cartesian    0.61
    255 x          6.761681      6.766650     0.004970    Cartesian    0.07
    255 y         -2.253894     -2.249651     0.004243    Cartesian   -0.19
    255 z          6.761681      6.761366    -0.000315    Cartesian   -0.00
    256 x          9.015574      9.042514     0.026940    Cartesian    0.30
    256 y          4.507787      4.536995     0.029208    Cartesian    0.65
    256 z         -0.000000     -0.014222    -0.014222    Cartesian *******
    257 x          2.253894      2.253894     0.000000    Cartesian    0.00
    257 y          6.761681      6.743952    -0.017729    Cartesian   -0.26
    257 z          6.761681      6.708694    -0.052987    Cartesian   -0.78
    258 x          4.507787      4.506059    -0.001728    Cartesian   -0.04
    258 y          0.000000      0.046454     0.046454    Cartesian    0.00
    258 z          9.015574      9.052338     0.036763    Cartesian    0.41
    259 x          2.253894      2.253894     0.000000    Cartesian    0.00
    259 y          2.253894      2.260869     0.006975    Cartesian    0.31
    259 z         -6.761681     -6.772895    -0.011214    Cartesian    0.17
    260 x          6.761681      6.765137     0.003456    Cartesian    0.05
    260 y          6.761681      6.777415     0.015734    Cartesian    0.23
    260 z         -2.253894     -2.256751    -0.002857    Cartesian    0.13
    261 x          9.015574      9.059573     0.043999    Cartesian    0.49
    261 y          4.507787      4.524207     0.016420    Cartesian    0.36
    261 z          4.507787      4.489113    -0.018675    Cartesian   -0.41
    262 x          4.507787      4.503627    -0.004160    Cartesian   -0.09
    262 y         -4.507787     -4.517469    -0.009682    Cartesian    0.21
    262 z         -4.507787     -4.500613     0.007175    Cartesian   -0.16
    263 x          2.253894      2.253894     0.000000    Cartesian    0.00
    263 y         -6.761681     -6.734469     0.027212    Cartesian   -0.40
    263 z         -2.253894     -2.238975     0.014918    Cartesian   -0.66
    264 x          4.507787      4.565830     0.058043    Cartesian    1.29
    264 y          9.015574      9.088294     0.072719    Cartesian    0.81
    264 z         -0.000000     -0.004916    -0.004916    Cartesian *******
    265 x          2.253894      2.253894     0.000000    Cartesian    0.00
    265 y         -2.253894     -2.241316     0.012577    Cartesian   -0.56
    265 z         -6.761681     -6.740291     0.021390    Cartesian   -0.32
    266 x          4.507787      4.488840    -0.018947    Cartesian   -0.42
    266 y          4.507787      4.506201    -0.001586    Cartesian   -0.04
    266 z          9.015574      9.041463     0.025889    Cartesian    0.29
    267 x          9.015574      9.043142     0.027568    Cartesian    0.31
    267 y         -4.507787     -4.515776    -0.007989    Cartesian    0.18
    267 z         -0.000000     -0.002717    -0.002717    Cartesian *******
    268 x         -2.253894     -2.252470     0.001423    Cartesian   -0.06
    268 y         -6.761681     -6.731569     0.030111    Cartesian   -0.45
    268 z          2.253894      2.251922    -0.001972    Cartesian   -0.09
    269 x          4.507787      4.542005     0.034218    Cartesian    0.76
    269 y          9.015574      9.116345     0.100770    Cartesian    1.12
    269 z          4.507787      4.534143     0.026356    Cartesian    0.58
    270 x          9.015574      9.053701     0.038127    Cartesian    0.42
    270 y          0.000000     -0.020504    -0.020504    Cartesian    0.00
    270 z         -4.507787     -4.511550    -0.003763    Cartesian    0.08
    271 x         11.269468     11.249578    -0.019891    Cartesian   -0.18
    271 y          2.253894      2.252458    -0.001435    Cartesian   -0.06
    271 z          2.253894      2.252164    -0.001730    Cartesian   -0.08
    272 x          6.761681      6.778567     0.016886    Cartesian    0.25
    272 y          6.761681      6.770556     0.008876    Cartesian    0.13
    272 z          6.761681      6.764949     0.003268    Cartesian    0.05
    273 x          9.015574      9.043286     0.027712    Cartesian    0.31
    273 y         -4.507787     -4.532697    -0.024910    Cartesian    0.55
    273 z          4.507787      4.531724     0.023937    Cartesian    0.53
    274 x          2.253894      2.253894     0.000000    Cartesian    0.00
    274 y         -6.761681     -6.726897     0.034784    Cartesian   -0.51
    274 z          6.761681      6.734802    -0.026879    Cartesian   -0.40
    275 x         -2.253894     -2.227463     0.026431    Cartesian   -1.17
    275 y          2.253894      2.255160     0.001267    Cartesian    0.06
    275 z         -6.761681     -6.727082     0.034599    Cartesian   -0.51
    276 x         11.269468     11.257750    -0.011718    Cartesian   -0.10
    276 y         -2.253894     -2.236356     0.017537    Cartesian   -0.78
    276 z          2.253894      2.257755     0.003862    Cartesian    0.17
    277 x         -2.253894     -2.255453    -0.001559    Cartesian    0.07
    277 y         -6.761681     -6.751194     0.010487    Cartesian   -0.16
    277 z         -2.253894     -2.254837    -0.000944    Cartesian    0.04
    278 x          4.507787      4.516655     0.008868    Cartesian    0.20
    278 y         -4.507787     -4.508450    -0.000663    Cartesian    0.01
    278 z          9.015574      9.090012     0.074438    Cartesian    0.83
    279 x          9.015574      9.072043     0.056469    Cartesian    0.63
    279 y          4.507787      4.536348     0.028561    Cartesian    0.63
    279 z         -4.507787     -4.497476     0.010311    Cartesian   -0.23
    280 x          6.761681      6.773122     0.011441    Cartesian    0.17
    280 y         -2.253894     -2.250658     0.003235    Cartesian   -0.14
    280 z         -6.761681     -6.758993     0.002688    Cartesian   -0.04
    281 x         11.269468     11.233904    -0.035564    Cartesian   -0.32
    281 y          2.253894      2.254655     0.000761    Cartesian    0.03
    281 z         -2.253894     -2.263308    -0.009415    Cartesian    0.42
    282 x          2.253894      2.253894     0.000000    Cartesian    0.00
    282 y          2.253894      2.251215    -0.002678    Cartesian   -0.12
    282 z         11.269468     11.290412     0.020944    Cartesian    0.19
    283 x          2.253894      2.253894     0.000000    Cartesian    0.00
    283 y          6.761681      6.749714    -0.011967    Cartesian   -0.18
    283 z         -6.761681     -6.752356     0.009325    Cartesian   -0.14
    284 x         11.269468     11.267905    -0.001564    Cartesian   -0.01
    284 y         -2.253894     -2.247558     0.006336    Cartesian   -0.28
    284 z         -2.253894     -2.236459     0.017435    Cartesian   -0.77
    285 x          4.507787      4.504134    -0.003653    Cartesian   -0.08
    285 y         -9.015574     -9.085158    -0.069583    Cartesian    0.77
    285 z         -0.000000      0.015051     0.015051    Cartesian *******
    286 x          9.015574      9.031042     0.015467    Cartesian    0.17
    286 y          0.000000      0.016393     0.016393    Cartesian    0.00
    286 z          9.015574      9.056489     0.040914    Cartesian    0.45
    287 x          4.507787      4.511079     0.003291    Cartesian    0.07
    287 y          9.015574      9.091308     0.075733    Cartesian    0.84
    287 z         -4.507787     -4.510220    -0.002433    Cartesian    0.05
    288 x          2.253894      2.253894     0.000000    Cartesian    0.00
    288 y         -2.253894     -2.269610    -0.015716    Cartesian    0.70
    288 z         11.269468     11.248968    -0.020500    Cartesian   -0.18
    289 x         -2.253894     -2.258723    -0.004830    Cartesian    0.21
    289 y         -6.761681     -6.758322     0.003359    Cartesian   -0.05
    289 z          6.761681      6.753709    -0.007972    Cartesian   -0.12
    290 x          2.253894      2.253894     0.000000    Cartesian    0.00
    290 y         11.269468     11.267158    -0.002310    Cartesian   -0.02
    290 z          2.253894      2.269897     0.016004    Cartesian    0.71
    291 x          9.015574      9.029891     0.014316    Cartesian    0.16
    291 y         -4.507787     -4.526158    -0.018371    Cartesian    0.41
    291 z         -4.507787     -4.521306    -0.013519    Cartesian    0.30
    292 x         11.269468     11.275003     0.005535    Cartesian    0.05
    292 y          2.253894      2.255038     0.001144    Cartesian    0.05
    292 z          6.761681      6.747315    -0.014366    Cartesian   -0.21
    293 x          4.507787      4.523248     0.015461    Cartesian    0.34
    293 y         -9.015574     -9.026537    -0.010962    Cartesian    0.12
    293 z          4.507787      4.512188     0.004401    Cartesian    0.10
    294 x          9.015574      9.082583     0.067008    Cartesian    0.74
    294 y          9.015574      9.030371     0.014796    Cartesian    0.16
    294 z         -0.000000      0.026497     0.026497    Cartesian *******
    295 x          4.507787      4.487687    -0.020100    Cartesian   -0.45
    295 y          0.000000      0.023376     0.023376    Cartesian    0.00
    295 z         -9.015574     -9.088844    -0.073269    Cartesian    0.81
    296 x         11.269468     11.265247    -0.004221    Cartesian   -0.04
    296 y          6.761681      6.765458     0.003777    Cartesian    0.06
    296 z          2.253894      2.245722    -0.008171    Cartesian   -0.36
    297 x          9.015574      9.043713     0.028138    Cartesian    0.31
    297 y          4.507787      4.528861     0.021074    Cartesian    0.47
    297 z          9.015574      9.037353     0.021779    Cartesian    0.24
    298 x         -2.253894     -2.261132    -0.007238    Cartesian    0.32
    298 y          2.253894      2.252108    -0.001785    Cartesian   -0.08
    298 z         11.269468     11.276274     0.006806    Cartesian    0.06
    299 x         11.269468     11.259996    -0.009472    Cartesian   -0.08
    299 y         -2.253894     -2.249050     0.004844    Cartesian   -0.21
    299 z          6.761681      6.767522     0.005841    Cartesian    0.09
    300 x          6.761681      6.770890     0.009209    Cartesian    0.14
    300 y          6.761681      6.766397     0.004716    Cartesian    0.07
    300 z         -6.761681     -6.767472    -0.005791    Cartesian    0.09
    301 x          2.253894      2.253894     0.000000    Cartesian    0.00
    301 y         11.269468     11.256447    -0.013021    Cartesian   -0.12
    301 z         -2.253894     -2.269560    -0.015667    Cartesian    0.70
    302 x          9.015574      9.029053     0.013478    Cartesian    0.15
    302 y          9.015574      9.038673     0.023098    Cartesian    0.26
    302 z          4.507787      4.500124    -0.007663    Cartesian   -0.17
    303 x          2.253894      2.253894     0.000000    Cartesian    0.00
    303 y         -6.761681     -6.749367     0.012314    Cartesian   -0.18
    303 z         -6.761681     -6.765174    -0.003493    Cartesian    0.05
    304 x          4.507787      4.521505     0.013717    Cartesian    0.30
    304 y          4.507787      4.503239    -0.004548    Cartesian   -0.10
    304 z         -9.015574     -9.020578    -0.005004    Cartesian    0.06
    305 x          6.761681      6.757012    -0.004669    Cartesian   -0.07
    305 y         -2.253894     -2.259150    -0.005256    Cartesian    0.23
    305 z         11.269468     11.269642     0.000174    Cartesian    0.00
    306 x         11.269468     11.273598     0.004130    Cartesian    0.04
    306 y          6.761681      6.767934     0.006253    Cartesian    0.09
    306 z         -2.253894     -2.252495     0.001399    Cartesian   -0.06
    307 x          6.761681      6.760455    -0.001226    Cartesian   -0.02
    307 y         11.269468     11.278035     0.008567    Cartesian    0.08
    307 z          2.253894      2.261874     0.007980    Cartesian    0.35
    308 x         13.523362     13.548096     0.024735    Cartesian    0.18
    308 y          0.000000      0.006491     0.006491    Cartesian    0.00
    308 z         -0.000000     -0.013351    -0.013351    Cartesian *******
    309 x          4.507787      4.514042     0.006255    Cartesian    0.14
    309 y          9.015574      9.026018     0.010444    Cartesian    0.12
    309 z          9.015574      9.057886     0.042312    Cartesian    0.47
    310 x          2.253894      2.253894     0.000000    Cartesian    0.00
    310 y          6.761681      6.773269     0.011588    Cartesian    0.17
    310 z         11.269468     11.253703    -0.015765    Cartesian   -0.14
    311 x          9.015574      9.044290     0.028716    Cartesian    0.32
    311 y         -4.507787     -4.504308     0.003479    Cartesian   -0.08
    311 z          9.015574      9.043803     0.028229    Cartesian    0.31
    312 x          2.253894      2.253894     0.000000    Cartesian    0.00
    312 y         11.269468     11.267375    -0.002093    Cartesian   -0.02
    312 z          6.761681      6.752532    -0.009149    Cartesian   -0.14
    313 x         13.523362     13.548719     0.025357    Cartesian    0.19
    313 y          0.000000     -0.005213    -0.005213    Cartesian    0.00
    313 z          4.507787      4.543677     0.035890    Cartesian    0.80
    314 x          4.507787      4.535314     0.027527    Cartesian    0.61
    314 y         -9.015574     -9.039091    -0.023517    Cartesian    0.26
    314 z         -4.507787     -4.527129    -0.019341    Cartesian    0.43
    315 x         11.269468     11.260189    -0.009279    Cartesian   -0.08
    315 y         -6.761681     -6.766259    -0.004578    Cartesian    0.07
    315 z          2.253894      2.255534     0.001640    Cartesian    0.07
    316 x          6.761681      6.771260     0.009579    Cartesian    0.14
    316 y         11.269468     11.269485     0.000017    Cartesian    0.00
    316 z         -2.253894     -2.257979    -0.004085    Cartesian    0.18
    317 x         13.523362     13.615697     0.092336    Cartesian    0.68
    317 y          4.507787      4.497819    -0.009968    Cartesian   -0.22
    317 z         -0.000000     -0.001679    -0.001679    Cartesian *******
    318 x          4.507787      4.508374     0.000587    Cartesian    0.01
    318 y         -4.507787     -4.534583    -0.026796    Cartesian    0.59
    318 z         -9.015574     -9.034358    -0.018783    Cartesian    0.21
--------------------------------------------------------------------------------


  Time to end of optimisation  =      119.4620 seconds


  Peak dynamic memory used =      93.00 MB 


  Timing analysis for GULP :

--------------------------------------------------------------------------------
  Task / Subroutine                                          Time (Seconds)
--------------------------------------------------------------------------------
  Calculation of reciprocal space energy and derivatives          0.0009
  Calculation of reciprocal space energy using symmetry           0.0011
  Calculation of real space energy and derivatives                0.0046
  Calculation of real space energy using symmetry                 0.0110
  Calculation for region 1 energy and derivatives (2-b)          65.0408
  Calculation for region 2a energy                               50.1324
  Calculation for region 2b energy                                0.0190
  Calculation and manipulation of Hessian matrix                  0.1639
  Calculation of matrix inversion                                 3.6859
  Symmetry generation of equivalent positions                     0.0058
--------------------------------------------------------------------------------
  Total CPU time                                                119.4621
--------------------------------------------------------------------------------


  Dump file written as Na3OCl.grs


  Job Finished at 19:29.11 30th November   2020                               

