********************************************************************************
*                       GENERAL UTILITY LATTICE PROGRAM                        *
*                                 Julian Gale                                  *
*                       Curtin Institute for Computation                       *
*                    School of Molecular and Life Sciences                     *
*                    Curtin University, Western Australia                      *
********************************************************************************
* Version = 5.2.0 * Last modified =  10th September 2020                       *
********************************************************************************
*  optimise     - perform optimisation run                                     *
*  conp         - constant pressure calculation                                *
*  property     - calculate properties for final geometry                      *
*  defect       - perform defect calculation after bulk run                    *
*  compare      - compare initial and final structures                         *
********************************************************************************

  Job Started  at 19:27.05 30th November   2020                               

  Number of CPUs =     1


  Total number of configurations input =      1

********************************************************************************
*  Input for Configuration =   1                                               *
********************************************************************************

  Formula = ClONa3                                                      

  Number of irreducible atoms/shells =       5


  Total number atoms/shells =       7

  Dimensionality = 3               :  Bulk   


  Symmetry :

  Crystal family                   :  Cubic       
  Crystal class  (Groth - 1921)    :  Cubic Hexakisoctahedral              

  Space group (centrosymmetric)    :  P M 3 M         

  Patterson group                  :  P m -3 m 

  Cartesian lattice vectors (Angstroms) :

        4.504000    0.000000    0.000000
        0.000000    4.504000    0.000000
        0.000000    0.000000    4.504000

  Cell parameters (Angstroms/Degrees):

  a =       4.5040    alpha =  90.0000
  b =       4.5040    beta  =  90.0000
  c =       4.5040    gamma =  90.0000

  Initial cell volume =          91.368216 Angs**3

  Temperature of configuration =   0.00     K 

  Pressure of configuration =         0.000 GPa 

  Fractional coordinates of asymmetric unit :

--------------------------------------------------------------------------------
   No.  Atomic       x           y          z         Charge      Occupancy
        Label      (Frac)      (Frac)     (Frac)        (e)         (Frac)  
--------------------------------------------------------------------------------
      1 Cl    c    0.000000    0.000000    0.000000     1.48500    1.000000    
      2 O     c    0.500000    0.500000    0.500000     0.18300    1.000000    
      3 Na    c    0.500000    0.500000    0.000000     1.00000    1.000000    
      4 Cl    s    0.000000    0.000000    0.000000    -2.48500    1.000000    
      5 O     s    0.500000    0.500000    0.500000    -2.18300    1.000000    
--------------------------------------------------------------------------------


  Constraints : 

--------------------------------------------------------------------------------
  Constraint no.      Unconstrained     Constrained    Coefficient    Offset
                         Variable         Variable
--------------------------------------------------------------------------------
           1              Strain 1        Strain 2       1.00000      0.0000
           2              Strain 1        Strain 3       1.00000      0.0000
--------------------------------------------------------------------------------


********************************************************************************
*  General input information                                                   *
********************************************************************************

  Species output for all configurations : 

--------------------------------------------------------------------------------
  Species    Type    Atomic    Atomic    Charge       Radii (Angs)     Library
                     Number     Mass       (e)     Cova   Ionic  VDW   Symbol
--------------------------------------------------------------------------------
    Na       Core       11      22.99   1.000000   0.970  0.000  2.300          
    O        Core        8      16.00   0.183000   0.730  0.000  1.360          
    O        Shell       8       0.00  -2.183000   0.730  0.000  1.360          
    Cl       Core       17      35.45   1.485000   0.990  0.000  1.650          
    Cl       Shell      17       0.00  -2.485000   0.990  0.000  1.650          
    Mg       Core       12      24.31   0.415000   1.100  0.000  0.000          
    Mg       Shell      12       0.00   1.585000   1.100  0.000  0.000          
    Ca       Core       20      40.08  -1.135000   0.990  0.000  0.000          
    Ca       Shell      20       0.00   3.135000   0.990  0.000  0.000          
    Sr       Core       38      87.62  -1.251000   1.120  0.000  0.000          
    Sr       Shell      38       0.00   3.251000   1.120  0.000  0.000          
    Ba       Core       56     137.33  -7.203000   1.340  0.000  0.000          
    Ba       Shell      56       0.00   9.203000   1.340  0.000  0.000          
--------------------------------------------------------------------------------


  Lattice summation method               =    Ewald          (3-D)
                                         =    Parry          (2-D)
                                         =    Saunders et al (1-D)
  Accuracy factor for lattice sums       =   12.000


  Analytic derivatives to be used

  Time limit = Infinity

  Maximum range for interatomic potentials =    100000.000000 Angstroms

  General interatomic potentials :

--------------------------------------------------------------------------------
Atom  Types   Potential      Parameter       Value         Units   Cutoffs(Ang)
  1     2                                                            Min /  Max 
--------------------------------------------------------------------------------
O    c O    s Spring (c-s)  Spring k 2       593.71600    eV*Ang^-2 0.000  0.800
                            Spring k 4       0.0000000    eV*Ang^-4 
--------------------------------------------------------------------------------
Cl   c Cl   s Spring (c-s)  Spring k 2       29.380000    eV*Ang^-2 0.000  0.800
                            Spring k 4       0.0000000    eV*Ang^-4 
--------------------------------------------------------------------------------
Mg   c Mg   s Spring (c-s)  Spring k 2       361.60000    eV*Ang^-2 0.000  0.800
                            Spring k 4       0.0000000    eV*Ang^-4 
--------------------------------------------------------------------------------
Ca   c Ca   s Spring (c-s)  Spring k 2       110.20000    eV*Ang^-2 0.000  0.800
                            Spring k 4       0.0000000    eV*Ang^-4 
--------------------------------------------------------------------------------
Sr   c Sr   s Spring (c-s)  Spring k 2       71.700000    eV*Ang^-2 0.000  0.800
                            Spring k 4       0.0000000    eV*Ang^-4 
--------------------------------------------------------------------------------
Ba   c Ba   s Spring (c-s)  Spring k 2       495.20000    eV*Ang^-2 0.000  0.800
                            Spring k 4       0.0000000    eV*Ang^-4 
--------------------------------------------------------------------------------
Na   c Na   c Buckingham    Buckingham A     1788.1900    eV        0.000 12.000
                            Buckingham rho  0.15900000    Ang       
                            Buckingham C     0.0000000    eV*Ang^6  
--------------------------------------------------------------------------------
Na   c O    s Buckingham    Buckingham A     1226.8400    eV        0.000 12.000
                            Buckingham rho  0.30700000    Ang       
                            Buckingham C     0.0000000    eV*Ang^6  
--------------------------------------------------------------------------------
Na   c Cl   s Buckingham    Buckingham A     2314.7000    eV        0.000 12.000
                            Buckingham rho  0.29000000    Ang       
                            Buckingham C     0.0000000    eV*Ang^6  
--------------------------------------------------------------------------------
O    s O    s Buckingham    Buckingham A     22764.300    eV        0.000 12.000
                            Buckingham rho  0.14900000    Ang       
                            Buckingham C     13.190000    eV*Ang^6  
--------------------------------------------------------------------------------
O    s Cl   s Buckingham    Buckingham A     8286.9100    eV        0.000 12.000
                            Buckingham rho  0.25900000    Ang       
                            Buckingham C     62.200000    eV*Ang^6  
--------------------------------------------------------------------------------
Cl   s Cl   s Buckingham    Buckingham A     1227.2000    eV        0.000 12.000
                            Buckingham rho  0.32100000    Ang       
                            Buckingham C     14.530000    eV*Ang^6  
--------------------------------------------------------------------------------
O    s Mg   s Buckingham    Buckingham A     1428.5000    eV        0.000 12.000
                            Buckingham rho  0.29450000    Ang       
                            Buckingham C     0.0000000    eV*Ang^6  
--------------------------------------------------------------------------------
Mg   s Cl   s Buckingham    Buckingham A     4914.5400    eV        0.000 12.000
                            Buckingham rho  0.25700000    Ang       
                            Buckingham C     0.0000000    eV*Ang^6  
--------------------------------------------------------------------------------
O    s Ca   s Buckingham    Buckingham A     1090.4000    eV        0.000 12.000
                            Buckingham rho  0.34370000    Ang       
                            Buckingham C     0.0000000    eV*Ang^6  
--------------------------------------------------------------------------------
Cl   s Ca   s Buckingham    Buckingham A     2302.0000    eV        0.000 12.000
                            Buckingham rho  0.34020000    Ang       
                            Buckingham C     0.0000000    eV*Ang^6  
--------------------------------------------------------------------------------
O    s Sr   s Buckingham    Buckingham A     959.10000    eV        0.000 12.000
                            Buckingham rho  0.37210000    Ang       
                            Buckingham C     0.0000000    eV*Ang^6  
--------------------------------------------------------------------------------
Cl   s Sr   s Buckingham    Buckingham A     2191.0900    eV        0.000 12.000
                            Buckingham rho  0.34570000    Ang       
                            Buckingham C     0.0000000    eV*Ang^6  
--------------------------------------------------------------------------------
O    s Ba   s Buckingham    Buckingham A     905.70000    eV        0.000 12.000
                            Buckingham rho  0.39760000    Ang       
                            Buckingham C     0.0000000    eV*Ang^6  
--------------------------------------------------------------------------------
Cl   s Ba   s Buckingham    Buckingham A     2704.5500    eV        0.000 12.000
                            Buckingham rho  0.35280000    Ang       
                            Buckingham C     0.0000000    eV*Ang^6  
--------------------------------------------------------------------------------

********************************************************************************
*  Output for configuration   1                                                *
********************************************************************************


  Components of energy : 

--------------------------------------------------------------------------------
  Interatomic potentials     =           5.13022605 eV    
  Monopole - monopole (real) =         -10.03624526 eV    
  Monopole - monopole (recip)=         -29.53581274 eV    
  Monopole - monopole (total)=         -39.57205800 eV    
--------------------------------------------------------------------------------
  Total lattice energy       =         -34.44183194 eV    
--------------------------------------------------------------------------------
  Total lattice energy       =           -3323.1103 kJ/(mole unit cells)
--------------------------------------------------------------------------------


  Number of variables =        1

  Maximum number of calculations  =          1000
  Maximum Hessian update interval =            10
  Maximum step size               =   1.000000000
  Maximum parameter tolerance     =   0.000010000
  Maximum function  tolerance     =   0.000010000
  Maximum gradient  tolerance     =   0.001000000
  Maximum gradient  component     =   0.010000000

  Symmetry constrained optimisation

  Symmetry used for second derivatives

  Cell parameters to be optimised using strains

  Newton-Raphson optimiser to be used

  BFGS hessian update to be used

  Lower half triangular hessian to be used

  Start of bulk optimisation :

  Cycle:      0 Energy:       -34.441832  Gnorm:      0.196570  CPU:    0.017
  ** Hessian calculated **
  Cycle:      1 Energy:       -34.441914  Gnorm:      0.000103  CPU:    0.022


  **** Optimisation achieved ****


  Final energy =     -34.44191447 eV
  Final Gnorm  =       0.00000000

  Components of energy : 

--------------------------------------------------------------------------------
  Interatomic potentials     =           5.09689708 eV    
  Monopole - monopole (real) =         -10.02781331 eV    
  Monopole - monopole (recip)=         -29.51099824 eV    
  Monopole - monopole (total)=         -39.53881155 eV    
--------------------------------------------------------------------------------
  Total lattice energy       =         -34.44191447 eV    
--------------------------------------------------------------------------------
  Total lattice energy       =           -3323.1183 kJ/(mole unit cells)
--------------------------------------------------------------------------------

  Final asymmetric unit coordinates :

--------------------------------------------------------------------------------
   No.  Atomic        x           y           z         Radius
        Label       (Frac)      (Frac)      (Frac)       (Angs) 
--------------------------------------------------------------------------------
     1  Cl    c     0.000000    0.000000    0.000000    0.000000
     2  O     c     0.500000    0.500000    0.500000    0.000000
     3  Na    c     0.500000    0.500000    0.000000    0.000000
     4  Cl    s     0.000000    0.000000    0.000000    0.000000
     5  O     s     0.500000    0.500000    0.500000    0.000000
--------------------------------------------------------------------------------

  Final Cartesian lattice vectors (Angstroms) :

        4.507787    0.000000    0.000000
        0.000000    4.507787    0.000000
        0.000000    0.000000    4.507787


  Final cell parameters and derivatives :

--------------------------------------------------------------------------------
       a            4.507787 Angstrom     dE/de1(xx)     0.000000 eV/strain
       b            4.507787 Angstrom     dE/de2(yy)     0.000000 eV/strain
       c            4.507787 Angstrom     dE/de3(zz)     0.000000 eV/strain
       alpha       90.000000 Degrees      dE/de4(yz)     0.000000 eV/strain
       beta        90.000000 Degrees      dE/de5(xz)     0.000000 eV/strain
       gamma       90.000000 Degrees      dE/de6(xy)     0.000000 eV/strain
--------------------------------------------------------------------------------

  Primitive cell volume =            91.598892 Angs**3

  Density of cell =      2.183054 g/cm**3

  Non-primitive cell volume =            91.598892 Angs**3


  Final internal derivatives :

--------------------------------------------------------------------------------
   No.  Atomic          a             b             c           Radius
        Label          (eV)          (eV)          (eV)        (eV/Angs)
--------------------------------------------------------------------------------
      1 Cl    c       0.000000      0.000000      0.000000      0.000000
      2 O     c       0.000000      0.000000      0.000000      0.000000
      3 Na    c       0.000000      0.000000      0.000000      0.000000
      4 Cl    s       0.000000      0.000000      0.000000      0.000000
      5 O     s       0.000000      0.000000      0.000000      0.000000
--------------------------------------------------------------------------------
  Maximum abs         0.000000      0.000000      0.000000      0.000000
--------------------------------------------------------------------------------

  Comparison of initial and final structures : 

--------------------------------------------------------------------------------
  Parameter   Initial value   Final value   Difference    Units      Percent
--------------------------------------------------------------------------------
    Volume        91.368216     91.598892     0.230676    Angs**3      0.25
    a              4.504000      4.507787     0.003787    Angstroms    0.08
    b              4.504000      4.507787     0.003787    Angstroms    0.08
    c              4.504000      4.507787     0.003787    Angstroms    0.08
    alpha         90.000000     90.000000     0.000000    Degrees      0.00
    beta          90.000000     90.000000     0.000000    Degrees      0.00
    gamma         90.000000     90.000000     0.000000    Degrees      0.00
      1 x          0.000000      0.000000     0.000000    Fractional   0.00
      1 y          0.000000      0.000000     0.000000    Fractional   0.00
      1 z          0.000000      0.000000     0.000000    Fractional   0.00
      2 x          0.500000      0.500000     0.000000    Fractional   0.00
      2 y          0.500000      0.500000     0.000000    Fractional   0.00
      2 z          0.500000      0.500000     0.000000    Fractional   0.00
      3 x          0.500000      0.500000     0.000000    Fractional   0.00
      3 y          0.500000      0.500000     0.000000    Fractional   0.00
      3 z          0.000000      0.000000     0.000000    Fractional   0.00
      4 x          0.000000      0.000000     0.000000    Fractional   0.00
      4 y          0.000000      0.000000     0.000000    Fractional   0.00
      4 z          0.000000      0.000000     0.000000    Fractional   0.00
      5 x          0.500000      0.500000     0.000000    Fractional   0.00
      5 y          0.500000      0.500000     0.000000    Fractional   0.00
      5 z          0.500000      0.500000     0.000000    Fractional   0.00
--------------------------------------------------------------------------------


  Born effective charge tensors : 

-------------------------------------------------------------------------------
  Atom             x           y             z
-------------------------------------------------------------------------------
    1 Cl    x      -1.0181     -0.0000      0.0000
            y      -0.0000     -1.0181      0.0000
            z       0.0000      0.0000     -1.0181
-------------------------------------------------------------------------------
    2 O     x      -2.2647      0.0000     -0.0000
            y       0.0000     -2.2647     -0.0000
            z      -0.0000     -0.0000     -2.2647
-------------------------------------------------------------------------------
    3 Na    x       1.2258     -0.0000      0.0000
            y      -0.0000      1.2258     -0.0000
            z       0.0000     -0.0000      0.8313
-------------------------------------------------------------------------------




  Elastic Constant Matrix: (Units=GPa)

-------------------------------------------------------------------------------
  Indices      1         2         3         4         5         6    
-------------------------------------------------------------------------------
       1     95.8177   20.0737   20.0737   -0.0000   -0.0000    0.0000
       2     20.0737   95.8177   20.0737   -0.0000   -0.0000    0.0000
       3     20.0737   20.0737   95.8177   -0.0000   -0.0000    0.0000
       4     -0.0000   -0.0000   -0.0000   20.0737   -0.0000    0.0000
       5     -0.0000   -0.0000   -0.0000   -0.0000   20.0737    0.0000
       6      0.0000    0.0000    0.0000    0.0000    0.0000   20.0737
-------------------------------------------------------------------------------


  Elastic Compliance Matrix: (Units=1/GPa)

-------------------------------------------------------------------------------
  Indices      1         2         3         4         5         6    
-------------------------------------------------------------------------------
       1    0.011253 -0.001949 -0.001949  0.000000  0.000000 -0.000000
       2   -0.001949  0.011253 -0.001949  0.000000  0.000000  0.000000
       3   -0.001949 -0.001949  0.011253  0.000000  0.000000 -0.000000
       4    0.000000  0.000000  0.000000  0.049816  0.000000 -0.000000
       5    0.000000  0.000000  0.000000  0.000000  0.049816 -0.000000
       6   -0.000000  0.000000 -0.000000 -0.000000 -0.000000  0.049816
-------------------------------------------------------------------------------

  Mechanical properties :

-------------------------------------------------------------------------------
  Convention :                    Reuss         Voigt         Hill
-------------------------------------------------------------------------------
  Bulk  Modulus (GPa)     =      45.32174      45.32174      45.32174
  Shear Modulus (GPa)     =      24.72085      27.19304      25.95695
-------------------------------------------------------------------------------
  Velocity S-wave (km/s)  =       3.36511       3.52937       3.44822
  Velocity P-wave (km/s)  =       5.98827       6.11304       6.05098
-------------------------------------------------------------------------------
  Compressibility (1/GPa) =    0.02206447
-------------------------------------------------------------------------------
  Stress axis :                     x             y             z
-------------------------------------------------------------------------------
  Youngs Moduli (GPa)     =      88.86373      88.86373      88.86373
-------------------------------------------------------------------------------
  Poissons Ratio (x)      =                     0.17321       0.17321
  Poissons Ratio (y)      =       0.17321                     0.17321
  Poissons Ratio (z)      =       0.17321       0.17321
-------------------------------------------------------------------------------


  Piezoelectric Strain Matrix: (Units=C/m**2)

-------------------------------------------------------------------------------
  Indices      1         2         3         4         5         6    
-------------------------------------------------------------------------------
       x    -0.00000  -0.00000  -0.00000   0.00000  -0.00000  -0.00000
       y    -0.00000  -0.00000   0.00000  -0.00000   0.00000   0.00000
       z    -0.00000  -0.00000  -0.00000  -0.00000   0.00000   0.00000
-------------------------------------------------------------------------------


  Piezoelectric Stress Matrix: (Units=10**-11 C/N)

-------------------------------------------------------------------------------
  Indices      1         2         3         4         5         6    
-------------------------------------------------------------------------------
       x    -0.00000   0.00000   0.00000   0.00000  -0.00000  -0.00000
       y    -0.00000  -0.00000   0.00000  -0.00000   0.00000   0.00000
       z     0.00000   0.00000  -0.00000  -0.00000   0.00000   0.00000
-------------------------------------------------------------------------------


  Static dielectric constant tensor : 

-------------------------------------------------------------------------------
              x         y         z
-------------------------------------------------------------------------------
       x    22.84729   0.00000   0.00000
       y     0.00000  22.84729  -0.00000
       z     0.00000  -0.00000  22.84729
--------------------------------------------------------------------------------

  High frequency dielectric constant tensor : 

-------------------------------------------------------------------------------
              x         y         z
-------------------------------------------------------------------------------
       x     1.47557   0.00000  -0.00000
       y     0.00000   1.47557  -0.00000
       z    -0.00000  -0.00000   1.47557
-------------------------------------------------------------------------------

  Static refractive indices : 

-------------------------------------------------------------------------------
    1 =    4.77988      2 =    4.77988      3 =    4.77988
-------------------------------------------------------------------------------

  High frequency refractive indices : 

-------------------------------------------------------------------------------
    1 =    1.21473      2 =    1.21473      3 =    1.21473
-------------------------------------------------------------------------------


  Time to end of optimisation =       0.0326 seconds

********************************************************************************
*  Defect calculation for configuration   1 :                                  *
********************************************************************************

  Total number of defects =      3

  Total charge on defect  =  -1.00

  Defect centre is at   0.5000   0.2000   0.3000  Frac

  Region 1 radius =  12.0000      Number of ions =    549

  Number of symmetry inequivalent region 1 ions  =    318

  Region 2 radius =  16.0000      Number of ions =    784

  Number of symmetry inequivalent region 2a ions =    428

  Region 2a mode = 4 : screened electrostatics due to region 1 
                       neglect correction to region 1 forces from 2a
                       region 2a displacements based on defects only

  Region 2a ions will only interact with defects in region 1

  Vacancies:

--------------------------------------------------------------------------------
    Specification type     Symbol/Number         x          y          z
--------------------------------------------------------------------------------
    Fractional                               0.500000   0.500000   0.000000
    Fractional                               0.500000   0.000000   0.500000
--------------------------------------------------------------------------------

  Interstitials:

--------------------------------------------------------------------------------
    Specification type     Symbol/Number         x          y          z
--------------------------------------------------------------------------------
    Atom/Fractional         Na               0.500000   0.200000   0.300000
--------------------------------------------------------------------------------


  Symmetry reduced region 1 (Relative to defect centre) :

--------------------------------------------------------------------------------
   No.   Atomic       x            y             z       Radius  Multiplicity   
         Label      (Angs)       (Angs)        (Angs)    (Angs)     
--------------------------------------------------------------------------------
     1  Na    c      0.0000       0.0000       0.0000    0.0000     1    Defect
     2  O     c      0.0000       1.3523 *     0.9016 *  0.0000     1          
     3  Na    c      2.2539 *     1.3523 *     0.9016 *  0.0000     2          
     4  Cl    c      2.2539 *    -0.9016 *    -1.3523 *  0.0000     2          
     5  O     c      0.0000      -3.1555 *     0.9016 *  0.0000     1          
     6  Na    c      0.0000       1.3523 *     3.1555 *  0.0000     1          
     7  Na    c      0.0000      -3.1555 *    -1.3523 *  0.0000     1          
     8  Na    c      0.0000       3.6062 *     0.9016 *  0.0000     1          
     9  Na    c      0.0000      -0.9016 *    -3.6062 *  0.0000     1          
    10  O     c      0.0000       1.3523 *    -3.6062 *  0.0000     1          
    11  Cl    c      2.2539 *    -0.9016 *     3.1555 *  0.0000     2          
    12  Na    c      2.2539 *    -3.1555 *     0.9016 *  0.0000     2          
    13  Cl    c      2.2539 *     3.6062 *    -1.3523 *  0.0000     2          
    14  Na    c      0.0000      -3.1555 *     3.1555 *  0.0000     1          
    15  Na    c      2.2539 *     1.3523 *    -3.6062 *  0.0000     2          
    16  Na    c     -4.5078 *    -0.9016 *     0.9016 *  0.0000     2          
    17  O     c     -4.5078 *     1.3523 *     0.9016 *  0.0000     2          
    18  O     c      0.0000      -3.1555 *    -3.6062 *  0.0000     1          
    19  Na    c     -4.5078 *     1.3523 *    -1.3523 *  0.0000     2          
    20  Na    c      0.0000       3.6062 *    -3.6062 *  0.0000     1          
    21  Cl    c      2.2539 *     3.6062 *     3.1555 *  0.0000     2          
    22  Na    c      2.2539 *    -3.1555 *    -3.6062 *  0.0000     2          
    23  Na    c      0.0000      -0.9016 *     5.4093 *  0.0000     1          
    24  Na    c      0.0000      -5.4093 *     0.9016 *  0.0000     1          
    25  O     c      0.0000       1.3523 *     5.4093 *  0.0000     1          
    26  O     c     -4.5078 *    -3.1555 *     0.9016 *  0.0000     2          
    27  Na    c     -4.5078 *     1.3523 *     3.1555 *  0.0000     2          
    28  Na    c     -4.5078 *    -3.1555 *    -1.3523 *  0.0000     2          
    29  Na    c     -4.5078 *    -0.9016 *    -3.6062 *  0.0000     2          
    30  Na    c     -4.5078 *     3.6062 *     0.9016 *  0.0000     2          
    31  O     c      0.0000       5.8601 *     0.9016 *  0.0000     1          
    32  O     c     -4.5078 *     1.3523 *    -3.6062 *  0.0000     2          
    33  Na    c      2.2539 *     1.3523 *     5.4093 *  0.0000     2          
    34  Cl    c      2.2539 *    -5.4093 *    -1.3523 *  0.0000     2          
    35  Na    c      0.0000       1.3523 *    -5.8601 *  0.0000     1          
    36  Na    c      0.0000       5.8601 *    -1.3523 *  0.0000     1          
    37  O     c      0.0000      -3.1555 *     5.4093 *  0.0000     1          
    38  Cl    c      2.2539 *    -0.9016 *    -5.8601 *  0.0000     2          
    39  Na    c     -4.5078 *    -3.1555 *     3.1555 *  0.0000     2          
    40  Na    c      2.2539 *     5.8601 *     0.9016 *  0.0000     2          
    41  Na    c      0.0000       3.6062 *     5.4093 *  0.0000     1          
    42  Na    c      0.0000      -5.4093 *    -3.6062 *  0.0000     1          
    43  O     c     -4.5078 *    -3.1555 *    -3.6062 *  0.0000     2          
    44  Cl    c      2.2539 *    -5.4093 *     3.1555 *  0.0000     2          
    45  Na    c      0.0000       5.8601 *     3.1555 *  0.0000     1          
    46  Na    c      2.2539 *    -3.1555 *     5.4093 *  0.0000     2          
    47  Na    c      0.0000      -3.1555 *    -5.8601 *  0.0000     1          
    48  Na    c     -4.5078 *     3.6062 *    -3.6062 *  0.0000     2          
    49  O     c      0.0000       5.8601 *    -3.6062 *  0.0000     1          
    50  Cl    c      6.7617 *    -0.9016 *    -1.3523 *  0.0000     2          
    51  Na    c      6.7617 *     1.3523 *     0.9016 *  0.0000     2          
    52  Na    c      4.5078 *    -0.9016 *     5.4093 *  0.0000     2          
    53  Na    c     -4.5078 *    -5.4093 *     0.9016 *  0.0000     2          
    54  O     c     -4.5078 *     1.3523 *     5.4093 *  0.0000     2          
    55  Cl    c      2.2539 *     3.6062 *    -5.8601 *  0.0000     2          
    56  Na    c      2.2539 *     5.8601 *    -3.6062 *  0.0000     2          
    57  O     c     -4.5078 *     5.8601 *     0.9016 *  0.0000     2          
    58  Na    c     -4.5078 *     5.8601 *    -1.3523 *  0.0000     2          
    59  Cl    c      6.7617 *    -0.9016 *     3.1555 *  0.0000     2          
    60  Na    c      4.5078 *     1.3523 *    -5.8601 *  0.0000     2          
    61  Na    c      6.7617 *    -3.1555 *     0.9016 *  0.0000     2          
    62  Na    c      0.0000      -5.4093 *     5.4093 *  0.0000     1          
    63  O     c     -4.5078 *    -3.1555 *     5.4093 *  0.0000     2          
    64  O     c      0.0000      -7.6632 *     0.9016 *  0.0000     1          
    65  Na    c      0.0000       1.3523 *     7.6632 *  0.0000     1          
    66  Cl    c      6.7617 *     3.6062 *    -1.3523 *  0.0000     2          
    67  Na    c      0.0000      -7.6632 *    -1.3523 *  0.0000     1          
    68  Na    c      6.7617 *     1.3523 *    -3.6062 *  0.0000     2          
    69  Na    c     -4.5078 *     3.6062 *     5.4093 *  0.0000     2          
    70  Na    c     -4.5078 *    -5.4093 *    -3.6062 *  0.0000     2          
    71  O     c      0.0000       5.8601 *     5.4093 *  0.0000     1          
    72  Cl    c      2.2539 *    -0.9016 *     7.6632 *  0.0000     2          
    73  Na    c     -4.5078 *     5.8601 *     3.1555 *  0.0000     2          
    74  Na    c      4.5078 *    -3.1555 *    -5.8601 *  0.0000     2          
    75  Na    c      2.2539 *    -7.6632 *     0.9016 *  0.0000     2          
    76  Na    c      0.0000      -0.9016 *    -8.1140 *  0.0000     1          
    77  Na    c      0.0000       8.1140 *     0.9016 *  0.0000     1          
    78  O     c      0.0000       1.3523 *    -8.1140 *  0.0000     1          
    79  O     c     -4.5078 *     5.8601 *    -3.6062 *  0.0000     2          
    80  Cl    c      2.2539 *    -5.4093 *    -5.8601 *  0.0000     2          
    81  Cl    c      6.7617 *     3.6062 *     3.1555 *  0.0000     2          
    82  Na    c      0.0000       5.8601 *    -5.8601 *  0.0000     1          
    83  Na    c      0.0000      -3.1555 *     7.6632 *  0.0000     1          
    84  Na    c      2.2539 *     5.8601 *     5.4093 *  0.0000     2          
    85  Na    c      0.0000      -7.6632 *     3.1555 *  0.0000     1          
    86  Na    c      6.7617 *    -3.1555 *    -3.6062 *  0.0000     2          
    87  O     c      0.0000      -7.6632 *    -3.6062 *  0.0000     1          
    88  Na    c      2.2539 *     1.3523 *    -8.1140 *  0.0000     2          
    89  Cl    c      2.2539 *     8.1140 *    -1.3523 *  0.0000     2          
    90  O     c      0.0000      -3.1555 *    -8.1140 *  0.0000     1          
    91  Cl    c      2.2539 *     3.6062 *     7.6632 *  0.0000     2          
    92  Na    c      6.7617 *     1.3523 *     5.4093 *  0.0000     2          
    93  Cl    c      6.7617 *    -5.4093 *    -1.3523 *  0.0000     2          
    94  Na    c      2.2539 *    -7.6632 *    -3.6062 *  0.0000     2          
    95  Na    c      0.0000       3.6062 *    -8.1140 *  0.0000     1          
    96  Na    c      0.0000       8.1140 *    -3.6062 *  0.0000     1          
    97  Na    c      4.5078 *    -5.4093 *     5.4093 *  0.0000     2          
    98  O     c      4.5078 *    -7.6632 *     0.9016 *  0.0000     2          
    99  Cl    c      2.2539 *     8.1140 *     3.1555 *  0.0000     2          
   100  Na    c     -4.5078 *     1.3523 *     7.6632 *  0.0000     2          
   101  Cl    c      6.7617 *    -0.9016 *    -5.8601 *  0.0000     2          
   102  Na    c      2.2539 *    -3.1555 *    -8.1140 *  0.0000     2          
   103  Na    c      6.7617 *     5.8601 *     0.9016 *  0.0000     2          
   104  Na    c      4.5078 *    -7.6632 *    -1.3523 *  0.0000     2          
   105  Na    c      9.0156 *    -0.9016 *     0.9016 *  0.0000     2          
   106  O     c      4.5078 *     5.8601 *     5.4093 *  0.0000     2          
   107  O     c      9.0156 *     1.3523 *     0.9016 *  0.0000     2          
   108  Cl    c      6.7617 *    -5.4093 *     3.1555 *  0.0000     2          
   109  Na    c      9.0156 *     1.3523 *    -1.3523 *  0.0000     2          
   110  Na    c      6.7617 *    -3.1555 *     5.4093 *  0.0000     2          
   111  Na    c     -4.5078 *    -0.9016 *    -8.1140 *  0.0000     2          
   112  Na    c     -4.5078 *     8.1140 *     0.9016 *  0.0000     2          
   113  O     c      0.0000      -7.6632 *     5.4093 *  0.0000     1          
   114  O     c      4.5078 *     1.3523 *    -8.1140 *  0.0000     2          
   115  Na    c     -4.5078 *     5.8601 *    -5.8601 *  0.0000     2          
   116  Na    c     -4.5078 *    -3.1555 *     7.6632 *  0.0000     2          
   117  Na    c      4.5078 *    -7.6632 *     3.1555 *  0.0000     2          
   118  O     c      9.0156 *    -3.1555 *     0.9016 *  0.0000     2          
   119  O     c      4.5078 *    -7.6632 *    -3.6062 *  0.0000     2          
   120  Cl    c      2.2539 *    -5.4093 *     7.6632 *  0.0000     2          
   121  Na    c      0.0000       5.8601 *     7.6632 *  0.0000     1          
   122  Na    c      9.0156 *     1.3523 *     3.1555 *  0.0000     2          
   123  Cl    c      6.7617 *     3.6062 *    -5.8601 *  0.0000     2          
   124  Na    c      9.0156 *    -3.1555 *    -1.3523 *  0.0000     2          
   125  Na    c      2.2539 *    -7.6632 *     5.4093 *  0.0000     2          
   126  Na    c      6.7617 *     5.8601 *    -3.6062 *  0.0000     2          
   127  Na    c      0.0000      -7.6632 *    -5.8601 *  0.0000     1          
   128  Na    c      0.0000       8.1140 *     5.4093 *  0.0000     1          
   129  Na    c      0.0000      -5.4093 *    -8.1140 *  0.0000     1          
   130  Na    c      9.0156 *    -0.9016 *    -3.6062 *  0.0000     2          
   131  Na    c      9.0156 *     3.6062 *     0.9016 *  0.0000     2          
   132  O     c      9.0156 *     1.3523 *    -3.6062 *  0.0000     2          
   133  O     c      4.5078 *    -3.1555 *    -8.1140 *  0.0000     2          
   134  Na    c     -4.5078 *     3.6062 *    -8.1140 *  0.0000     2          
   135  Na    c     -4.5078 *     8.1140 *    -3.6062 *  0.0000     2          
   136  Na    c      0.0000      -0.9016 *     9.9171 *  0.0000     1          
   137  Na    c      0.0000      -9.9171 *     0.9016 *  0.0000     1          
   138  O     c      0.0000       1.3523 *     9.9171 *  0.0000     1          
   139  O     c      0.0000       5.8601 *    -8.1140 *  0.0000     1          
   140  Na    c      9.0156 *    -3.1555 *     3.1555 *  0.0000     2          
   141  O     c      9.0156 *    -3.1555 *    -3.6062 *  0.0000     2          
   142  Cl    c      2.2539 *     8.1140 *    -5.8601 *  0.0000     2          
   143  Cl    c      6.7617 *    -0.9016 *     7.6632 *  0.0000     2          
   144  Na    c      2.2539 *     1.3523 *     9.9171 *  0.0000     2          
   145  Na    c      2.2539 *     5.8601 *    -8.1140 *  0.0000     2          
   146  Cl    c      2.2539 *    -9.9171 *    -1.3523 *  0.0000     2          
   147  Na    c      6.7617 *    -7.6632 *     0.9016 *  0.0000     2          
   148  Na    c      9.0156 *     3.6062 *    -3.6062 *  0.0000     2          
   149  O     c      0.0000      -3.1555 *     9.9171 *  0.0000     1          
   150  O     c      4.5078 *    -7.6632 *     5.4093 *  0.0000     2          
   151  O     c      0.0000      10.3679 *     0.9016 *  0.0000     1          
   152  Na    c      6.7617 *     5.8601 *     5.4093 *  0.0000     2          
   153  Cl    c      6.7617 *    -5.4093 *    -5.8601 *  0.0000     2          
   154  Na    c      0.0000       1.3523 *   -10.3679 *  0.0000     1          
   155  Na    c      0.0000      10.3679 *    -1.3523 *  0.0000     1          
   156  Na    c      0.0000       3.6062 *     9.9171 *  0.0000     1          
   157  Na    c      0.0000      -9.9171 *    -3.6062 *  0.0000     1          
   158  Na    c      9.0156 *    -0.9016 *     5.4093 *  0.0000     2          
   159  Na    c      9.0156 *    -5.4093 *     0.9016 *  0.0000     2          
   160  O     c      9.0156 *     1.3523 *     5.4093 *  0.0000     2          
   161  Na    c     -4.5078 *     5.8601 *     7.6632 *  0.0000     2          
   162  Cl    c      2.2539 *    -9.9171 *     3.1555 *  0.0000     2          
   163  Cl    c      6.7617 *     8.1140 *    -1.3523 *  0.0000     2          
   164  Na    c      4.5078 *    -7.6632 *    -5.8601 *  0.0000     2          
   165  Na    c      2.2539 *    -3.1555 *     9.9171 *  0.0000     2          
   166  Na    c      6.7617 *     1.3523 *    -8.1140 *  0.0000     2          
   167  Cl    c      2.2539 *    -0.9016 *   -10.3679 *  0.0000     2          
   168  Na    c      2.2539 *    10.3679 *     0.9016 *  0.0000     2          
   169  Na    c      4.5078 *     8.1140 *     5.4093 *  0.0000     2          
   170  Na    c     -4.5078 *    -5.4093 *    -8.1140 *  0.0000     2          
   171  O     c      9.0156 *     5.8601 *     0.9016 *  0.0000     2          
   172  Na    c      9.0156 *     1.3523 *    -5.8601 *  0.0000     2          
   173  Cl    c      6.7617 *     3.6062 *     7.6632 *  0.0000     2          
   174  Na    c      0.0000      -7.6632 *     7.6632 *  0.0000     1          
   175  Na    c      9.0156 *     5.8601 *    -1.3523 *  0.0000     2          
   176  Na    c      6.7617 *    -7.6632 *    -3.6062 *  0.0000     2          
   177  Na    c      0.0000      10.3679 *     3.1555 *  0.0000     1          
   178  Na    c      0.0000      -3.1555 *   -10.3679 *  0.0000     1          
   179  Na    c     -4.5078 *    -0.9016 *     9.9171 *  0.0000     2          
   180  Na    c     -4.5078 *    -9.9171 *     0.9016 *  0.0000     2          
   181  O     c      9.0156 *    -3.1555 *     5.4093 *  0.0000     2          
   182  O     c     -4.5078 *     5.8601 *    -8.1140 *  0.0000     2          
   183  O     c      4.5078 *     1.3523 *     9.9171 *  0.0000     2          
   184  O     c      0.0000      10.3679 *    -3.6062 *  0.0000     1          
   185  Cl    c      6.7617 *     8.1140 *     3.1555 *  0.0000     2          
   186  Na    c      6.7617 *    -3.1555 *    -8.1140 *  0.0000     2          
   187  Na    c      9.0156 *     3.6062 *     5.4093 *  0.0000     2          
   188  Na    c      9.0156 *    -5.4093 *    -3.6062 *  0.0000     2          
   189  O     c      0.0000      -7.6632 *    -8.1140 *  0.0000     1          
   190  Na    c      9.0156 *     5.8601 *     3.1555 *  0.0000     2          
   191  Na    c      9.0156 *    -3.1555 *    -5.8601 *  0.0000     2          
   192  Cl    c      2.2539 *     3.6062 *   -10.3679 *  0.0000     2          
   193  Na    c      2.2539 *    10.3679 *    -3.6062 *  0.0000     2          
   194  Na    c      0.0000      -5.4093 *     9.9171 *  0.0000     1          
   195  Na    c      0.0000      -9.9171 *     5.4093 *  0.0000     1          
   196  O     c      4.5078 *    -3.1555 *     9.9171 *  0.0000     2          
   197  O     c      9.0156 *     5.8601 *    -3.6062 *  0.0000     2          
   198  O     c     -4.5078 *    10.3679 *     0.9016 *  0.0000     2          
   199  Na    c     11.2695 *     1.3523 *     0.9016 *  0.0000     2          
   200  Cl    c      2.2539 *     8.1140 *     7.6632 *  0.0000     2          
   201  Cl    c     11.2695 *    -0.9016 *    -1.3523 *  0.0000     2          
   202  Na    c     -4.5078 *     1.3523 *   -10.3679 *  0.0000     2          
   203  Na    c     -4.5078 *    10.3679 *    -1.3523 *  0.0000     2          
   204  Na    c      2.2539 *    -7.6632 *    -8.1140 *  0.0000     2          
   205  Na    c      0.0000       8.1140 *    -8.1140 *  0.0000     1          
   206  Na    c      4.5078 *     3.6062 *     9.9171 *  0.0000     2          
   207  Na    c     -4.5078 *    -9.9171 *    -3.6062 *  0.0000     2          
   208  O     c      0.0000       5.8601 *     9.9171 *  0.0000     1          
   209  Cl    c      6.7617 *    -5.4093 *     7.6632 *  0.0000     2          
   210  Na    c      6.7617 *    -7.6632 *     5.4093 *  0.0000     2          
   211  O     c      0.0000      10.3679 *     5.4093 *  0.0000     1          
   212  Cl    c     11.2695 *    -0.9016 *     3.1555 *  0.0000     2          
   213  Na    c     11.2695 *    -3.1555 *     0.9016 *  0.0000     2          
   214  Cl    c      2.2539 *    -9.9171 *    -5.8601 *  0.0000     2          
   215  Na    c      4.5078 *    -7.6632 *     7.6632 *  0.0000     2          
   216  Na    c      2.2539 *     5.8601 *     9.9171 *  0.0000     2          
   217  Na    c      4.5078 *    10.3679 *     3.1555 *  0.0000     2          
   218  Na    c      4.5078 *    -3.1555 *   -10.3679 *  0.0000     2          
   219  Na    c      9.0156 *    -5.4093 *     5.4093 *  0.0000     2          
   220  O     c      9.0156 *    -7.6632 *     0.9016 *  0.0000     2          
   221  O     c     -4.5078 *    10.3679 *    -3.6062 *  0.0000     2          
   222  Cl    c     11.2695 *     3.6062 *    -1.3523 *  0.0000     2          
   223  Na    c     11.2695 *     1.3523 *    -3.6062 *  0.0000     2          
   224  Na    c      9.0156 *     1.3523 *     7.6632 *  0.0000     2          
   225  Na    c      9.0156 *    -7.6632 *    -1.3523 *  0.0000     2          
   226  Cl    c      2.2539 *    -5.4093 *   -10.3679 *  0.0000     2          
   227  Na    c      0.0000       5.8601 *   -10.3679 *  0.0000     1          
   228  Na    c      0.0000      10.3679 *    -5.8601 *  0.0000     1          
   229  Na    c      2.2539 *    10.3679 *     5.4093 *  0.0000     2          
   230  O     s      0.0000       1.3523 *     0.9016 *  0.0000     1          
   231  Cl    s      2.2539 *    -0.9016 *    -1.3523 *  0.0000     2          
   232  O     s      0.0000      -3.1555 *     0.9016 *  0.0000     1          
   233  O     s      0.0000       1.3523 *    -3.6062 *  0.0000     1          
   234  Cl    s      2.2539 *    -0.9016 *     3.1555 *  0.0000     2          
   235  Cl    s      2.2539 *     3.6062 *    -1.3523 *  0.0000     2          
   236  O     s     -4.5078 *     1.3523 *     0.9016 *  0.0000     2          
   237  O     s      0.0000      -3.1555 *    -3.6062 *  0.0000     1          
   238  Cl    s      2.2539 *     3.6062 *     3.1555 *  0.0000     2          
   239  O     s      0.0000       1.3523 *     5.4093 *  0.0000     1          
   240  O     s     -4.5078 *    -3.1555 *     0.9016 *  0.0000     2          
   241  O     s      0.0000       5.8601 *     0.9016 *  0.0000     1          
   242  O     s     -4.5078 *     1.3523 *    -3.6062 *  0.0000     2          
   243  Cl    s      2.2539 *    -5.4093 *    -1.3523 *  0.0000     2          
   244  O     s      0.0000      -3.1555 *     5.4093 *  0.0000     1          
   245  Cl    s      2.2539 *    -0.9016 *    -5.8601 *  0.0000     2          
   246  O     s     -4.5078 *    -3.1555 *    -3.6062 *  0.0000     2          
   247  Cl    s      2.2539 *    -5.4093 *     3.1555 *  0.0000     2          
   248  O     s      0.0000       5.8601 *    -3.6062 *  0.0000     1          
   249  Cl    s      6.7617 *    -0.9016 *    -1.3523 *  0.0000     2          
   250  O     s     -4.5078 *     1.3523 *     5.4093 *  0.0000     2          
   251  Cl    s      2.2539 *     3.6062 *    -5.8601 *  0.0000     2          
   252  O     s     -4.5078 *     5.8601 *     0.9016 *  0.0000     2          
   253  Cl    s      6.7617 *    -0.9016 *     3.1555 *  0.0000     2          
   254  O     s     -4.5078 *    -3.1555 *     5.4093 *  0.0000     2          
   255  O     s      0.0000      -7.6632 *     0.9016 *  0.0000     1          
   256  Cl    s      6.7617 *     3.6062 *    -1.3523 *  0.0000     2          
   257  O     s      0.0000       5.8601 *     5.4093 *  0.0000     1          
   258  Cl    s      2.2539 *    -0.9016 *     7.6632 *  0.0000     2          
   259  O     s      0.0000       1.3523 *    -8.1140 *  0.0000     1          
   260  O     s     -4.5078 *     5.8601 *    -3.6062 *  0.0000     2          
   261  Cl    s      2.2539 *    -5.4093 *    -5.8601 *  0.0000     2          
   262  Cl    s      6.7617 *     3.6062 *     3.1555 *  0.0000     2          
   263  O     s      0.0000      -7.6632 *    -3.6062 *  0.0000     1          
   264  Cl    s      2.2539 *     8.1140 *    -1.3523 *  0.0000     2          
   265  O     s      0.0000      -3.1555 *    -8.1140 *  0.0000     1          
   266  Cl    s      2.2539 *     3.6062 *     7.6632 *  0.0000     2          
   267  Cl    s      6.7617 *    -5.4093 *    -1.3523 *  0.0000     2          
   268  O     s      4.5078 *    -7.6632 *     0.9016 *  0.0000     2          
   269  Cl    s      2.2539 *     8.1140 *     3.1555 *  0.0000     2          
   270  Cl    s      6.7617 *    -0.9016 *    -5.8601 *  0.0000     2          
   271  O     s      4.5078 *     5.8601 *     5.4093 *  0.0000     2          
   272  O     s      9.0156 *     1.3523 *     0.9016 *  0.0000     2          
   273  Cl    s      6.7617 *    -5.4093 *     3.1555 *  0.0000     2          
   274  O     s      0.0000      -7.6632 *     5.4093 *  0.0000     1          
   275  O     s      4.5078 *     1.3523 *    -8.1140 *  0.0000     2          
   276  O     s      9.0156 *    -3.1555 *     0.9016 *  0.0000     2          
   277  O     s      4.5078 *    -7.6632 *    -3.6062 *  0.0000     2          
   278  Cl    s      2.2539 *    -5.4093 *     7.6632 *  0.0000     2          
   279  Cl    s      6.7617 *     3.6062 *    -5.8601 *  0.0000     2          
   280  O     s      9.0156 *     1.3523 *    -3.6062 *  0.0000     2          
   281  O     s      4.5078 *    -3.1555 *    -8.1140 *  0.0000     2          
   282  O     s      0.0000       1.3523 *     9.9171 *  0.0000     1          
   283  O     s      0.0000       5.8601 *    -8.1140 *  0.0000     1          
   284  O     s      9.0156 *    -3.1555 *    -3.6062 *  0.0000     2          
   285  Cl    s      2.2539 *     8.1140 *    -5.8601 *  0.0000     2          
   286  Cl    s      6.7617 *    -0.9016 *     7.6632 *  0.0000     2          
   287  Cl    s      2.2539 *    -9.9171 *    -1.3523 *  0.0000     2          
   288  O     s      0.0000      -3.1555 *     9.9171 *  0.0000     1          
   289  O     s      4.5078 *    -7.6632 *     5.4093 *  0.0000     2          
   290  O     s      0.0000      10.3679 *     0.9016 *  0.0000     1          
   291  Cl    s      6.7617 *    -5.4093 *    -5.8601 *  0.0000     2          
   292  O     s      9.0156 *     1.3523 *     5.4093 *  0.0000     2          
   293  Cl    s      2.2539 *    -9.9171 *     3.1555 *  0.0000     2          
   294  Cl    s      6.7617 *     8.1140 *    -1.3523 *  0.0000     2          
   295  Cl    s      2.2539 *    -0.9016 *   -10.3679 *  0.0000     2          
   296  O     s      9.0156 *     5.8601 *     0.9016 *  0.0000     2          
   297  Cl    s      6.7617 *     3.6062 *     7.6632 *  0.0000     2          
   298  O     s      9.0156 *    -3.1555 *     5.4093 *  0.0000     2          
   299  O     s     -4.5078 *     5.8601 *    -8.1140 *  0.0000     2          
   300  O     s      4.5078 *     1.3523 *     9.9171 *  0.0000     2          
   301  O     s      0.0000      10.3679 *    -3.6062 *  0.0000     1          
   302  Cl    s      6.7617 *     8.1140 *     3.1555 *  0.0000     2          
   303  O     s      0.0000      -7.6632 *    -8.1140 *  0.0000     1          
   304  Cl    s      2.2539 *     3.6062 *   -10.3679 *  0.0000     2          
   305  O     s      4.5078 *    -3.1555 *     9.9171 *  0.0000     2          
   306  O     s      9.0156 *     5.8601 *    -3.6062 *  0.0000     2          
   307  O     s     -4.5078 *    10.3679 *     0.9016 *  0.0000     2          
   308  Cl    s      2.2539 *     8.1140 *     7.6632 *  0.0000     2          
   309  Cl    s     11.2695 *    -0.9016 *    -1.3523 *  0.0000     2          
   310  O     s      0.0000       5.8601 *     9.9171 *  0.0000     1          
   311  Cl    s      6.7617 *    -5.4093 *     7.6632 *  0.0000     2          
   312  O     s      0.0000      10.3679 *     5.4093 *  0.0000     1          
   313  Cl    s     11.2695 *    -0.9016 *     3.1555 *  0.0000     2          
   314  Cl    s      2.2539 *    -9.9171 *    -5.8601 *  0.0000     2          
   315  O     s      9.0156 *    -7.6632 *     0.9016 *  0.0000     2          
   316  O     s     -4.5078 *    10.3679 *    -3.6062 *  0.0000     2          
   317  Cl    s     11.2695 *     3.6062 *    -1.3523 *  0.0000     2          
   318  Cl    s      2.2539 *    -5.4093 *   -10.3679 *  0.0000     2          
--------------------------------------------------------------------------------

  Components of defect energy : 

--------------------------------------------------------------------------------
  Region 1 - region 1                   =      5.89990078 eV
  Region 1 - region 2a (unrelaxed)      =      4.46814061 eV
  Region 1 - 2a (relaxed - correction)  =     -0.29518499 eV
  Region 1 (Total)                      =     10.07285640 eV
  Region 2a                             =      0.14751302 eV
  Region 2b                             =     -0.42905016 eV
--------------------------------------------------------------------------------
  Total defect energy                   =      9.79131926 eV
--------------------------------------------------------------------------------

  Largest displacement in region 2 =   0.0238 Angstroms


  Number of variables =      865

  Maximum number of calculations  =        1000
  Maximum Hessian update interval =          10
  Maximum step size               =   1.0000000
  Maximum parameter tolerance     =   0.0000100
  Maximum function  tolerance     =   0.0000100
  Maximum gradient  tolerance     =   0.0010000

  Symmetry adapted optimisation

  Symmetry to be used for second derivatives

  Newton-Raphson optimiser to be used

  BFGS hessian update to be used

  Lower half triangular hessian to be used

  Start of defect optimisation :

  Cycle:      0 Defect Energy:   9.791319  Gnorm:     0.022837  CPU:    3.167
  ** Hessian calculated **
  Cycle:      1 Defect Energy:   8.258764  Gnorm:     0.012751  CPU:    8.223
  Cycle:      2 Defect Energy:   7.729177  Gnorm:     0.011653  CPU:   12.651
  Cycle:      3 Defect Energy:   7.495467  Gnorm:     0.009683  CPU:   16.087
  Cycle:      4 Defect Energy:   7.103906  Gnorm:     0.009992  CPU:   20.969
  Cycle:      5 Defect Energy:   6.713712  Gnorm:     0.007159  CPU:   28.595
  Cycle:      6 Defect Energy:   6.319440  Gnorm:     0.006986  CPU:   32.550
  Cycle:      7 Defect Energy:   5.909206  Gnorm:     0.008007  CPU:   37.314
  Cycle:      8 Defect Energy:   5.646636  Gnorm:     0.004058  CPU:   41.029
  Cycle:      9 Defect Energy:   5.568325  Gnorm:     0.003390  CPU:   42.025
  Cycle:     10 Defect Energy:   5.483782  Gnorm:     0.002713  CPU:   42.992
  ** Hessian calculated **
  Cycle:     11 Defect Energy:   5.385225  Gnorm:     0.002399  CPU:   45.580
  Cycle:     12 Defect Energy:   5.274879  Gnorm:     0.001996  CPU:   46.523
  Cycle:     13 Defect Energy:   5.231145  Gnorm:     0.001801  CPU:   47.489
  ** Hessian calculated **
  Cycle:     14 Defect Energy:   5.159425  Gnorm:     0.001521  CPU:   50.090
  Cycle:     15 Defect Energy:   5.098272  Gnorm:     0.001122  CPU:   50.989
  Cycle:     16 Defect Energy:   5.051707  Gnorm:     0.000738  CPU:   51.883
  Cycle:     17 Defect Energy:   5.027379  Gnorm:     0.000526  CPU:   52.801
  ** Hessian calculated **
  Cycle:     18 Defect Energy:   5.026192  Gnorm:     0.000426  CPU:   54.837
  Cycle:     19 Defect Energy:   5.025281  Gnorm:     0.000396  CPU:   59.148
  Cycle:     20 Defect Energy:   5.024339  Gnorm:     0.000383  CPU:   60.368
  Cycle:     21 Defect Energy:   5.023519  Gnorm:     0.000374  CPU:   61.491
  Cycle:     22 Defect Energy:   5.022861  Gnorm:     0.000368  CPU:   62.637
  Cycle:     23 Defect Energy:   5.022339  Gnorm:     0.000363  CPU:   63.775
  Cycle:     24 Defect Energy:   5.021789  Gnorm:     0.000357  CPU:   65.021
  Cycle:     25 Defect Energy:   5.021283  Gnorm:     0.000348  CPU:   66.115
  Cycle:     26 Defect Energy:   5.020703  Gnorm:     0.000338  CPU:   67.193
  Cycle:     27 Defect Energy:   5.020057  Gnorm:     0.000328  CPU:   68.267
  ** Hessian calculated **
  Cycle:     28 Defect Energy:   5.019848  Gnorm:     0.000321  CPU:   71.152
  Cycle:     29 Defect Energy:   5.019574  Gnorm:     0.000317  CPU:   72.181
  Cycle:     30 Defect Energy:   5.019185  Gnorm:     0.000312  CPU:   73.227
  Cycle:     31 Defect Energy:   5.018671  Gnorm:     0.000306  CPU:   74.253
  Cycle:     32 Defect Energy:   5.018011  Gnorm:     0.000299  CPU:   75.342
  Cycle:     33 Defect Energy:   5.017442  Gnorm:     0.000293  CPU:   76.296
  Cycle:     34 Defect Energy:   5.016985  Gnorm:     0.000290  CPU:   77.286
  Cycle:     35 Defect Energy:   5.016424  Gnorm:     0.000283  CPU:   78.267
  Cycle:     36 Defect Energy:   5.015867  Gnorm:     0.000279  CPU:   79.315
  Cycle:     37 Defect Energy:   5.014979  Gnorm:     0.000276  CPU:   80.254
  ** Hessian calculated **
  Cycle:     38 Defect Energy:   5.014745  Gnorm:     0.000268  CPU:   82.697
  Cycle:     39 Defect Energy:   5.014378  Gnorm:     0.000265  CPU:   83.645
  Cycle:     40 Defect Energy:   5.013929  Gnorm:     0.000260  CPU:   84.449
  Cycle:     41 Defect Energy:   5.013262  Gnorm:     0.000255  CPU:   85.303
  Cycle:     42 Defect Energy:   5.012555  Gnorm:     0.000254  CPU:   86.220
  Cycle:     43 Defect Energy:   5.011797  Gnorm:     0.000257  CPU:   87.134
  Cycle:     44 Defect Energy:   5.011085  Gnorm:     0.000269  CPU:   88.049
  Cycle:     45 Defect Energy:   5.010111  Gnorm:     0.000280  CPU:   89.034
  Cycle:     46 Defect Energy:   5.008580  Gnorm:     0.000318  CPU:   91.661
  Cycle:     47 Defect Energy:   5.006080  Gnorm:     0.000386  CPU:   94.678
  ** Hessian calculated **
  Cycle:     48 Defect Energy:   5.004545  Gnorm:     0.000365  CPU:   97.649
  Cycle:     49 Defect Energy:   5.002505  Gnorm:     0.000359  CPU:   98.813
  Cycle:     50 Defect Energy:   4.999552  Gnorm:     0.000341  CPU:  100.054
  Cycle:     51 Defect Energy:   4.995710  Gnorm:     0.000333  CPU:  101.161
  Cycle:     52 Defect Energy:   4.990497  Gnorm:     0.000334  CPU:  102.248
  Cycle:     53 Defect Energy:   4.984104  Gnorm:     0.000375  CPU:  103.338
  Cycle:     54 Defect Energy:   4.976870  Gnorm:     0.000462  CPU:  104.429
  Cycle:     55 Defect Energy:   4.970565  Gnorm:     0.000527  CPU:  105.596
  Cycle:     56 Defect Energy:   4.964673  Gnorm:     0.000609  CPU:  106.643
  Cycle:     57 Defect Energy:   4.957427  Gnorm:     0.000702  CPU:  107.692
  ** Hessian calculated **
  Cycle:     58 Defect Energy:   4.952713  Gnorm:     0.000666  CPU:  110.431
  Cycle:     59 Defect Energy:   4.946253  Gnorm:     0.000658  CPU:  111.401
  Cycle:     60 Defect Energy:   4.937466  Gnorm:     0.000625  CPU:  112.395
  Cycle:     61 Defect Energy:   4.926121  Gnorm:     0.000611  CPU:  113.376
  Cycle:     62 Defect Energy:   4.912452  Gnorm:     0.000626  CPU:  114.419
  Cycle:     63 Defect Energy:   4.901373  Gnorm:     0.000660  CPU:  115.374
  Cycle:     64 Defect Energy:   4.890818  Gnorm:     0.000732  CPU:  116.318
  Cycle:     65 Defect Energy:   4.881316  Gnorm:     0.000785  CPU:  117.271
  Cycle:     66 Defect Energy:   4.872466  Gnorm:     0.000842  CPU:  118.207
  Cycle:     67 Defect Energy:   4.863758  Gnorm:     0.000908  CPU:  119.273
  ** Hessian calculated **
  Cycle:     68 Defect Energy:   4.848490  Gnorm:     0.000871  CPU:  121.656
  Cycle:     69 Defect Energy:   4.829704  Gnorm:     0.000840  CPU:  122.572
  Cycle:     70 Defect Energy:   4.779256  Gnorm:     0.000585  CPU:  123.566
  Cycle:     71 Defect Energy:   4.761136  Gnorm:     0.000364  CPU:  124.318
  Cycle:     72 Defect Energy:   4.754759  Gnorm:     0.000223  CPU:  126.281
  Cycle:     73 Defect Energy:   4.751759  Gnorm:     0.000157  CPU:  129.867
  Cycle:     74 Defect Energy:   4.750996  Gnorm:     0.000086  CPU:  131.010
  Cycle:     75 Defect Energy:   4.750807  Gnorm:     0.000056  CPU:  132.154
  ** Hessian calculated **
  Cycle:     76 Defect Energy:   4.750690  Gnorm:     0.000040  CPU:  135.154
  Cycle:     77 Defect Energy:   4.750638  Gnorm:     0.000028  CPU:  136.225
  Cycle:     78 Defect Energy:   4.750614  Gnorm:     0.000019  CPU:  137.259
  Cycle:     79 Defect Energy:   4.750603  Gnorm:     0.000014  CPU:  138.334


  **** Optimisation achieved ****


  Final defect energy  =        4.75059770
  Final defect Gnorm   =        0.00000942

  Components of defect energy : 

--------------------------------------------------------------------------------
  Region 1 - region 1                   =      1.53355244 eV
  Region 1 - region 2a (unrelaxed)      =      3.75823976 eV
  Region 1 - 2a (relaxed - correction)  =     -0.22463146 eV
  Region 1 (Total)                      =      5.06716075 eV
  Region 2a                             =      0.11225936 eV
  Region 2b                             =     -0.42882241 eV
--------------------------------------------------------------------------------
  Total defect energy                   =      4.75059770 eV
--------------------------------------------------------------------------------

  Largest displacement in region 2 =   0.0238 Angstroms

  Final coordinates of region 1 :

--------------------------------------------------------------------------------
   No.  Atomic        x           y           z          Radius      Charge
        Label       (Angs)      (Angs)      (Angs)       (Angs)       (e) 
--------------------------------------------------------------------------------
     1  Na    c     2.253894    0.901557    1.352336    0.000000    1.000000
     2  O     c     2.253894    2.605218    2.565825    0.000000    0.183000
     3  Na    c     4.496756    2.711740    2.464467    0.000000    1.000000
     4  Na    c     0.011031    2.711740    2.464467    0.000000    1.000000
     5  Cl    c     4.519059   -0.086215   -0.037102    0.000000    1.485000
     6  Cl    c    -0.011272   -0.086215   -0.037102    0.000000    1.485000
     7  O     c     2.253894   -2.207152    2.290213    0.000000    0.183000
     8  Na    c     2.253894    1.875306    4.612980    0.000000    1.000000
     9  Na    c     2.253894   -2.321390    0.047661    0.000000    1.000000
    10  Na    c     2.253894    4.630388    1.777232    0.000000    1.000000
    11  Na    c     2.253894    0.080516   -2.151470    0.000000    1.000000
    12  O     c     2.253894    2.298839   -2.278037    0.000000    0.183000
    13  Cl    c     4.587794    0.025292    4.663873    0.000000    1.485000
    14  Cl    c    -0.080007    0.025292    4.663873    0.000000    1.485000
    15  Na    c     4.461208   -2.022962    2.294835    0.000000    1.000000
    16  Na    c     0.046579   -2.022962    2.294835    0.000000    1.000000
    17  Cl    c     4.616174    4.635278    0.027523    0.000000    1.485000
    18  Cl    c    -0.108387    4.635278    0.027523    0.000000    1.485000
    19  Na    c     2.253894   -1.670748    4.467969    0.000000    1.000000
    20  Na    c     4.429728    2.258669   -1.832820    0.000000    1.000000
    21  Na    c     0.078060    2.258669   -1.832820    0.000000    1.000000
    22  Na    c    -2.108167    0.084536    1.871405    0.000000    1.000000
    23  Na    c     6.615955    0.084536    1.871405    0.000000    1.000000
    24  O     c    -2.245279    2.317891    2.304852    0.000000    0.183000
    25  O     c     6.753066    2.317891    2.304852    0.000000    0.183000
    26  O     c     2.253894   -2.210588   -2.242096    0.000000    0.183000
    27  Na    c    -2.360271    2.690565    0.052004    0.000000    1.000000
    28  Na    c     6.868058    2.690565    0.052004    0.000000    1.000000
    29  Na    c     2.253894    4.472346   -1.770775    0.000000    1.000000
    30  Cl    c     4.671140    4.700949    4.592805    0.000000    1.485000
    31  Cl    c    -0.163353    4.700949    4.592805    0.000000    1.485000
    32  Na    c     4.506765   -2.171273   -2.252916    0.000000    1.000000
    33  Na    c     0.001022   -2.171273   -2.252916    0.000000    1.000000
    34  Na    c     2.253894    0.000063    7.229981    0.000000    1.000000
    35  Na    c     2.253894   -4.428908    2.594203    0.000000    1.000000
    36  O     c     2.253894    2.246174    6.840734    0.000000    0.183000
    37  O     c    -2.230434   -2.175004    2.252131    0.000000    0.183000
    38  O     c     6.738222   -2.175004    2.252131    0.000000    0.183000
    39  Na    c    -2.212198    1.896043    4.540080    0.000000    1.000000
    40  Na    c     6.719985    1.896043    4.540080    0.000000    1.000000
    41  Na    c    -2.149508   -2.606390    0.014537    0.000000    1.000000
    42  Na    c     6.657295   -2.606390    0.014537    0.000000    1.000000
    43  Na    c    -2.267881    0.019739   -1.862314    0.000000    1.000000
    44  Na    c     6.775668    0.019739   -1.862314    0.000000    1.000000
    45  Na    c    -2.443493    4.560748    2.652820    0.000000    1.000000
    46  Na    c     6.951280    4.560748    2.652820    0.000000    1.000000
    47  O     c     2.253894    6.851534    2.182417    0.000000    0.183000
    48  O     c    -2.205418    2.266807   -2.194774    0.000000    0.183000
    49  O     c     6.713205    2.266807   -2.194774    0.000000    0.183000
    50  Na    c     4.519467    2.251227    6.830829    0.000000    1.000000
    51  Na    c    -0.011680    2.251227    6.830829    0.000000    1.000000
    52  Cl    c     4.519002   -4.553911   -0.063336    0.000000    1.485000
    53  Cl    c    -0.011215   -4.553911   -0.063336    0.000000    1.485000
    54  Na    c     2.253894    2.450683   -4.480193    0.000000    1.000000
    55  Na    c     2.253894    7.290644   -0.029465    0.000000    1.000000
    56  O     c     2.253894   -2.222512    6.725235    0.000000    0.183000
    57  Cl    c     4.512235   -0.102897   -4.601677    0.000000    1.485000
    58  Cl    c    -0.004448   -0.102897   -4.601677    0.000000    1.485000
    59  Na    c    -2.329375   -1.859339    4.505884    0.000000    1.000000
    60  Na    c     6.837162   -1.859339    4.505884    0.000000    1.000000
    61  Na    c     4.525345    6.713558    2.164663    0.000000    1.000000
    62  Na    c    -0.017558    6.713558    2.164663    0.000000    1.000000
    63  Na    c     2.253894    4.458804    6.416776    0.000000    1.000000
    64  Na    c     2.253894   -4.464028   -2.414343    0.000000    1.000000
    65  O     c    -2.258398   -2.234227   -2.235030    0.000000    0.183000
    66  O     c     6.766185   -2.234227   -2.235030    0.000000    0.183000
    67  Cl    c     4.558359   -4.580792    4.543275    0.000000    1.485000
    68  Cl    c    -0.050572   -4.580792    4.543275    0.000000    1.485000
    69  Na    c     2.253894    6.642871    4.437997    0.000000    1.000000
    70  Na    c     4.508156   -2.238769    6.621206    0.000000    1.000000
    71  Na    c    -0.000369   -2.238769    6.621206    0.000000    1.000000
    72  Na    c     2.253894   -2.080293   -4.488576    0.000000    1.000000
    73  Na    c    -2.170422    4.495770   -2.588252    0.000000    1.000000
    74  Na    c     6.678209    4.495770   -2.588252    0.000000    1.000000
    75  O     c     2.253894    6.755318   -2.225190    0.000000    0.183000
    76  Cl    c     9.029500    0.055087    0.043352    0.000000    1.485000
    77  Cl    c    -4.521713    0.055087    0.043352    0.000000    1.485000
    78  Na    c     9.009832    2.094121    2.381411    0.000000    1.000000
    79  Na    c    -4.502045    2.094121    2.381411    0.000000    1.000000
    80  Na    c     6.714116    0.009893    7.120734    0.000000    1.000000
    81  Na    c    -2.206329    0.009893    7.120734    0.000000    1.000000
    82  Na    c    -2.269351   -4.434394    2.597526    0.000000    1.000000
    83  Na    c     6.777138   -4.434394    2.597526    0.000000    1.000000
    84  O     c    -2.268232    2.259935    6.779545    0.000000    0.183000
    85  O     c     6.776019    2.259935    6.779545    0.000000    0.183000
    86  Cl    c     4.593407    4.593990   -4.606736    0.000000    1.485000
    87  Cl    c    -0.085620    4.593990   -4.606736    0.000000    1.485000
    88  Na    c     4.509634    6.723311   -2.166214    0.000000    1.000000
    89  Na    c    -0.001847    6.723311   -2.166214    0.000000    1.000000
    90  O     c    -2.278501    6.792743    2.266605    0.000000    0.183000
    91  O     c     6.786288    6.792743    2.266605    0.000000    0.183000
    92  Na    c    -2.343154    6.466938    0.007553    0.000000    1.000000
    93  Na    c     6.850941    6.466938    0.007553    0.000000    1.000000
    94  Cl    c     9.058731    0.037552    4.528930    0.000000    1.485000
    95  Cl    c    -4.550944    0.037552    4.528930    0.000000    1.485000
    96  Na    c     6.504134    1.963724   -4.455512    0.000000    1.000000
    97  Na    c    -1.996347    1.963724   -4.455512    0.000000    1.000000
    98  Na    c     8.997889   -2.078486    2.133220    0.000000    1.000000
    99  Na    c    -4.490102   -2.078486    2.133220    0.000000    1.000000
   100  Na    c     2.253894   -4.475001    6.375734    0.000000    1.000000
   101  O     c    -2.259468   -2.235005    6.757747    0.000000    0.183000
   102  O     c     6.767256   -2.235005    6.757747    0.000000    0.183000
   103  O     c     2.253894   -6.713417    2.257742    0.000000    0.183000
   104  Na    c     2.253894    2.614394    9.050012    0.000000    1.000000
   105  Cl    c     9.090752    4.546189    0.020622    0.000000    1.485000
   106  Cl    c    -4.582965    4.546189    0.020622    0.000000    1.485000
   107  Na    c     2.253894   -6.444206    0.012636    0.000000    1.000000
   108  Na    c     8.973276    2.258507   -2.410258    0.000000    1.000000
   109  Na    c    -4.465489    2.258507   -2.410258    0.000000    1.000000
   110  Na    c    -2.314011    4.519890    6.455898    0.000000    1.000000
   111  Na    c     6.821798    4.519890    6.455898    0.000000    1.000000
   112  Na    c    -2.231183   -4.477148   -2.592007    0.000000    1.000000
   113  Na    c     6.738970   -4.477148   -2.592007    0.000000    1.000000
   114  O     c     2.253894    6.704626    6.721199    0.000000    0.183000
   115  Cl    c     4.532744   -0.000393    9.074387    0.000000    1.485000
   116  Cl    c    -0.024957   -0.000393    9.074387    0.000000    1.485000
   117  Na    c    -2.095404    7.077776    4.511170    0.000000    1.000000
   118  Na    c     6.603192    7.077776    4.511170    0.000000    1.000000
   119  Na    c     6.797374   -1.900636   -4.491776    0.000000    1.000000
   120  Na    c    -2.289587   -1.900636   -4.491776    0.000000    1.000000
   121  Na    c     4.504430   -6.622231    2.201601    0.000000    1.000000
   122  Na    c     0.003357   -6.622231    2.201601    0.000000    1.000000
   123  Na    c     2.253894    0.021435   -6.697200    0.000000    1.000000
   124  Na    c     2.253894    9.057334    2.519499    0.000000    1.000000
   125  O     c     2.253894    2.282807   -6.770880    0.000000    0.183000
   126  O     c    -2.259376    6.745026   -2.253166    0.000000    0.183000
   127  O     c     6.767163    6.745026   -2.253166    0.000000    0.183000
   128  Cl    c     4.495591   -4.555805   -4.523311    0.000000    1.485000
   129  Cl    c     0.012196   -4.555805   -4.523311    0.000000    1.485000
   130  Cl    c     9.117593    4.517815    4.536853    0.000000    1.485000
   131  Cl    c    -4.609806    4.517815    4.536853    0.000000    1.485000
   132  Na    c     2.253894    6.374012   -4.478627    0.000000    1.000000
   133  Na    c     2.253894   -2.567469    8.981213    0.000000    1.000000
   134  Na    c     4.515529    6.663475    6.799775    0.000000    1.000000
   135  Na    c    -0.007742    6.663475    6.799775    0.000000    1.000000
   136  Na    c     2.253894   -7.027851    4.495179    0.000000    1.000000
   137  Na    c     9.010796   -2.261217   -2.170840    0.000000    1.000000
   138  Na    c    -4.503009   -2.261217   -2.170840    0.000000    1.000000
   139  O     c     2.253894   -6.736004   -2.235629    0.000000    0.183000
   140  Na    c     4.498468    2.305068   -6.791792    0.000000    1.000000
   141  Na    c     0.009319    2.305068   -6.791792    0.000000    1.000000
   142  Cl    c     4.548462    9.094612   -0.026293    0.000000    1.485000
   143  Cl    c    -0.040675    9.094612   -0.026293    0.000000    1.485000
   144  O     c     2.253894   -2.251935   -6.739785    0.000000    0.183000
   145  Cl    c     4.522709    4.539169    9.078551    0.000000    1.485000
   146  Cl    c    -0.014922    4.539169    9.078551    0.000000    1.485000
   147  Na    c     9.024808    2.191776    6.701068    0.000000    1.000000
   148  Na    c    -4.517020    2.191776    6.701068    0.000000    1.000000
   149  Cl    c     9.058092   -4.473326    0.008220    0.000000    1.485000
   150  Cl    c    -4.550305   -4.473326    0.008220    0.000000    1.485000
   151  Na    c     4.507213   -6.689869   -2.190452    0.000000    1.000000
   152  Na    c     0.000574   -6.689869   -2.190452    0.000000    1.000000
   153  Na    c     2.253894    4.509509   -7.013891    0.000000    1.000000
   154  Na    c     2.253894    8.993411   -2.629482    0.000000    1.000000
   155  Na    c     6.790343   -4.492216    6.492193    0.000000    1.000000
   156  Na    c    -2.282555   -4.492216    6.492193    0.000000    1.000000
   157  O     c     6.755423   -6.709045    2.250819    0.000000    0.183000
   158  O     c    -2.247635   -6.709045    2.250819    0.000000    0.183000
   159  Cl    c     4.477073    9.087835    4.512845    0.000000    1.485000
   160  Cl    c     0.030714    9.087835    4.512845    0.000000    1.485000
   161  Na    c    -2.317119    2.556635    9.016587    0.000000    1.000000
   162  Na    c     6.824906    2.556635    9.016587    0.000000    1.000000
   163  Cl    c     9.069052    0.015874   -4.490734    0.000000    1.485000
   164  Cl    c    -4.561265    0.015874   -4.490734    0.000000    1.485000
   165  Na    c     4.511367   -2.250341   -6.678499    0.000000    1.000000
   166  Na    c    -0.003580   -2.250341   -6.678499    0.000000    1.000000
   167  Na    c     9.023594    6.906933    2.340797    0.000000    1.000000
   168  Na    c    -4.515806    6.906933    2.340797    0.000000    1.000000
   169  Na    c     6.809844   -6.443409   -0.005078    0.000000    1.000000
   170  Na    c    -2.302057   -6.443409   -0.005078    0.000000    1.000000
   171  Na    c    11.414186    0.009142    2.191865    0.000000    1.000000
   172  Na    c    -6.906399    0.009142    2.191865    0.000000    1.000000
   173  O     c     6.775411    6.783059    6.756329    0.000000    0.183000
   174  O     c    -2.267624    6.783059    6.756329    0.000000    0.183000
   175  O     c    11.264698    2.256720    2.248311    0.000000    0.183000
   176  O     c    -6.756911    2.256720    2.248311    0.000000    0.183000
   177  Cl    c     9.062142   -4.518572    4.530682    0.000000    1.485000
   178  Cl    c    -4.554355   -4.518572    4.530682    0.000000    1.485000
   179  Na    c    11.080892    2.296319   -0.002431    0.000000    1.000000
   180  Na    c    -6.573105    2.296319   -0.002431    0.000000    1.000000
   181  Na    c     9.011336   -2.225812    6.833236    0.000000    1.000000
   182  Na    c    -4.503548   -2.225812    6.833236    0.000000    1.000000
   183  Na    c    -2.205975    0.003110   -7.012046    0.000000    1.000000
   184  Na    c     6.713763    0.003110   -7.012046    0.000000    1.000000
   185  Na    c    -2.222364    9.027247    1.981500    0.000000    1.000000
   186  Na    c     6.730151    9.027247    1.981500    0.000000    1.000000
   187  O     c     2.253894   -6.735812    6.739726    0.000000    0.183000
   188  O     c     6.745533    2.240254   -6.724254    0.000000    0.183000
   189  O     c    -2.237746    2.240254   -6.724254    0.000000    0.183000
   190  Na    c    -2.192953    6.956181   -4.497370    0.000000    1.000000
   191  Na    c     6.700740    6.956181   -4.497370    0.000000    1.000000
   192  Na    c    -2.179839   -2.489544    9.001724    0.000000    1.000000
   193  Na    c     6.687626   -2.489544    9.001724    0.000000    1.000000
   194  Na    c     6.674531   -6.954359    4.491247    0.000000    1.000000
   195  Na    c    -2.166743   -6.954359    4.491247    0.000000    1.000000
   196  O     c    11.263772   -2.240117    2.253256    0.000000    0.183000
   197  O     c    -6.755985   -2.240117    2.253256    0.000000    0.183000
   198  O     c     6.761299   -6.732944   -2.262868    0.000000    0.183000
   199  O     c    -2.253512   -6.732944   -2.262868    0.000000    0.183000
   200  Cl    c     4.518092   -4.526439    9.076247    0.000000    1.485000
   201  Cl    c    -0.010305   -4.526439    9.076247    0.000000    1.485000
   202  Na    c     2.253894    6.612141    8.985682    0.000000    1.000000
   203  Na    c    11.348097    2.278726    4.502355    0.000000    1.000000
   204  Na    c    -6.840310    2.278726    4.502355    0.000000    1.000000
   205  Cl    c     9.063747    4.528539   -4.480619    0.000000    1.485000
   206  Cl    c    -4.555960    4.528539   -4.480619    0.000000    1.485000
   207  Na    c    11.334729   -2.359725    0.007390    0.000000    1.000000
   208  Na    c    -6.826941   -2.359725    0.007390    0.000000    1.000000
   209  Na    c     4.506868   -6.683602    6.779606    0.000000    1.000000
   210  Na    c     0.000919   -6.683602    6.779606    0.000000    1.000000
   211  Na    c     9.014075    6.713125   -2.305388    0.000000    1.000000
   212  Na    c    -4.506288    6.713125   -2.305388    0.000000    1.000000
   213  Na    c     2.253894   -6.850987   -4.495155    0.000000    1.000000
   214  Na    c     2.253894    8.980623    6.709818    0.000000    1.000000
   215  Na    c     2.253894   -4.501398   -6.656175    0.000000    1.000000
   216  Na    c    11.250256    0.000523   -2.196181    0.000000    1.000000
   217  Na    c    -6.742469    0.000523   -2.196181    0.000000    1.000000
   218  Na    c    11.143713    4.513700    2.251782    0.000000    1.000000
   219  Na    c    -6.635926    4.513700    2.251782    0.000000    1.000000
   220  O     c    11.246135    2.255206   -2.250629    0.000000    0.183000
   221  O     c    -6.738347    2.255206   -2.250629    0.000000    0.183000
   222  O     c     6.770295   -2.242217   -6.750712    0.000000    0.183000
   223  O     c    -2.262508   -2.242217   -6.750712    0.000000    0.183000
   224  Na    c    -2.278202    4.508485   -6.562345    0.000000    1.000000
   225  Na    c     6.785989    4.508485   -6.562345    0.000000    1.000000
   226  Na    c    -2.279365    9.005079   -2.081772    0.000000    1.000000
[...]
    238 y          4.507787      4.710506     0.202719    Cartesian    4.50
    238 z          4.507787      4.601109     0.093322    Cartesian    2.07
    239 x          2.253894      2.253894     0.000000    Cartesian    0.00
    239 y          2.253894      2.246212    -0.007682    Cartesian   -0.34
    239 z          6.761681      6.840741     0.079060    Cartesian    1.17
    240 x         -2.253894     -2.230446     0.023447    Cartesian   -1.04
    240 y         -2.253894     -2.174992     0.078901    Cartesian   -3.50
    240 z          2.253894      2.252120    -0.001774    Cartesian   -0.08
    241 x          2.253894      2.253894     0.000000    Cartesian    0.00
    241 y          6.761681      6.851567     0.089886    Cartesian    1.33
    241 z          2.253894      2.182398    -0.071495    Cartesian   -3.17
    242 x         -2.253894     -2.205464     0.048430    Cartesian   -2.15
    242 y          2.253894      2.266832     0.012938    Cartesian    0.57
    242 z         -2.253894     -2.194774     0.059120    Cartesian   -2.62
    243 x          4.507787      4.526663     0.018876    Cartesian    0.42
    243 y         -4.507787     -4.565571    -0.057784    Cartesian    1.28
    243 z          0.000000     -0.068624    -0.068624    Cartesian    0.00
    244 x          2.253894      2.253894     0.000000    Cartesian    0.00
    244 y         -2.253894     -2.222502     0.031392    Cartesian   -1.39
    244 z          6.761681      6.725274    -0.036407    Cartesian   -0.54
    245 x          4.507787      4.524346     0.016559    Cartesian    0.37
    245 y          0.000000     -0.116590    -0.116590    Cartesian    0.00
    245 z         -4.507787     -4.612462    -0.104675    Cartesian    2.32
    246 x         -2.253894     -2.258402    -0.004508    Cartesian    0.20
    246 y         -2.253894     -2.234243     0.019650    Cartesian   -0.87
    246 z         -2.253894     -2.235024     0.018870    Cartesian   -0.84
    247 x          4.507787      4.561841     0.054054    Cartesian    1.20
    247 y         -4.507787     -4.589284    -0.081497    Cartesian    1.81
    247 z          4.507787      4.549313     0.041526    Cartesian    0.92
    248 x          2.253894      2.253894     0.000000    Cartesian    0.00
    248 y          6.761681      6.755399    -0.006282    Cartesian   -0.09
    248 z         -2.253894     -2.225149     0.028745    Cartesian   -1.28
    249 x          9.015574      9.024904     0.009329    Cartesian    0.10
    249 y          0.000000      0.056193     0.056193    Cartesian    0.00
    249 z          0.000000      0.048040     0.048040    Cartesian    0.00
    250 x         -2.253894     -2.268236    -0.014343    Cartesian    0.64
    250 y          2.253894      2.259905     0.006011    Cartesian    0.27
    250 z          6.761681      6.779561     0.017880    Cartesian    0.26
    251 x          4.507787      4.605634     0.097847    Cartesian    2.17
    251 y          4.507787      4.606541     0.098754    Cartesian    2.19
    251 z         -4.507787     -4.614980    -0.107193    Cartesian    2.38
    252 x         -2.253894     -2.278528    -0.024635    Cartesian    1.09
    252 y          6.761681      6.792772     0.031091    Cartesian    0.46
    252 z          2.253894      2.266631     0.012737    Cartesian    0.57
    253 x          9.015574      9.050555     0.034981    Cartesian    0.39
    253 y          0.000000      0.041561     0.041561    Cartesian    0.00
    253 z          4.507787      4.527816     0.020029    Cartesian    0.44
    254 x         -2.253894     -2.259485    -0.005591    Cartesian    0.25
    254 y         -2.253894     -2.234993     0.018900    Cartesian   -0.84
    254 z          6.761681      6.757785    -0.003896    Cartesian   -0.06
    255 x          2.253894      2.253894     0.000000    Cartesian    0.00
    255 y         -6.761681     -6.713427     0.048254    Cartesian   -0.71
    255 z          2.253894      2.257745     0.003851    Cartesian    0.17
    256 x          9.015574      9.089216     0.073642    Cartesian    0.82
    256 y          4.507787      4.544391     0.036603    Cartesian    0.81
    256 z          0.000000      0.022416     0.022416    Cartesian    0.00
    257 x          2.253894      2.253894     0.000000    Cartesian    0.00
    257 y          6.761681      6.704578    -0.057103    Cartesian   -0.84
    257 z          6.761681      6.721194    -0.040487    Cartesian   -0.60
    258 x          4.507787      4.533621     0.025834    Cartesian    0.57
    258 y          0.000000      0.001255     0.001255    Cartesian    0.00
    258 z          9.015574      9.072544     0.056970    Cartesian    0.63
    259 x          2.253894      2.253894     0.000000    Cartesian    0.00
    259 y          2.253894      2.282844     0.028950    Cartesian    1.28
    259 z         -6.761681     -6.770964    -0.009283    Cartesian    0.14
    260 x         -2.253894     -2.259381    -0.005488    Cartesian    0.24
    260 y          6.761681      6.745023    -0.016658    Cartesian   -0.25
    260 z         -2.253894     -2.253218     0.000676    Cartesian   -0.03
    261 x          4.507787      4.498520    -0.009267    Cartesian   -0.21
    261 y         -4.507787     -4.560855    -0.053068    Cartesian    1.18
    261 z         -4.507787     -4.522131    -0.014343    Cartesian    0.32
    262 x          9.015574      9.113777     0.098202    Cartesian    1.09
    262 y          4.507787      4.519825     0.012038    Cartesian    0.27
    262 z          4.507787      4.533823     0.026036    Cartesian    0.58
    263 x          2.253894      2.253894     0.000000    Cartesian    0.00
    263 y         -6.761681     -6.735981     0.025700    Cartesian   -0.38
    263 z         -2.253894     -2.235631     0.018262    Cartesian   -0.81
    264 x          4.507787      4.549596     0.041809    Cartesian    0.93
    264 y          9.015574      9.096444     0.080869    Cartesian    0.90
    264 z          0.000000     -0.026383    -0.026383    Cartesian    0.00
    265 x          2.253894      2.253894     0.000000    Cartesian    0.00
    265 y         -2.253894     -2.251934     0.001959    Cartesian   -0.09
    265 z         -6.761681     -6.739746     0.021935    Cartesian   -0.32
    266 x          4.507787      4.521177     0.013389    Cartesian    0.30
    266 y          4.507787      4.539062     0.031274    Cartesian    0.69
    266 z          9.015574      9.083674     0.068100    Cartesian    0.76
    267 x          9.015574      9.057724     0.042150    Cartesian    0.47
    267 y         -4.507787     -4.471933     0.035855    Cartesian   -0.80
    267 z          0.000000      0.007592     0.007592    Cartesian    0.00
    268 x          6.761681      6.755421    -0.006260    Cartesian   -0.09
    268 y         -6.761681     -6.709068     0.052612    Cartesian   -0.78
    268 z          2.253894      2.250864    -0.003030    Cartesian   -0.13
    269 x          4.507787      4.477604    -0.030184    Cartesian   -0.67
    269 y          9.015574      9.090232     0.074658    Cartesian    0.83
    269 z          4.507787      4.510746     0.002959    Cartesian    0.07
    270 x          9.015574      9.070963     0.055389    Cartesian    0.61
    270 y          0.000000      0.015440     0.015440    Cartesian    0.00
    270 z         -4.507787     -4.491167     0.016620    Cartesian   -0.37
    271 x          6.761681      6.775418     0.013737    Cartesian    0.20
    271 y          6.761681      6.783110     0.021429    Cartesian    0.32
    271 z          6.761681      6.756328    -0.005353    Cartesian   -0.08
    272 x         11.269468     11.264700    -0.004768    Cartesian   -0.04
    272 y          2.253894      2.256711     0.002817    Cartesian    0.12
    272 z          2.253894      2.248315    -0.005579    Cartesian   -0.25
    273 x          9.015574      9.062803     0.047229    Cartesian    0.52
    273 y         -4.507787     -4.522501    -0.014714    Cartesian    0.33
    273 z          4.507787      4.531809     0.024022    Cartesian    0.53
    274 x          2.253894      2.253894     0.000000    Cartesian    0.00
    274 y         -6.761681     -6.735854     0.025827    Cartesian   -0.38
    274 z          6.761681      6.739707    -0.021974    Cartesian   -0.32
    275 x          6.761681      6.745496    -0.016185    Cartesian   -0.24
    275 y          2.253894      2.240224    -0.013670    Cartesian   -0.61
    275 z         -6.761681     -6.724304     0.037377    Cartesian   -0.55
    276 x         11.269468     11.263804    -0.005664    Cartesian   -0.05
    276 y         -2.253894     -2.240111     0.013782    Cartesian   -0.61
    276 z          2.253894      2.253239    -0.000654    Cartesian   -0.03
    277 x          6.761681      6.761299    -0.000382    Cartesian   -0.01
    277 y         -6.761681     -6.732951     0.028730    Cartesian   -0.42
    277 z         -2.253894     -2.262913    -0.009019    Cartesian    0.40
    278 x          4.507787      4.519035     0.011247    Cartesian    0.25
    278 y         -4.507787     -4.524344    -0.016557    Cartesian    0.37
    278 z          9.015574      9.083754     0.068180    Cartesian    0.76
    279 x          9.015574      9.064694     0.049120    Cartesian    0.54
    279 y          4.507787      4.529906     0.022119    Cartesian    0.49
    279 z         -4.507787     -4.475149     0.032638    Cartesian   -0.72
    280 x         11.269468     11.246144    -0.023324    Cartesian   -0.21
    280 y          2.253894      2.255213     0.001320    Cartesian    0.06
    280 z         -2.253894     -2.250640     0.003254    Cartesian   -0.14
    281 x          6.761681      6.770307     0.008626    Cartesian    0.13
    281 y         -2.253894     -2.242189     0.011704    Cartesian   -0.52
    281 z         -6.761681     -6.750751     0.010930    Cartesian   -0.16
    282 x          2.253894      2.253894     0.000000    Cartesian    0.00
    282 y          2.253894      2.268778     0.014884    Cartesian    0.66
    282 z         11.269468     11.272123     0.002655    Cartesian    0.02
    283 x          2.253894      2.253894     0.000000    Cartesian    0.00
    283 y          6.761681      6.737040    -0.024641    Cartesian   -0.36
    283 z         -6.761681     -6.748456     0.013225    Cartesian   -0.20
    284 x         11.269468     11.269441    -0.000027    Cartesian   -0.00
    284 y         -2.253894     -2.255980    -0.002086    Cartesian    0.09
    284 z         -2.253894     -2.240039     0.013855    Cartesian   -0.61
    285 x          4.507787      4.526427     0.018640    Cartesian    0.41
    285 y          9.015574      9.079310     0.063736    Cartesian    0.71
    285 z         -4.507787     -4.522982    -0.015195    Cartesian    0.34
    286 x          9.015574      9.059682     0.044108    Cartesian    0.49
    286 y          0.000000      0.005816     0.005816    Cartesian    0.00
    286 z          9.015574      9.020641     0.005066    Cartesian    0.06
    287 x          4.507787      4.513393     0.005606    Cartesian    0.12
    287 y         -9.015574     -9.122985    -0.107411    Cartesian    1.19
    287 z          0.000000      0.000606     0.000606    Cartesian    0.00
    288 x          2.253894      2.253894     0.000000    Cartesian    0.00
    288 y         -2.253894     -2.266814    -0.012920    Cartesian    0.57
    288 z         11.269468     11.250299    -0.019169    Cartesian   -0.17
    289 x          6.761681      6.764179     0.002498    Cartesian    0.04
    289 y         -6.761681     -6.755127     0.006554    Cartesian   -0.10
    289 z          6.761681      6.737248    -0.024433    Cartesian   -0.36
    290 x          2.253894      2.253894     0.000000    Cartesian    0.00
    290 y         11.269468     11.283161     0.013693    Cartesian    0.12
    290 z          2.253894      2.265212     0.011319    Cartesian    0.50
    291 x          9.015574      9.060402     0.044828    Cartesian    0.50
    291 y         -4.507787     -4.532082    -0.024295    Cartesian    0.54
    291 z         -4.507787     -4.501975     0.005813    Cartesian   -0.13
    292 x         11.269468     11.278488     0.009020    Cartesian    0.08
    292 y          2.253894      2.251853    -0.002041    Cartesian   -0.09
    292 z          6.761681      6.759844    -0.001837    Cartesian   -0.03
    293 x          4.507787      4.535331     0.027544    Cartesian    0.61
    293 y         -9.015574     -9.021138    -0.005563    Cartesian    0.06
    293 z          4.507787      4.518158     0.010370    Cartesian    0.23
    294 x          9.015574      9.034121     0.018546    Cartesian    0.21
    294 y          9.015574      9.059683     0.044109    Cartesian    0.49
    294 z          0.000000      0.018757     0.018757    Cartesian    0.00
    295 x          4.507787      4.487891    -0.019896    Cartesian   -0.44
    295 y          0.000000      0.025863     0.025863    Cartesian    0.00
    295 z         -9.015574     -9.033547    -0.017973    Cartesian    0.20
    296 x         11.269468     11.271628     0.002160    Cartesian    0.02
    296 y          6.761681      6.769653     0.007973    Cartesian    0.12
    296 z          2.253894      2.257893     0.003999    Cartesian    0.18
    297 x          9.015574      9.042079     0.026505    Cartesian    0.29
    297 y          4.507787      4.511777     0.003990    Cartesian    0.09
    297 z          9.015574      9.063113     0.047539    Cartesian    0.53
    298 x         11.269468     11.265989    -0.003479    Cartesian   -0.03
    298 y         -2.253894     -2.249249     0.004644    Cartesian   -0.21
    298 z          6.761681      6.765675     0.003995    Cartesian    0.06
    299 x         -2.253894     -2.264133    -0.010239    Cartesian    0.45
    299 y          6.761681      6.777765     0.016084    Cartesian    0.24
    299 z         -6.761681     -6.749965     0.011716    Cartesian   -0.17
    300 x          6.761681      6.766622     0.004942    Cartesian    0.07
    300 y          2.253894      2.273142     0.019249    Cartesian    0.85
    300 z         11.269468     11.264859    -0.004609    Cartesian   -0.04
    301 x          2.253894      2.253894     0.000000    Cartesian    0.00
    301 y         11.269468     11.249484    -0.019984    Cartesian   -0.18
    301 z         -2.253894     -2.290828    -0.036934    Cartesian    1.64
    302 x          9.015574      9.067278     0.051704    Cartesian    0.57
    302 y          9.015574      9.025261     0.009686    Cartesian    0.11
    302 z          4.507787      4.508345     0.000558    Cartesian    0.01
    303 x          2.253894      2.253894     0.000000    Cartesian    0.00
    303 y         -6.761681     -6.760597     0.001084    Cartesian   -0.02
    303 z         -6.761681     -6.760550     0.001131    Cartesian   -0.02
    304 x          4.507787      4.509001     0.001214    Cartesian    0.03
    304 y          4.507787      4.503538    -0.004249    Cartesian   -0.09
    304 z         -9.015574     -9.045589    -0.030014    Cartesian    0.33
    305 x          6.761681      6.764677     0.002996    Cartesian    0.04
    305 y         -2.253894     -2.260858    -0.006965    Cartesian    0.31
    305 z         11.269468     11.255871    -0.013598    Cartesian   -0.12
    306 x         11.269468     11.273432     0.003963    Cartesian    0.04
    306 y          6.761681      6.763441     0.001760    Cartesian    0.03
    306 z         -2.253894     -2.256569    -0.002676    Cartesian    0.12
    307 x         -2.253894     -2.254712    -0.000818    Cartesian    0.04
    307 y         11.269468     11.274498     0.005030    Cartesian    0.04
    307 z          2.253894      2.230586    -0.023308    Cartesian   -1.03
    308 x          4.507787      4.544538     0.036751    Cartesian    0.82
    308 y          9.015574      9.051527     0.035952    Cartesian    0.40
    308 z          9.015574      9.033770     0.018195    Cartesian    0.20
    309 x         13.523362     13.556718     0.033356    Cartesian    0.25
    309 y          0.000000     -0.003382    -0.003382    Cartesian    0.00
    309 z          0.000000     -0.007981    -0.007981    Cartesian    0.00
    310 x          2.253894      2.253894     0.000000    Cartesian    0.00
    310 y          6.761681      6.764410     0.002729    Cartesian    0.04
    310 z         11.269468     11.259506    -0.009962    Cartesian   -0.09
    311 x          9.015574      9.020275     0.004701    Cartesian    0.05
    311 y         -4.507787     -4.500182     0.007606    Cartesian   -0.17
    311 z          9.015574      9.054710     0.039136    Cartesian    0.43
    312 x          2.253894      2.253894     0.000000    Cartesian    0.00
    312 y         11.269468     11.268511    -0.000957    Cartesian   -0.01
    312 z          6.761681      6.761747     0.000066    Cartesian    0.00
    313 x         13.523362     13.542796     0.019435    Cartesian    0.14
    313 y          0.000000     -0.015797    -0.015797    Cartesian    0.00
    313 z          4.507787      4.535370     0.027582    Cartesian    0.61
    314 x          4.507787      4.534939     0.027151    Cartesian    0.60
    314 y         -9.015574     -9.024709    -0.009135    Cartesian    0.10
    314 z         -4.507787     -4.548479    -0.040692    Cartesian    0.90
    315 x         11.269468     11.263056    -0.006412    Cartesian   -0.06
    315 y         -6.761681     -6.761259     0.000422    Cartesian   -0.01
    315 z          2.253894      2.260762     0.006869    Cartesian    0.30
    316 x         -2.253894     -2.262664    -0.008770    Cartesian    0.39
    316 y         11.269468     11.277220     0.007752    Cartesian    0.07
    316 z         -2.253894     -2.246484     0.007409    Cartesian   -0.33
    317 x         13.523362     13.598728     0.075366    Cartesian    0.56
    317 y          4.507787      4.492101    -0.015686    Cartesian   -0.35
    317 z          0.000000     -0.007148    -0.007148    Cartesian    0.00
    318 x          4.507787      4.531308     0.023520    Cartesian    0.52
    318 y         -4.507787     -4.514865    -0.007077    Cartesian    0.16
    318 z         -9.015574     -9.075326    -0.059751    Cartesian    0.66
--------------------------------------------------------------------------------


  Time to end of optimisation  =      139.5760 seconds


  Peak dynamic memory used =      93.00 MB 


  Timing analysis for GULP :

--------------------------------------------------------------------------------
  Task / Subroutine                                          Time (Seconds)
--------------------------------------------------------------------------------
  Calculation of reciprocal space energy and derivatives          0.0009
  Calculation of reciprocal space energy using symmetry           0.0011
  Calculation of real space energy and derivatives                0.0045
  Calculation of real space energy using symmetry                 0.0105
  Calculation for region 1 energy and derivatives (2-b)          74.9206
  Calculation for region 2a energy                               59.9918
  Calculation for region 2b energy                                0.0230
  Calculation and manipulation of Hessian matrix                  0.1795
  Calculation of matrix inversion                                 3.9869
  Symmetry generation of equivalent positions                     0.0051
--------------------------------------------------------------------------------
  Total CPU time                                                139.5761
--------------------------------------------------------------------------------


  Dump file written as Na3OCl.grs


  Job Finished at 19:29.35 30th November   2020                               

