********************************************************************************
*                       GENERAL UTILITY LATTICE PROGRAM                        *
*                                 Julian Gale                                  *
*                       Curtin Institute for Computation                       *
*                    School of Molecular and Life Sciences                     *
*                    Curtin University, Western Australia                      *
********************************************************************************
* Version = 5.2.0 * Last modified =  10th September 2020                       *
********************************************************************************
*  optimise     - perform optimisation run                                     *
*  conp         - constant pressure calculation                                *
*  property     - calculate properties for final geometry                      *
*  defect       - perform defect calculation after bulk run                    *
*  compare      - compare initial and final structures                         *
********************************************************************************

  Job Started  at 19:27.14 30th November   2020                               

  Number of CPUs =     1


  Total number of configurations input =      1

********************************************************************************
*  Input for Configuration =   1                                               *
********************************************************************************

  Formula = ClONa3                                                      

  Number of irreducible atoms/shells =       5


  Total number atoms/shells =       7

  Dimensionality = 3               :  Bulk   


  Symmetry :

  Crystal family                   :  Cubic       
  Crystal class  (Groth - 1921)    :  Cubic Hexakisoctahedral              

  Space group (centrosymmetric)    :  P M 3 M         

  Patterson group                  :  P m -3 m 

  Cartesian lattice vectors (Angstroms) :

        4.504000    0.000000    0.000000
        0.000000    4.504000    0.000000
        0.000000    0.000000    4.504000

  Cell parameters (Angstroms/Degrees):

  a =       4.5040    alpha =  90.0000
  b =       4.5040    beta  =  90.0000
  c =       4.5040    gamma =  90.0000

  Initial cell volume =          91.368216 Angs**3

  Temperature of configuration =   0.00     K 

  Pressure of configuration =         0.000 GPa 

  Fractional coordinates of asymmetric unit :

--------------------------------------------------------------------------------
   No.  Atomic       x           y          z         Charge      Occupancy
        Label      (Frac)      (Frac)     (Frac)        (e)         (Frac)  
--------------------------------------------------------------------------------
      1 Cl    c    0.000000    0.000000    0.000000     1.48500    1.000000    
      2 O     c    0.500000    0.500000    0.500000     0.18300    1.000000    
      3 Na    c    0.500000    0.500000    0.000000     1.00000    1.000000    
      4 Cl    s    0.000000    0.000000    0.000000    -2.48500    1.000000    
      5 O     s    0.500000    0.500000    0.500000    -2.18300    1.000000    
--------------------------------------------------------------------------------


  Constraints : 

--------------------------------------------------------------------------------
  Constraint no.      Unconstrained     Constrained    Coefficient    Offset
                         Variable         Variable
--------------------------------------------------------------------------------
           1              Strain 1        Strain 2       1.00000      0.0000
           2              Strain 1        Strain 3       1.00000      0.0000
--------------------------------------------------------------------------------


********************************************************************************
*  General input information                                                   *
********************************************************************************

  Species output for all configurations : 

--------------------------------------------------------------------------------
  Species    Type    Atomic    Atomic    Charge       Radii (Angs)     Library
                     Number     Mass       (e)     Cova   Ionic  VDW   Symbol
--------------------------------------------------------------------------------
    Na       Core       11      22.99   1.000000   0.970  0.000  2.300          
    O        Core        8      16.00   0.183000   0.730  0.000  1.360          
    O        Shell       8       0.00  -2.183000   0.730  0.000  1.360          
    Cl       Core       17      35.45   1.485000   0.990  0.000  1.650          
    Cl       Shell      17       0.00  -2.485000   0.990  0.000  1.650          
    Mg       Core       12      24.31   0.415000   1.100  0.000  0.000          
    Mg       Shell      12       0.00   1.585000   1.100  0.000  0.000          
    Ca       Core       20      40.08  -1.135000   0.990  0.000  0.000          
    Ca       Shell      20       0.00   3.135000   0.990  0.000  0.000          
    Sr       Core       38      87.62  -1.251000   1.120  0.000  0.000          
    Sr       Shell      38       0.00   3.251000   1.120  0.000  0.000          
    Ba       Core       56     137.33  -7.203000   1.340  0.000  0.000          
    Ba       Shell      56       0.00   9.203000   1.340  0.000  0.000          
--------------------------------------------------------------------------------


  Lattice summation method               =    Ewald          (3-D)
                                         =    Parry          (2-D)
                                         =    Saunders et al (1-D)
  Accuracy factor for lattice sums       =   12.000


  Analytic derivatives to be used

  Time limit = Infinity

  Maximum range for interatomic potentials =    100000.000000 Angstroms

  General interatomic potentials :

--------------------------------------------------------------------------------
Atom  Types   Potential      Parameter       Value         Units   Cutoffs(Ang)
  1     2                                                            Min /  Max 
--------------------------------------------------------------------------------
O    c O    s Spring (c-s)  Spring k 2       593.71600    eV*Ang^-2 0.000  0.800
                            Spring k 4       0.0000000    eV*Ang^-4 
--------------------------------------------------------------------------------
Cl   c Cl   s Spring (c-s)  Spring k 2       29.380000    eV*Ang^-2 0.000  0.800
                            Spring k 4       0.0000000    eV*Ang^-4 
--------------------------------------------------------------------------------
Mg   c Mg   s Spring (c-s)  Spring k 2       361.60000    eV*Ang^-2 0.000  0.800
                            Spring k 4       0.0000000    eV*Ang^-4 
--------------------------------------------------------------------------------
Ca   c Ca   s Spring (c-s)  Spring k 2       110.20000    eV*Ang^-2 0.000  0.800
                            Spring k 4       0.0000000    eV*Ang^-4 
--------------------------------------------------------------------------------
Sr   c Sr   s Spring (c-s)  Spring k 2       71.700000    eV*Ang^-2 0.000  0.800
                            Spring k 4       0.0000000    eV*Ang^-4 
--------------------------------------------------------------------------------
Ba   c Ba   s Spring (c-s)  Spring k 2       495.20000    eV*Ang^-2 0.000  0.800
                            Spring k 4       0.0000000    eV*Ang^-4 
--------------------------------------------------------------------------------
Na   c Na   c Buckingham    Buckingham A     1788.1900    eV        0.000 12.000
                            Buckingham rho  0.15900000    Ang       
                            Buckingham C     0.0000000    eV*Ang^6  
--------------------------------------------------------------------------------
Na   c O    s Buckingham    Buckingham A     1226.8400    eV        0.000 12.000
                            Buckingham rho  0.30700000    Ang       
                            Buckingham C     0.0000000    eV*Ang^6  
--------------------------------------------------------------------------------
Na   c Cl   s Buckingham    Buckingham A     2314.7000    eV        0.000 12.000
                            Buckingham rho  0.29000000    Ang       
                            Buckingham C     0.0000000    eV*Ang^6  
--------------------------------------------------------------------------------
O    s O    s Buckingham    Buckingham A     22764.300    eV        0.000 12.000
                            Buckingham rho  0.14900000    Ang       
                            Buckingham C     13.190000    eV*Ang^6  
--------------------------------------------------------------------------------
O    s Cl   s Buckingham    Buckingham A     8286.9100    eV        0.000 12.000
                            Buckingham rho  0.25900000    Ang       
                            Buckingham C     62.200000    eV*Ang^6  
--------------------------------------------------------------------------------
Cl   s Cl   s Buckingham    Buckingham A     1227.2000    eV        0.000 12.000
                            Buckingham rho  0.32100000    Ang       
                            Buckingham C     14.530000    eV*Ang^6  
--------------------------------------------------------------------------------
O    s Mg   s Buckingham    Buckingham A     1428.5000    eV        0.000 12.000
                            Buckingham rho  0.29450000    Ang       
                            Buckingham C     0.0000000    eV*Ang^6  
--------------------------------------------------------------------------------
Mg   s Cl   s Buckingham    Buckingham A     4914.5400    eV        0.000 12.000
                            Buckingham rho  0.25700000    Ang       
                            Buckingham C     0.0000000    eV*Ang^6  
--------------------------------------------------------------------------------
O    s Ca   s Buckingham    Buckingham A     1090.4000    eV        0.000 12.000
                            Buckingham rho  0.34370000    Ang       
                            Buckingham C     0.0000000    eV*Ang^6  
--------------------------------------------------------------------------------
Cl   s Ca   s Buckingham    Buckingham A     2302.0000    eV        0.000 12.000
                            Buckingham rho  0.34020000    Ang       
                            Buckingham C     0.0000000    eV*Ang^6  
--------------------------------------------------------------------------------
O    s Sr   s Buckingham    Buckingham A     959.10000    eV        0.000 12.000
                            Buckingham rho  0.37210000    Ang       
                            Buckingham C     0.0000000    eV*Ang^6  
--------------------------------------------------------------------------------
Cl   s Sr   s Buckingham    Buckingham A     2191.0900    eV        0.000 12.000
                            Buckingham rho  0.34570000    Ang       
                            Buckingham C     0.0000000    eV*Ang^6  
--------------------------------------------------------------------------------
O    s Ba   s Buckingham    Buckingham A     905.70000    eV        0.000 12.000
                            Buckingham rho  0.39760000    Ang       
                            Buckingham C     0.0000000    eV*Ang^6  
--------------------------------------------------------------------------------
Cl   s Ba   s Buckingham    Buckingham A     2704.5500    eV        0.000 12.000
                            Buckingham rho  0.35280000    Ang       
                            Buckingham C     0.0000000    eV*Ang^6  
--------------------------------------------------------------------------------

********************************************************************************
*  Output for configuration   1                                                *
********************************************************************************


  Components of energy : 

--------------------------------------------------------------------------------
  Interatomic potentials     =           5.13022605 eV    
  Monopole - monopole (real) =         -10.03624526 eV    
  Monopole - monopole (recip)=         -29.53581274 eV    
  Monopole - monopole (total)=         -39.57205800 eV    
--------------------------------------------------------------------------------
  Total lattice energy       =         -34.44183194 eV    
--------------------------------------------------------------------------------
  Total lattice energy       =           -3323.1103 kJ/(mole unit cells)
--------------------------------------------------------------------------------


  Number of variables =        1

  Maximum number of calculations  =          1000
  Maximum Hessian update interval =            10
  Maximum step size               =   1.000000000
  Maximum parameter tolerance     =   0.000010000
  Maximum function  tolerance     =   0.000010000
  Maximum gradient  tolerance     =   0.001000000
  Maximum gradient  component     =   0.010000000

  Symmetry constrained optimisation

  Symmetry used for second derivatives

  Cell parameters to be optimised using strains

  Newton-Raphson optimiser to be used

  BFGS hessian update to be used

  Lower half triangular hessian to be used

  Start of bulk optimisation :

  Cycle:      0 Energy:       -34.441832  Gnorm:      0.196570  CPU:    0.017
  ** Hessian calculated **
  Cycle:      1 Energy:       -34.441914  Gnorm:      0.000103  CPU:    0.021


  **** Optimisation achieved ****


  Final energy =     -34.44191447 eV
  Final Gnorm  =       0.00000000

  Components of energy : 

--------------------------------------------------------------------------------
  Interatomic potentials     =           5.09689708 eV    
  Monopole - monopole (real) =         -10.02781331 eV    
  Monopole - monopole (recip)=         -29.51099824 eV    
  Monopole - monopole (total)=         -39.53881155 eV    
--------------------------------------------------------------------------------
  Total lattice energy       =         -34.44191447 eV    
--------------------------------------------------------------------------------
  Total lattice energy       =           -3323.1183 kJ/(mole unit cells)
--------------------------------------------------------------------------------

  Final asymmetric unit coordinates :

--------------------------------------------------------------------------------
   No.  Atomic        x           y           z         Radius
        Label       (Frac)      (Frac)      (Frac)       (Angs) 
--------------------------------------------------------------------------------
     1  Cl    c     0.000000    0.000000    0.000000    0.000000
     2  O     c     0.500000    0.500000    0.500000    0.000000
     3  Na    c     0.500000    0.500000    0.000000    0.000000
     4  Cl    s     0.000000    0.000000    0.000000    0.000000
     5  O     s     0.500000    0.500000    0.500000    0.000000
--------------------------------------------------------------------------------

  Final Cartesian lattice vectors (Angstroms) :

        4.507787    0.000000    0.000000
        0.000000    4.507787    0.000000
        0.000000    0.000000    4.507787


  Final cell parameters and derivatives :

--------------------------------------------------------------------------------
       a            4.507787 Angstrom     dE/de1(xx)     0.000000 eV/strain
       b            4.507787 Angstrom     dE/de2(yy)     0.000000 eV/strain
       c            4.507787 Angstrom     dE/de3(zz)     0.000000 eV/strain
       alpha       90.000000 Degrees      dE/de4(yz)     0.000000 eV/strain
       beta        90.000000 Degrees      dE/de5(xz)     0.000000 eV/strain
       gamma       90.000000 Degrees      dE/de6(xy)     0.000000 eV/strain
--------------------------------------------------------------------------------

  Primitive cell volume =            91.598892 Angs**3

  Density of cell =      2.183054 g/cm**3

  Non-primitive cell volume =            91.598892 Angs**3


  Final internal derivatives :

--------------------------------------------------------------------------------
   No.  Atomic          a             b             c           Radius
        Label          (eV)          (eV)          (eV)        (eV/Angs)
--------------------------------------------------------------------------------
      1 Cl    c       0.000000      0.000000      0.000000      0.000000
      2 O     c       0.000000      0.000000      0.000000      0.000000
      3 Na    c       0.000000      0.000000      0.000000      0.000000
      4 Cl    s       0.000000      0.000000      0.000000      0.000000
      5 O     s       0.000000      0.000000      0.000000      0.000000
--------------------------------------------------------------------------------
  Maximum abs         0.000000      0.000000      0.000000      0.000000
--------------------------------------------------------------------------------

  Comparison of initial and final structures : 

--------------------------------------------------------------------------------
  Parameter   Initial value   Final value   Difference    Units      Percent
--------------------------------------------------------------------------------
    Volume        91.368216     91.598892     0.230676    Angs**3      0.25
    a              4.504000      4.507787     0.003787    Angstroms    0.08
    b              4.504000      4.507787     0.003787    Angstroms    0.08
    c              4.504000      4.507787     0.003787    Angstroms    0.08
    alpha         90.000000     90.000000     0.000000    Degrees      0.00
    beta          90.000000     90.000000     0.000000    Degrees      0.00
    gamma         90.000000     90.000000     0.000000    Degrees      0.00
      1 x          0.000000      0.000000     0.000000    Fractional   0.00
      1 y          0.000000      0.000000     0.000000    Fractional   0.00
      1 z          0.000000      0.000000     0.000000    Fractional   0.00
      2 x          0.500000      0.500000     0.000000    Fractional   0.00
      2 y          0.500000      0.500000     0.000000    Fractional   0.00
      2 z          0.500000      0.500000     0.000000    Fractional   0.00
      3 x          0.500000      0.500000     0.000000    Fractional   0.00
      3 y          0.500000      0.500000     0.000000    Fractional   0.00
      3 z          0.000000      0.000000     0.000000    Fractional   0.00
      4 x          0.000000      0.000000     0.000000    Fractional   0.00
      4 y          0.000000      0.000000     0.000000    Fractional   0.00
      4 z          0.000000      0.000000     0.000000    Fractional   0.00
      5 x          0.500000      0.500000     0.000000    Fractional   0.00
      5 y          0.500000      0.500000     0.000000    Fractional   0.00
      5 z          0.500000      0.500000     0.000000    Fractional   0.00
--------------------------------------------------------------------------------


  Born effective charge tensors : 

-------------------------------------------------------------------------------
  Atom             x           y             z
-------------------------------------------------------------------------------
    1 Cl    x      -1.0181     -0.0000      0.0000
            y      -0.0000     -1.0181      0.0000
            z       0.0000      0.0000     -1.0181
-------------------------------------------------------------------------------
    2 O     x      -2.2647      0.0000     -0.0000
            y       0.0000     -2.2647     -0.0000
            z      -0.0000     -0.0000     -2.2647
-------------------------------------------------------------------------------
    3 Na    x       1.2258     -0.0000      0.0000
            y      -0.0000      1.2258     -0.0000
            z       0.0000     -0.0000      0.8313
-------------------------------------------------------------------------------




  Elastic Constant Matrix: (Units=GPa)

-------------------------------------------------------------------------------
  Indices      1         2         3         4         5         6    
-------------------------------------------------------------------------------
       1     95.8177   20.0737   20.0737   -0.0000   -0.0000    0.0000
       2     20.0737   95.8177   20.0737   -0.0000   -0.0000    0.0000
       3     20.0737   20.0737   95.8177   -0.0000   -0.0000    0.0000
       4     -0.0000   -0.0000   -0.0000   20.0737   -0.0000    0.0000
       5     -0.0000   -0.0000   -0.0000   -0.0000   20.0737    0.0000
       6      0.0000    0.0000    0.0000    0.0000    0.0000   20.0737
-------------------------------------------------------------------------------


  Elastic Compliance Matrix: (Units=1/GPa)

-------------------------------------------------------------------------------
  Indices      1         2         3         4         5         6    
-------------------------------------------------------------------------------
       1    0.011253 -0.001949 -0.001949  0.000000  0.000000 -0.000000
       2   -0.001949  0.011253 -0.001949  0.000000  0.000000  0.000000
       3   -0.001949 -0.001949  0.011253  0.000000  0.000000 -0.000000
       4    0.000000  0.000000  0.000000  0.049816  0.000000 -0.000000
       5    0.000000  0.000000  0.000000  0.000000  0.049816 -0.000000
       6   -0.000000  0.000000 -0.000000 -0.000000 -0.000000  0.049816
-------------------------------------------------------------------------------

  Mechanical properties :

-------------------------------------------------------------------------------
  Convention :                    Reuss         Voigt         Hill
-------------------------------------------------------------------------------
  Bulk  Modulus (GPa)     =      45.32174      45.32174      45.32174
  Shear Modulus (GPa)     =      24.72085      27.19304      25.95695
-------------------------------------------------------------------------------
  Velocity S-wave (km/s)  =       3.36511       3.52937       3.44822
  Velocity P-wave (km/s)  =       5.98827       6.11304       6.05098
-------------------------------------------------------------------------------
  Compressibility (1/GPa) =    0.02206447
-------------------------------------------------------------------------------
  Stress axis :                     x             y             z
-------------------------------------------------------------------------------
  Youngs Moduli (GPa)     =      88.86373      88.86373      88.86373
-------------------------------------------------------------------------------
  Poissons Ratio (x)      =                     0.17321       0.17321
  Poissons Ratio (y)      =       0.17321                     0.17321
  Poissons Ratio (z)      =       0.17321       0.17321
-------------------------------------------------------------------------------


  Piezoelectric Strain Matrix: (Units=C/m**2)

-------------------------------------------------------------------------------
  Indices      1         2         3         4         5         6    
-------------------------------------------------------------------------------
       x    -0.00000  -0.00000  -0.00000   0.00000  -0.00000  -0.00000
       y    -0.00000  -0.00000   0.00000  -0.00000   0.00000   0.00000
       z    -0.00000  -0.00000  -0.00000  -0.00000   0.00000   0.00000
-------------------------------------------------------------------------------


  Piezoelectric Stress Matrix: (Units=10**-11 C/N)

-------------------------------------------------------------------------------
  Indices      1         2         3         4         5         6    
-------------------------------------------------------------------------------
       x    -0.00000   0.00000   0.00000   0.00000  -0.00000  -0.00000
       y    -0.00000  -0.00000   0.00000  -0.00000   0.00000   0.00000
       z     0.00000   0.00000  -0.00000  -0.00000   0.00000   0.00000
-------------------------------------------------------------------------------


  Static dielectric constant tensor : 

-------------------------------------------------------------------------------
              x         y         z
-------------------------------------------------------------------------------
       x    22.84729   0.00000   0.00000
       y     0.00000  22.84729  -0.00000
       z     0.00000  -0.00000  22.84729
--------------------------------------------------------------------------------

  High frequency dielectric constant tensor : 

-------------------------------------------------------------------------------
              x         y         z
-------------------------------------------------------------------------------
       x     1.47557   0.00000  -0.00000
       y     0.00000   1.47557  -0.00000
       z    -0.00000  -0.00000   1.47557
-------------------------------------------------------------------------------

  Static refractive indices : 

-------------------------------------------------------------------------------
    1 =    4.77988      2 =    4.77988      3 =    4.77988
-------------------------------------------------------------------------------

  High frequency refractive indices : 

-------------------------------------------------------------------------------
    1 =    1.21473      2 =    1.21473      3 =    1.21473
-------------------------------------------------------------------------------


  Time to end of optimisation =       0.0307 seconds

********************************************************************************
*  Defect calculation for configuration   1 :                                  *
********************************************************************************

  Total number of defects =      3

  Total charge on defect  =  -1.00

  Defect centre is at   0.5000   0.2200   0.2800  Frac

  Region 1 radius =  12.0000      Number of ions =    555

  Number of symmetry inequivalent region 1 ions  =    321

  Region 2 radius =  16.0000      Number of ions =    772

  Number of symmetry inequivalent region 2a ions =    422

  Region 2a mode = 4 : screened electrostatics due to region 1 
                       neglect correction to region 1 forces from 2a
                       region 2a displacements based on defects only

  Region 2a ions will only interact with defects in region 1

  Vacancies:

--------------------------------------------------------------------------------
    Specification type     Symbol/Number         x          y          z
--------------------------------------------------------------------------------
    Fractional                               0.500000   0.500000   0.000000
    Fractional                               0.500000   0.000000   0.500000
--------------------------------------------------------------------------------

  Interstitials:

--------------------------------------------------------------------------------
    Specification type     Symbol/Number         x          y          z
--------------------------------------------------------------------------------
    Atom/Fractional         Na               0.500000   0.220000   0.280000
--------------------------------------------------------------------------------


  Symmetry reduced region 1 (Relative to defect centre) :

--------------------------------------------------------------------------------
   No.   Atomic       x            y             z       Radius  Multiplicity   
         Label      (Angs)       (Angs)        (Angs)    (Angs)     
--------------------------------------------------------------------------------
     1  Na    c      0.0000       0.0000       0.0000    0.0000     1    Defect
     2  O     c      0.0000       1.2622 *     0.9917 *  0.0000     1          
     3  Na    c      2.2539 *     1.2622 *     0.9917 *  0.0000     2          
     4  Cl    c      2.2539 *    -0.9917 *    -1.2622 *  0.0000     2          
     5  O     c      0.0000      -3.2456 *     0.9917 *  0.0000     1          
     6  Na    c      0.0000       1.2622 *     3.2456 *  0.0000     1          
     7  Na    c      0.0000      -3.2456 *    -1.2622 *  0.0000     1          
     8  Na    c      0.0000       3.5161 *     0.9917 *  0.0000     1          
     9  Na    c      0.0000      -0.9917 *    -3.5161 *  0.0000     1          
    10  O     c      0.0000       1.2622 *    -3.5161 *  0.0000     1          
    11  Na    c      2.2539 *    -3.2456 *     0.9917 *  0.0000     2          
    12  Cl    c      2.2539 *    -0.9917 *     3.2456 *  0.0000     2          
    13  Cl    c      2.2539 *     3.5161 *    -1.2622 *  0.0000     2          
    14  Na    c      2.2539 *     1.2622 *    -3.5161 *  0.0000     2          
    15  Na    c      0.0000      -3.2456 *     3.2456 *  0.0000     1          
    16  Na    c     -4.5078 *    -0.9917 *     0.9917 *  0.0000     2          
    17  O     c      0.0000      -3.2456 *    -3.5161 *  0.0000     1          
    18  O     c     -4.5078 *     1.2622 *     0.9917 *  0.0000     2          
    19  Na    c     -4.5078 *     1.2622 *    -1.2622 *  0.0000     2          
    20  Na    c      0.0000       3.5161 *    -3.5161 *  0.0000     1          
    21  Cl    c      2.2539 *     3.5161 *     3.2456 *  0.0000     2          
    22  Na    c      2.2539 *    -3.2456 *    -3.5161 *  0.0000     2          
    23  Na    c      0.0000      -0.9917 *     5.4995 *  0.0000     1          
    24  Na    c      0.0000      -5.4995 *     0.9917 *  0.0000     1          
    25  O     c      0.0000       1.2622 *     5.4995 *  0.0000     1          
    26  O     c     -4.5078 *    -3.2456 *     0.9917 *  0.0000     2          
    27  Na    c     -4.5078 *     1.2622 *     3.2456 *  0.0000     2          
    28  Na    c     -4.5078 *    -3.2456 *    -1.2622 *  0.0000     2          
    29  Na    c     -4.5078 *    -0.9917 *    -3.5161 *  0.0000     2          
    30  Na    c     -4.5078 *     3.5161 *     0.9917 *  0.0000     2          
    31  O     c      0.0000       5.7700 *     0.9917 *  0.0000     1          
    32  O     c     -4.5078 *     1.2622 *    -3.5161 *  0.0000     2          
    33  Na    c      0.0000       1.2622 *    -5.7700 *  0.0000     1          
    34  Na    c      0.0000       5.7700 *    -1.2622 *  0.0000     1          
    35  Na    c      2.2539 *     1.2622 *     5.4995 *  0.0000     2          
    36  Cl    c      2.2539 *    -5.4995 *    -1.2622 *  0.0000     2          
    37  Cl    c      2.2539 *    -0.9917 *    -5.7700 *  0.0000     2          
    38  Na    c      2.2539 *     5.7700 *     0.9917 *  0.0000     2          
    39  O     c      0.0000      -3.2456 *     5.4995 *  0.0000     1          
    40  Na    c      4.5078 *    -3.2456 *     3.2456 *  0.0000     2          
    41  Na    c      0.0000       3.5161 *     5.4995 *  0.0000     1          
    42  Na    c      0.0000      -5.4995 *    -3.5161 *  0.0000     1          
    43  O     c     -4.5078 *    -3.2456 *    -3.5161 *  0.0000     2          
    44  Na    c      0.0000       5.7700 *     3.2456 *  0.0000     1          
    45  Na    c      0.0000      -3.2456 *    -5.7700 *  0.0000     1          
    46  Na    c      4.5078 *     3.5161 *    -3.5161 *  0.0000     2          
    47  O     c      0.0000       5.7700 *    -3.5161 *  0.0000     1          
    48  Na    c      2.2539 *    -3.2456 *     5.4995 *  0.0000     2          
    49  Cl    c      2.2539 *    -5.4995 *     3.2456 *  0.0000     2          
    50  Cl    c      6.7617 *    -0.9917 *    -1.2622 *  0.0000     2          
    51  Na    c      6.7617 *     1.2622 *     0.9917 *  0.0000     2          
    52  Cl    c      2.2539 *     3.5161 *    -5.7700 *  0.0000     2          
    53  Na    c      2.2539 *     5.7700 *    -3.5161 *  0.0000     2          
    54  Na    c     -4.5078 *    -0.9917 *     5.4995 *  0.0000     2          
    55  Na    c      4.5078 *    -5.4995 *     0.9917 *  0.0000     2          
    56  O     c      4.5078 *     1.2622 *     5.4995 *  0.0000     2          
    57  O     c     -4.5078 *     5.7700 *     0.9917 *  0.0000     2          
    58  Na    c     -4.5078 *     5.7700 *    -1.2622 *  0.0000     2          
    59  Na    c      4.5078 *     1.2622 *    -5.7700 *  0.0000     2          
    60  Na    c      6.7617 *    -3.2456 *     0.9917 *  0.0000     2          
    61  Cl    c      6.7617 *    -0.9917 *     3.2456 *  0.0000     2          
    62  Cl    c      6.7617 *     3.5161 *    -1.2622 *  0.0000     2          
    63  Na    c      6.7617 *     1.2622 *    -3.5161 *  0.0000     2          
    64  Na    c      0.0000      -5.4995 *     5.4995 *  0.0000     1          
    65  O     c     -4.5078 *    -3.2456 *     5.4995 *  0.0000     2          
    66  O     c      0.0000      -7.7534 *     0.9917 *  0.0000     1          
    67  Na    c      0.0000       1.2622 *     7.7534 *  0.0000     1          
    68  Na    c      0.0000      -7.7534 *    -1.2622 *  0.0000     1          
    69  Na    c     -4.5078 *     3.5161 *     5.4995 *  0.0000     2          
    70  Na    c      4.5078 *    -5.4995 *    -3.5161 *  0.0000     2          
    71  O     c      0.0000       5.7700 *     5.4995 *  0.0000     1          
    72  Na    c     -4.5078 *     5.7700 *     3.2456 *  0.0000     2          
    73  Na    c      4.5078 *    -3.2456 *    -5.7700 *  0.0000     2          
    74  Na    c      0.0000      -0.9917 *    -8.0239 *  0.0000     1          
    75  Na    c      0.0000       8.0239 *     0.9917 *  0.0000     1          
    76  O     c      0.0000       1.2622 *    -8.0239 *  0.0000     1          
    77  O     c     -4.5078 *     5.7700 *    -3.5161 *  0.0000     2          
    78  Cl    c      2.2539 *    -0.9917 *     7.7534 *  0.0000     2          
    79  Na    c      2.2539 *    -7.7534 *     0.9917 *  0.0000     2          
    80  Na    c      0.0000       5.7700 *    -5.7700 *  0.0000     1          
    81  Na    c      2.2539 *     5.7700 *     5.4995 *  0.0000     2          
    82  Cl    c      2.2539 *    -5.4995 *    -5.7700 *  0.0000     2          
    83  Cl    c      6.7617 *     3.5161 *     3.2456 *  0.0000     2          
    84  Na    c      6.7617 *    -3.2456 *    -3.5161 *  0.0000     2          
    85  Na    c      0.0000      -3.2456 *     7.7534 *  0.0000     1          
    86  Na    c      0.0000      -7.7534 *     3.2456 *  0.0000     1          
    87  Cl    c      2.2539 *     8.0239 *    -1.2622 *  0.0000     2          
    88  Na    c      2.2539 *     1.2622 *    -8.0239 *  0.0000     2          
    89  O     c      0.0000      -7.7534 *    -3.5161 *  0.0000     1          
    90  O     c      0.0000      -3.2456 *    -8.0239 *  0.0000     1          
    91  Na    c      0.0000       3.5161 *    -8.0239 *  0.0000     1          
    92  Na    c      0.0000       8.0239 *    -3.5161 *  0.0000     1          
    93  Cl    c      2.2539 *     3.5161 *     7.7534 *  0.0000     2          
    94  Cl    c      6.7617 *    -5.4995 *    -1.2622 *  0.0000     2          
    95  Na    c      2.2539 *    -7.7534 *    -3.5161 *  0.0000     2          
    96  Na    c      6.7617 *     1.2622 *     5.4995 *  0.0000     2          
    97  Cl    c      2.2539 *     8.0239 *     3.2456 *  0.0000     2          
    98  Na    c      2.2539 *    -3.2456 *    -8.0239 *  0.0000     2          
    99  Cl    c      6.7617 *    -0.9917 *    -5.7700 *  0.0000     2          
   100  Na    c      6.7617 *     5.7700 *     0.9917 *  0.0000     2          
   101  Na    c      4.5078 *    -5.4995 *     5.4995 *  0.0000     2          
   102  O     c      4.5078 *    -7.7534 *     0.9917 *  0.0000     2          
   103  Na    c     -4.5078 *     1.2622 *     7.7534 *  0.0000     2          
   104  Na    c      4.5078 *    -7.7534 *    -1.2622 *  0.0000     2          
   105  Na    c      9.0156 *    -0.9917 *     0.9917 *  0.0000     2          
   106  O     c      9.0156 *     1.2622 *     0.9917 *  0.0000     2          
   107  O     c     -4.5078 *     5.7700 *     5.4995 *  0.0000     2          
   108  Na    c      9.0156 *     1.2622 *    -1.2622 *  0.0000     2          
   109  Na    c     -4.5078 *     8.0239 *     0.9917 *  0.0000     2          
   110  Na    c      4.5078 *    -0.9917 *    -8.0239 *  0.0000     2          
   111  O     c      4.5078 *     1.2622 *    -8.0239 *  0.0000     2          
   112  Cl    c      6.7617 *    -5.4995 *     3.2456 *  0.0000     2          
   113  Na    c      6.7617 *    -3.2456 *     5.4995 *  0.0000     2          
   114  Na    c     -4.5078 *     5.7700 *    -5.7700 *  0.0000     2          
   115  O     c      0.0000      -7.7534 *     5.4995 *  0.0000     1          
   116  Na    c      4.5078 *    -7.7534 *     3.2456 *  0.0000     2          
   117  Na    c     -4.5078 *    -3.2456 *     7.7534 *  0.0000     2          
   118  Cl    c      6.7617 *     3.5161 *    -5.7700 *  0.0000     2          
   119  Na    c      6.7617 *     5.7700 *    -3.5161 *  0.0000     2          
   120  O     c      9.0156 *    -3.2456 *     0.9917 *  0.0000     2          
   121  O     c      4.5078 *    -7.7534 *    -3.5161 *  0.0000     2          
   122  Na    c      9.0156 *     1.2622 *     3.2456 *  0.0000     2          
   123  Na    c      0.0000       5.7700 *     7.7534 *  0.0000     1          
   124  Na    c      0.0000      -7.7534 *    -5.7700 *  0.0000     1          
   125  Na    c      9.0156 *    -3.2456 *    -1.2622 *  0.0000     2          
   126  Na    c      0.0000       8.0239 *     5.4995 *  0.0000     1          
   127  Na    c      0.0000      -5.4995 *    -8.0239 *  0.0000     1          
   128  Na    c      9.0156 *    -0.9917 *    -3.5161 *  0.0000     2          
   129  Na    c      9.0156 *     3.5161 *     0.9917 *  0.0000     2          
   130  O     c      4.5078 *    -3.2456 *    -8.0239 *  0.0000     2          
   131  O     c      9.0156 *     1.2622 *    -3.5161 *  0.0000     2          
   132  Cl    c      2.2539 *    -5.4995 *     7.7534 *  0.0000     2          
   133  Na    c      2.2539 *    -7.7534 *     5.4995 *  0.0000     2          
   134  Na    c      4.5078 *     3.5161 *    -8.0239 *  0.0000     2          
   135  Na    c     -4.5078 *     8.0239 *    -3.5161 *  0.0000     2          
   136  O     c      0.0000       5.7700 *    -8.0239 *  0.0000     1          
   137  Na    c      0.0000      -0.9917 *    10.0073 *  0.0000     1          
   138  Na    c      0.0000     -10.0073 *     0.9917 *  0.0000     1          
   139  O     c      0.0000       1.2622 *    10.0073 *  0.0000     1          
   140  Na    c      9.0156 *    -3.2456 *     3.2456 *  0.0000     2          
   141  Cl    c      2.2539 *     8.0239 *    -5.7700 *  0.0000     2          
   142  Na    c      2.2539 *     5.7700 *    -8.0239 *  0.0000     2          
   143  O     c      9.0156 *    -3.2456 *    -3.5161 *  0.0000     2          
   144  Na    c      9.0156 *     3.5161 *    -3.5161 *  0.0000     2          
   145  O     c      0.0000      10.2778 *     0.9917 *  0.0000     1          
   146  Na    c      6.7617 *    -7.7534 *     0.9917 *  0.0000     2          
   147  Cl    c      2.2539 *   -10.0073 *    -1.2622 *  0.0000     2          
   148  Cl    c      6.7617 *    -0.9917 *     7.7534 *  0.0000     2          
   149  Na    c      2.2539 *     1.2622 *    10.0073 *  0.0000     2          
   150  Na    c      0.0000       1.2622 *   -10.2778 *  0.0000     1          
   151  Na    c      0.0000      10.2778 *    -1.2622 *  0.0000     1          
   152  Cl    c      6.7617 *    -5.4995 *    -5.7700 *  0.0000     2          
   153  Na    c      6.7617 *     5.7700 *     5.4995 *  0.0000     2          
   154  O     c      0.0000      -3.2456 *    10.0073 *  0.0000     1          
   155  O     c      4.5078 *    -7.7534 *     5.4995 *  0.0000     2          
   156  Na    c      6.7617 *     1.2622 *    -8.0239 *  0.0000     2          
   157  Cl    c      2.2539 *    -0.9917 *   -10.2778 *  0.0000     2          
   158  Cl    c      6.7617 *     8.0239 *    -1.2622 *  0.0000     2          
   159  Na    c      2.2539 *    10.2778 *     0.9917 *  0.0000     2          
   160  Na    c      9.0156 *    -0.9917 *     5.4995 *  0.0000     2          
   161  Na    c      9.0156 *    -5.4995 *     0.9917 *  0.0000     2          
   162  Na    c      0.0000       3.5161 *    10.0073 *  0.0000     1          
   163  Na    c      0.0000     -10.0073 *    -3.5161 *  0.0000     1          
   164  O     c      9.0156 *     1.2622 *     5.4995 *  0.0000     2          
   165  Na    c      4.5078 *     5.7700 *     7.7534 *  0.0000     2          
   166  Na    c      4.5078 *    -7.7534 *    -5.7700 *  0.0000     2          
   167  Na    c     -4.5078 *     8.0239 *     5.4995 *  0.0000     2          
   168  Na    c      4.5078 *    -5.4995 *    -8.0239 *  0.0000     2          
   169  O     c      9.0156 *     5.7700 *     0.9917 *  0.0000     2          
   170  Cl    c      2.2539 *   -10.0073 *     3.2456 *  0.0000     2          
   171  Na    c      2.2539 *    -3.2456 *    10.0073 *  0.0000     2          
   172  Na    c      9.0156 *     1.2622 *    -5.7700 *  0.0000     2          
   173  Na    c      0.0000      10.2778 *     3.2456 *  0.0000     1          
   174  Na    c      0.0000      -3.2456 *   -10.2778 *  0.0000     1          
   175  Na    c      9.0156 *     5.7700 *    -1.2622 *  0.0000     2          
   176  O     c     -4.5078 *     5.7700 *    -8.0239 *  0.0000     2          
   177  O     c      0.0000      10.2778 *    -3.5161 *  0.0000     1          
   178  Cl    c      6.7617 *     3.5161 *     7.7534 *  0.0000     2          
   179  Na    c      6.7617 *    -7.7534 *    -3.5161 *  0.0000     2          
   180  Na    c      0.0000      -7.7534 *     7.7534 *  0.0000     1          
   181  Cl    c      6.7617 *     8.0239 *     3.2456 *  0.0000     2          
   182  Na    c      6.7617 *    -3.2456 *    -8.0239 *  0.0000     2          
   183  Na    c     -4.5078 *   -10.0073 *     0.9917 *  0.0000     2          
   184  Na    c      4.5078 *    -0.9917 *    10.0073 *  0.0000     2          
   185  O     c      9.0156 *    -3.2456 *     5.4995 *  0.0000     2          
   186  O     c      4.5078 *     1.2622 *    10.0073 *  0.0000     2          
   187  Cl    c      2.2539 *     3.5161 *   -10.2778 *  0.0000     2          
   188  Na    c      2.2539 *    10.2778 *    -3.5161 *  0.0000     2          
   189  Na    c      9.0156 *     3.5161 *     5.4995 *  0.0000     2          
   190  Na    c      9.0156 *    -5.4995 *    -3.5161 *  0.0000     2          
   191  O     c      0.0000      -7.7534 *    -8.0239 *  0.0000     1          
   192  Na    c      9.0156 *     5.7700 *     3.2456 *  0.0000     2          
   193  Na    c      9.0156 *    -3.2456 *    -5.7700 *  0.0000     2          
   194  O     c      9.0156 *     5.7700 *    -3.5161 *  0.0000     2          
   195  O     c     -4.5078 *    10.2778 *     0.9917 *  0.0000     2          
   196  Na    c      4.5078 *     1.2622 *   -10.2778 *  0.0000     2          
   197  Na    c     -4.5078 *    10.2778 *    -1.2622 *  0.0000     2          
   198  Na    c      0.0000       8.0239 *    -8.0239 *  0.0000     1          
   199  Cl    c     11.2695 *    -0.9917 *    -1.2622 *  0.0000     2          
   200  Cl    c      2.2539 *     8.0239 *     7.7534 *  0.0000     2          
   201  Na    c      2.2539 *    -7.7534 *    -8.0239 *  0.0000     2          
   202  Na    c     11.2695 *     1.2622 *     0.9917 *  0.0000     2          
   203  Na    c      0.0000      -5.4995 *    10.0073 *  0.0000     1          
   204  Na    c      0.0000     -10.0073 *     5.4995 *  0.0000     1          
   205  O     c      4.5078 *    -3.2456 *    10.0073 *  0.0000     2          
   206  Na    c      4.5078 *     3.5161 *    10.0073 *  0.0000     2          
   207  Na    c      4.5078 *   -10.0073 *    -3.5161 *  0.0000     2          
   208  O     c      0.0000       5.7700 *    10.0073 *  0.0000     1          
   209  O     c      0.0000      10.2778 *     5.4995 *  0.0000     1          
   210  Cl    c      6.7617 *    -5.4995 *     7.7534 *  0.0000     2          
   211  Na    c      6.7617 *    -7.7534 *     5.4995 *  0.0000     2          
   212  Na    c      4.5078 *    10.2778 *     3.2456 *  0.0000     2          
   213  Na    c      4.5078 *    -3.2456 *   -10.2778 *  0.0000     2          
   214  O     c      4.5078 *    10.2778 *    -3.5161 *  0.0000     2          
   215  Cl    c     11.2695 *    -0.9917 *     3.2456 *  0.0000     2          
   216  Cl    c      2.2539 *   -10.0073 *    -5.7700 *  0.0000     2          
   217  Na    c      2.2539 *     5.7700 *    10.0073 *  0.0000     2          
   218  Na    c     11.2695 *    -3.2456 *     0.9917 *  0.0000     2          
   219  Na    c      0.0000       5.7700 *   -10.2778 *  0.0000     1          
   220  Na    c      0.0000      10.2778 *    -5.7700 *  0.0000     1          
   221  Na    c      4.5078 *    -7.7534 *     7.7534 *  0.0000     2          
   222  Cl    c     11.2695 *     3.5161 *    -1.2622 *  0.0000     2          
   223  Na    c      2.2539 *    10.2778 *     5.4995 *  0.0000     2          
   224  Na    c     11.2695 *     1.2622 *    -3.5161 *  0.0000     2          
   225  Cl    c      2.2539 *    -5.4995 *   -10.2778 *  0.0000     2          
   226  Na    c      9.0156 *    -5.4995 *     5.4995 *  0.0000     2          
   227  O     c      9.0156 *    -7.7534 *     0.9917 *  0.0000     2          
   228  Na    c      9.0156 *     1.2622 *     7.7534 *  0.0000     2          
   229  Na    c      9.0156 *    -7.7534 *    -1.2622 *  0.0000     2          
   230  Cl    c      6.7617 *     8.0239 *    -5.7700 *  0.0000     2          
   231  Na    c      6.7617 *     5.7700 *    -8.0239 *  0.0000     2          
   232  O     s      0.0000       1.2622 *     0.9917 *  0.0000     1          
   233  Cl    s      2.2539 *    -0.9917 *    -1.2622 *  0.0000     2          
   234  O     s      0.0000      -3.2456 *     0.9917 *  0.0000     1          
   235  O     s      0.0000       1.2622 *    -3.5161 *  0.0000     1          
   236  Cl    s      2.2539 *    -0.9917 *     3.2456 *  0.0000     2          
   237  Cl    s      2.2539 *     3.5161 *    -1.2622 *  0.0000     2          
   238  O     s      0.0000      -3.2456 *    -3.5161 *  0.0000     1          
   239  O     s     -4.5078 *     1.2622 *     0.9917 *  0.0000     2          
   240  Cl    s      2.2539 *     3.5161 *     3.2456 *  0.0000     2          
   241  O     s      0.0000       1.2622 *     5.4995 *  0.0000     1          
   242  O     s     -4.5078 *    -3.2456 *     0.9917 *  0.0000     2          
   243  O     s      0.0000       5.7700 *     0.9917 *  0.0000     1          
   244  O     s     -4.5078 *     1.2622 *    -3.5161 *  0.0000     2          
   245  Cl    s      2.2539 *    -5.4995 *    -1.2622 *  0.0000     2          
   246  Cl    s      2.2539 *    -0.9917 *    -5.7700 *  0.0000     2          
   247  O     s      0.0000      -3.2456 *     5.4995 *  0.0000     1          
   248  O     s     -4.5078 *    -3.2456 *    -3.5161 *  0.0000     2          
   249  O     s      0.0000       5.7700 *    -3.5161 *  0.0000     1          
   250  Cl    s      2.2539 *    -5.4995 *     3.2456 *  0.0000     2          
   251  Cl    s      6.7617 *    -0.9917 *    -1.2622 *  0.0000     2          
   252  Cl    s      2.2539 *     3.5161 *    -5.7700 *  0.0000     2          
   253  O     s      4.5078 *     1.2622 *     5.4995 *  0.0000     2          
   254  O     s     -4.5078 *     5.7700 *     0.9917 *  0.0000     2          
   255  Cl    s      6.7617 *    -0.9917 *     3.2456 *  0.0000     2          
   256  Cl    s      6.7617 *     3.5161 *    -1.2622 *  0.0000     2          
   257  O     s     -4.5078 *    -3.2456 *     5.4995 *  0.0000     2          
   258  O     s      0.0000      -7.7534 *     0.9917 *  0.0000     1          
   259  O     s      0.0000       5.7700 *     5.4995 *  0.0000     1          
   260  O     s      0.0000       1.2622 *    -8.0239 *  0.0000     1          
   261  O     s     -4.5078 *     5.7700 *    -3.5161 *  0.0000     2          
   262  Cl    s      2.2539 *    -0.9917 *     7.7534 *  0.0000     2          
   263  Cl    s      2.2539 *    -5.4995 *    -5.7700 *  0.0000     2          
   264  Cl    s      6.7617 *     3.5161 *     3.2456 *  0.0000     2          
   265  Cl    s      2.2539 *     8.0239 *    -1.2622 *  0.0000     2          
   266  O     s      0.0000      -7.7534 *    -3.5161 *  0.0000     1          
   267  O     s      0.0000      -3.2456 *    -8.0239 *  0.0000     1          
   268  Cl    s      2.2539 *     3.5161 *     7.7534 *  0.0000     2          
   269  Cl    s      6.7617 *    -5.4995 *    -1.2622 *  0.0000     2          
   270  Cl    s      2.2539 *     8.0239 *     3.2456 *  0.0000     2          
   271  Cl    s      6.7617 *    -0.9917 *    -5.7700 *  0.0000     2          
   272  O     s      4.5078 *    -7.7534 *     0.9917 *  0.0000     2          
   273  O     s      9.0156 *     1.2622 *     0.9917 *  0.0000     2          
   274  O     s     -4.5078 *     5.7700 *     5.4995 *  0.0000     2          
   275  O     s      4.5078 *     1.2622 *    -8.0239 *  0.0000     2          
   276  Cl    s      6.7617 *    -5.4995 *     3.2456 *  0.0000     2          
   277  O     s      0.0000      -7.7534 *     5.4995 *  0.0000     1          
   278  Cl    s      6.7617 *     3.5161 *    -5.7700 *  0.0000     2          
   279  O     s      9.0156 *    -3.2456 *     0.9917 *  0.0000     2          
   280  O     s      4.5078 *    -7.7534 *    -3.5161 *  0.0000     2          
   281  O     s      4.5078 *    -3.2456 *    -8.0239 *  0.0000     2          
   282  O     s      9.0156 *     1.2622 *    -3.5161 *  0.0000     2          
   283  Cl    s      2.2539 *    -5.4995 *     7.7534 *  0.0000     2          
   284  O     s      0.0000       5.7700 *    -8.0239 *  0.0000     1          
   285  O     s      0.0000       1.2622 *    10.0073 *  0.0000     1          
   286  Cl    s      2.2539 *     8.0239 *    -5.7700 *  0.0000     2          
   287  O     s      9.0156 *    -3.2456 *    -3.5161 *  0.0000     2          
   288  O     s      0.0000      10.2778 *     0.9917 *  0.0000     1          
   289  Cl    s      2.2539 *   -10.0073 *    -1.2622 *  0.0000     2          
   290  Cl    s      6.7617 *    -0.9917 *     7.7534 *  0.0000     2          
   291  Cl    s      6.7617 *    -5.4995 *    -5.7700 *  0.0000     2          
   292  O     s      0.0000      -3.2456 *    10.0073 *  0.0000     1          
   293  O     s      4.5078 *    -7.7534 *     5.4995 *  0.0000     2          
   294  Cl    s      2.2539 *    -0.9917 *   -10.2778 *  0.0000     2          
   295  Cl    s      6.7617 *     8.0239 *    -1.2622 *  0.0000     2          
   296  O     s      9.0156 *     1.2622 *     5.4995 *  0.0000     2          
   297  O     s      9.0156 *     5.7700 *     0.9917 *  0.0000     2          
   298  Cl    s      2.2539 *   -10.0073 *     3.2456 *  0.0000     2          
   299  O     s     -4.5078 *     5.7700 *    -8.0239 *  0.0000     2          
   300  O     s      0.0000      10.2778 *    -3.5161 *  0.0000     1          
   301  Cl    s      6.7617 *     3.5161 *     7.7534 *  0.0000     2          
   302  Cl    s      6.7617 *     8.0239 *     3.2456 *  0.0000     2          
   303  O     s      9.0156 *    -3.2456 *     5.4995 *  0.0000     2          
   304  O     s      4.5078 *     1.2622 *    10.0073 *  0.0000     2          
   305  Cl    s      2.2539 *     3.5161 *   -10.2778 *  0.0000     2          
   306  O     s      0.0000      -7.7534 *    -8.0239 *  0.0000     1          
   307  O     s      9.0156 *     5.7700 *    -3.5161 *  0.0000     2          
   308  O     s     -4.5078 *    10.2778 *     0.9917 *  0.0000     2          
   309  Cl    s     11.2695 *    -0.9917 *    -1.2622 *  0.0000     2          
   310  Cl    s      2.2539 *     8.0239 *     7.7534 *  0.0000     2          
   311  O     s      4.5078 *    -3.2456 *    10.0073 *  0.0000     2          
   312  O     s      0.0000       5.7700 *    10.0073 *  0.0000     1          
   313  O     s      0.0000      10.2778 *     5.4995 *  0.0000     1          
   314  Cl    s      6.7617 *    -5.4995 *     7.7534 *  0.0000     2          
   315  O     s      4.5078 *    10.2778 *    -3.5161 *  0.0000     2          
   316  Cl    s     11.2695 *    -0.9917 *     3.2456 *  0.0000     2          
   317  Cl    s      2.2539 *   -10.0073 *    -5.7700 *  0.0000     2          
   318  Cl    s     11.2695 *     3.5161 *    -1.2622 *  0.0000     2          
   319  Cl    s      2.2539 *    -5.4995 *   -10.2778 *  0.0000     2          
   320  O     s      9.0156 *    -7.7534 *     0.9917 *  0.0000     2          
   321  Cl    s      6.7617 *     8.0239 *    -5.7700 *  0.0000     2          
--------------------------------------------------------------------------------

  Components of defect energy : 

--------------------------------------------------------------------------------
  Region 1 - region 1                   =      6.12004861 eV
  Region 1 - region 2a (unrelaxed)      =      4.49863216 eV
  Region 1 - 2a (relaxed - correction)  =     -0.28501577 eV
  Region 1 (Total)                      =     10.33366499 eV
  Region 2a                             =      0.14243621 eV
  Region 2b                             =     -0.42989390 eV
--------------------------------------------------------------------------------
  Total defect energy                   =     10.04620730 eV
--------------------------------------------------------------------------------

  Largest displacement in region 2 =   0.0204 Angstroms


  Number of variables =      874

  Maximum number of calculations  =        1000
  Maximum Hessian update interval =          10
  Maximum step size               =   1.0000000
  Maximum parameter tolerance     =   0.0000100
  Maximum function  tolerance     =   0.0000100
  Maximum gradient  tolerance     =   0.0010000

  Symmetry adapted optimisation

  Symmetry to be used for second derivatives

  Newton-Raphson optimiser to be used

  BFGS hessian update to be used

  Lower half triangular hessian to be used

  Start of defect optimisation :

  Cycle:      0 Defect Energy:  10.046207  Gnorm:     0.023418  CPU:    2.890
  ** Hessian calculated **
  Cycle:      1 Defect Energy:   8.839761  Gnorm:     0.019386  CPU:    9.045
  ** Hessian calculated **
  Cycle:      2 Defect Energy:   7.913407  Gnorm:     0.015708  CPU:   18.829
  ** Hessian calculated **
  Cycle:      3 Defect Energy:   7.175100  Gnorm:     0.008337  CPU:   24.641
  Cycle:      4 Defect Energy:   6.981505  Gnorm:     0.008902  CPU:   29.390
  Cycle:      5 Defect Energy:   6.786854  Gnorm:     0.006737  CPU:   33.786
  Cycle:      6 Defect Energy:   6.532062  Gnorm:     0.007146  CPU:   38.906
  Cycle:      7 Defect Energy:   6.273507  Gnorm:     0.006155  CPU:   43.114
  Cycle:      8 Defect Energy:   5.944029  Gnorm:     0.005259  CPU:   50.573
  Cycle:      9 Defect Energy:   5.747478  Gnorm:     0.005871  CPU:   54.646
  Cycle:     10 Defect Energy:   5.581603  Gnorm:     0.003637  CPU:   58.463
  Cycle:     11 Defect Energy:   5.521082  Gnorm:     0.002778  CPU:   59.611
  Cycle:     12 Defect Energy:   5.459844  Gnorm:     0.002448  CPU:   60.660
  ** Hessian calculated **
  Cycle:     13 Defect Energy:   5.385607  Gnorm:     0.002202  CPU:   63.346
  Cycle:     14 Defect Energy:   5.344001  Gnorm:     0.002047  CPU:   64.438
  ** Hessian calculated **
  Cycle:     15 Defect Energy:   5.263959  Gnorm:     0.001770  CPU:   67.005
  Cycle:     16 Defect Energy:   5.167595  Gnorm:     0.001199  CPU:   67.984
  Cycle:     17 Defect Energy:   5.108368  Gnorm:     0.000799  CPU:   69.040
  Cycle:     18 Defect Energy:   5.082013  Gnorm:     0.000595  CPU:   69.976
  Cycle:     19 Defect Energy:   5.067464  Gnorm:     0.000388  CPU:   70.939
  Cycle:     20 Defect Energy:   5.067242  Gnorm:     0.000405  CPU:   71.902
  ** Hessian calculated **
  Cycle:     21 Defect Energy:   5.066287  Gnorm:     0.000267  CPU:   74.402
  Cycle:     22 Defect Energy:   5.065525  Gnorm:     0.000228  CPU:   75.324
  Cycle:     23 Defect Energy:   5.064684  Gnorm:     0.000222  CPU:   76.250
  Cycle:     24 Defect Energy:   5.063665  Gnorm:     0.000229  CPU:   77.178
  Cycle:     25 Defect Energy:   5.062617  Gnorm:     0.000236  CPU:   78.111
  Cycle:     26 Defect Energy:   5.061637  Gnorm:     0.000256  CPU:   81.712
  Cycle:     27 Defect Energy:   5.060439  Gnorm:     0.000273  CPU:   83.583
  Cycle:     28 Defect Energy:   5.059359  Gnorm:     0.000275  CPU:   84.746
  Cycle:     29 Defect Energy:   5.057889  Gnorm:     0.000291  CPU:   85.906
  Cycle:     30 Defect Energy:   5.056178  Gnorm:     0.000312  CPU:   87.054
  ** Hessian calculated **
  Cycle:     31 Defect Energy:   5.055541  Gnorm:     0.000286  CPU:   89.967
  Cycle:     32 Defect Energy:   5.054807  Gnorm:     0.000279  CPU:   91.038
  Cycle:     33 Defect Energy:   5.053751  Gnorm:     0.000270  CPU:   92.111
  Cycle:     34 Defect Energy:   5.052436  Gnorm:     0.000269  CPU:   93.286
  Cycle:     35 Defect Energy:   5.050611  Gnorm:     0.000267  CPU:   94.331
  Cycle:     36 Defect Energy:   5.048457  Gnorm:     0.000291  CPU:   95.340
  Cycle:     37 Defect Energy:   5.046386  Gnorm:     0.000318  CPU:   96.369
  Cycle:     38 Defect Energy:   5.044326  Gnorm:     0.000339  CPU:   97.424
  Cycle:     39 Defect Energy:   5.042170  Gnorm:     0.000381  CPU:   98.524
  Cycle:     40 Defect Energy:   5.039200  Gnorm:     0.000426  CPU:   99.516
  ** Hessian calculated **
  Cycle:     41 Defect Energy:   5.037939  Gnorm:     0.000404  CPU:  102.093
  Cycle:     42 Defect Energy:   5.036195  Gnorm:     0.000392  CPU:  103.108
  Cycle:     43 Defect Energy:   5.033933  Gnorm:     0.000390  CPU:  104.064
  Cycle:     44 Defect Energy:   5.030900  Gnorm:     0.000380  CPU:  105.021
  Cycle:     45 Defect Energy:   5.027096  Gnorm:     0.000392  CPU:  105.969
  Cycle:     46 Defect Energy:   5.022206  Gnorm:     0.000418  CPU:  106.914
  Cycle:     47 Defect Energy:   5.016002  Gnorm:     0.000501  CPU:  108.010
  Cycle:     48 Defect Energy:   5.007744  Gnorm:     0.000600  CPU:  108.934
  Cycle:     49 Defect Energy:   4.998023  Gnorm:     0.000753  CPU:  109.846
  Cycle:     50 Defect Energy:   4.990984  Gnorm:     0.000845  CPU:  110.757
  ** Hessian calculated **
  Cycle:     51 Defect Energy:   4.983161  Gnorm:     0.000785  CPU:  112.835
  Cycle:     52 Defect Energy:   4.973151  Gnorm:     0.000757  CPU:  116.942
  Cycle:     53 Defect Energy:   4.960023  Gnorm:     0.000716  CPU:  118.542
  Cycle:     54 Defect Energy:   4.944256  Gnorm:     0.000693  CPU:  119.689
  Cycle:     55 Defect Energy:   4.931326  Gnorm:     0.000671  CPU:  120.836
  Cycle:     56 Defect Energy:   4.922586  Gnorm:     0.000685  CPU:  121.956
  Cycle:     57 Defect Energy:   4.915543  Gnorm:     0.000714  CPU:  123.188
  Cycle:     58 Defect Energy:   4.908495  Gnorm:     0.000747  CPU:  124.301
  Cycle:     59 Defect Energy:   4.902459  Gnorm:     0.000775  CPU:  125.371
  Cycle:     60 Defect Energy:   4.896329  Gnorm:     0.000801  CPU:  126.192
  ** Hessian calculated **
  Cycle:     61 Defect Energy:   4.894337  Gnorm:     0.000788  CPU:  129.049
  Cycle:     62 Defect Energy:   4.891419  Gnorm:     0.000781  CPU:  130.100
  Cycle:     63 Defect Energy:   4.887655  Gnorm:     0.000770  CPU:  131.134
  Cycle:     64 Defect Energy:   4.882688  Gnorm:     0.000757  CPU:  132.178
  Cycle:     65 Defect Energy:   4.877625  Gnorm:     0.000764  CPU:  133.380
  Cycle:     66 Defect Energy:   4.873586  Gnorm:     0.000761  CPU:  134.374
  Cycle:     67 Defect Energy:   4.870162  Gnorm:     0.000771  CPU:  135.371
  Cycle:     68 Defect Energy:   4.866943  Gnorm:     0.000769  CPU:  136.370
  Cycle:     69 Defect Energy:   4.863229  Gnorm:     0.000785  CPU:  137.458
  Cycle:     70 Defect Energy:   4.858394  Gnorm:     0.000790  CPU:  138.434
  ** Hessian calculated **
  Cycle:     71 Defect Energy:   4.851503  Gnorm:     0.000766  CPU:  140.915
  Cycle:     72 Defect Energy:   4.843385  Gnorm:     0.000746  CPU:  141.906
  Cycle:     73 Defect Energy:   4.831690  Gnorm:     0.000736  CPU:  142.846
  Cycle:     74 Defect Energy:   4.803314  Gnorm:     0.000598  CPU:  143.787
  Cycle:     75 Defect Energy:   4.793473  Gnorm:     0.000306  CPU:  144.711
  Cycle:     76 Defect Energy:   4.794493  Gnorm:     0.000351  CPU:  145.633
  ** Hessian calculated **
  Cycle:     77 Defect Energy:   4.789815  Gnorm:     0.000252  CPU:  148.613
  Cycle:     78 Defect Energy:   4.787693  Gnorm:     0.000181  CPU:  152.610
  Cycle:     79 Defect Energy:   4.786731  Gnorm:     0.000125  CPU:  153.769
  Cycle:     80 Defect Energy:   4.786297  Gnorm:     0.000088  CPU:  154.931
  Cycle:     81 Defect Energy:   4.786074  Gnorm:     0.000060  CPU:  156.062
  Cycle:     82 Defect Energy:   4.785905  Gnorm:     0.000040  CPU:  157.191
  Cycle:     83 Defect Energy:   4.785683  Gnorm:     0.000029  CPU:  158.336
  Cycle:     84 Defect Energy:   4.785439  Gnorm:     0.000054  CPU:  159.404
  ** Hessian calculated **
  Cycle:     85 Defect Energy:   4.785407  Gnorm:     0.000032  CPU:  162.276
  Cycle:     86 Defect Energy:   4.785380  Gnorm:     0.000026  CPU:  163.323
  Cycle:     87 Defect Energy:   4.785356  Gnorm:     0.000026  CPU:  164.350
  Cycle:     88 Defect Energy:   4.785329  Gnorm:     0.000028  CPU:  165.380
  Cycle:     89 Defect Energy:   4.785307  Gnorm:     0.000029  CPU:  166.414
  Cycle:     90 Defect Energy:   4.785287  Gnorm:     0.000032  CPU:  167.441
  Cycle:     91 Defect Energy:   4.785270  Gnorm:     0.000034  CPU:  168.426
  Cycle:     92 Defect Energy:   4.785247  Gnorm:     0.000037  CPU:  169.417
  Cycle:     93 Defect Energy:   4.785233  Gnorm:     0.000039  CPU:  170.420
  Cycle:     94 Defect Energy:   4.785206  Gnorm:     0.000042  CPU:  171.492
  ** Hessian calculated **


  **** Optimisation achieved ****


  Final defect energy  =        4.78520477
  Final defect Gnorm   =        0.00003992

  Components of defect energy : 

--------------------------------------------------------------------------------
  Region 1 - region 1                   =      1.58797861 eV
  Region 1 - region 2a (unrelaxed)      =      3.73627989 eV
  Region 1 - 2a (relaxed - correction)  =     -0.21820754 eV
  Region 1 (Total)                      =      5.10605096 eV
  Region 2a                             =      0.10904831 eV
  Region 2b                             =     -0.42989450 eV
--------------------------------------------------------------------------------
  Total defect energy                   =      4.78520477 eV
--------------------------------------------------------------------------------

  Largest displacement in region 2 =   0.0204 Angstroms

  Final coordinates of region 1 :

--------------------------------------------------------------------------------
   No.  Atomic        x           y           z          Radius      Charge
        Label       (Angs)      (Angs)      (Angs)       (Angs)       (e) 
--------------------------------------------------------------------------------
     1  Na    c     2.253894    0.991713    1.262180    0.000000    1.000000
     2  O     c     2.253894    2.643838    2.539615    0.000000    0.183000
     3  Na    c     4.500481    2.727409    2.478115    0.000000    1.000000
     4  Na    c     0.007306    2.727409    2.478115    0.000000    1.000000
     5  Cl    c     4.514974   -0.083376   -0.041861    0.000000    1.485000
     6  Cl    c    -0.007187   -0.083376   -0.041861    0.000000    1.485000
     7  O     c     2.253894   -2.246611    2.295689    0.000000    0.183000
     8  Na    c     2.253894    1.974550    4.606344    0.000000    1.000000
     9  Na    c     2.253894   -2.328252    0.053715    0.000000    1.000000
    10  Na    c     2.253894    4.639357    1.682365    0.000000    1.000000
    11  Na    c     2.253894    0.073206   -2.163811    0.000000    1.000000
    12  O     c     2.253894    2.294074   -2.264006    0.000000    0.183000
    13  Na    c     4.455862   -2.033760    2.286883    0.000000    1.000000
    14  Na    c     0.051926   -2.033760    2.286883    0.000000    1.000000
    15  Cl    c     4.590898    0.035202    4.669486    0.000000    1.485000
    16  Cl    c    -0.083110    0.035202    4.669486    0.000000    1.485000
    17  Cl    c     4.622247    4.634564    0.009647    0.000000    1.485000
    18  Cl    c    -0.114460    4.634564    0.009647    0.000000    1.485000
    19  Na    c     4.434864    2.256541   -1.844570    0.000000    1.000000
    20  Na    c     0.072923    2.256541   -1.844570    0.000000    1.000000
    21  Na    c     2.253894   -1.651752    4.454648    0.000000    1.000000
    22  Na    c    -2.091304    0.086023    1.875472    0.000000    1.000000
    23  Na    c     6.599091    0.086023    1.875472    0.000000    1.000000
    24  O     c     2.253894   -2.215207   -2.239781    0.000000    0.183000
    25  O     c    -2.246146    2.318853    2.303281    0.000000    0.183000
    26  O     c     6.753933    2.318853    2.303281    0.000000    0.183000
    27  Na    c    -2.355657    2.692303    0.050610    0.000000    1.000000
    28  Na    c     6.863445    2.692303    0.050610    0.000000    1.000000
    29  Na    c     2.253894    4.478508   -1.796132    0.000000    1.000000
    30  Cl    c     4.682862    4.687828    4.600372    0.000000    1.485000
    31  Cl    c    -0.175075    4.687828    4.600372    0.000000    1.485000
    32  Na    c     4.506583   -2.173136   -2.242667    0.000000    1.000000
    33  Na    c     0.001205   -2.173136   -2.242667    0.000000    1.000000
    34  Na    c     2.253894   -0.009815    7.178168    0.000000    1.000000
    35  Na    c     2.253894   -4.449643    2.622076    0.000000    1.000000
    36  O     c     2.253894    2.237415    6.845570    0.000000    0.183000
    37  O     c    -2.227469   -2.173782    2.251709    0.000000    0.183000
    38  O     c     6.735256   -2.173782    2.251709    0.000000    0.183000
    39  Na    c    -2.228939    1.900491    4.540380    0.000000    1.000000
    40  Na    c     6.736726    1.900491    4.540380    0.000000    1.000000
    41  Na    c    -2.161715   -2.608017    0.014638    0.000000    1.000000
    42  Na    c     6.669503   -2.608017    0.014638    0.000000    1.000000
    43  Na    c    -2.274421    0.019194   -1.859646    0.000000    1.000000
    44  Na    c     6.782208    0.019194   -1.859646    0.000000    1.000000
    45  Na    c    -2.453058    4.559888    2.654379    0.000000    1.000000
    46  Na    c     6.960846    4.559888    2.654379    0.000000    1.000000
    47  O     c     2.253894    6.842458    2.186062    0.000000    0.183000
    48  O     c    -2.209173    2.266562   -2.196749    0.000000    0.183000
    49  O     c     6.716960    2.266562   -2.196749    0.000000    0.183000
    50  Na    c     2.253894    2.439119   -4.473077    0.000000    1.000000
    51  Na    c     2.253894    7.331012   -0.021319    0.000000    1.000000
    52  Na    c     4.519572    2.252011    6.808294    0.000000    1.000000
    53  Na    c    -0.011784    2.252011    6.808294    0.000000    1.000000
    54  Cl    c     4.529128   -4.557835   -0.073634    0.000000    1.485000
    55  Cl    c    -0.021341   -4.557835   -0.073634    0.000000    1.485000
    56  Cl    c     4.505499   -0.097249   -4.597235    0.000000    1.485000
    57  Cl    c     0.002288   -0.097249   -4.597235    0.000000    1.485000
    58  Na    c     4.526227    6.715050    2.173792    0.000000    1.000000
    59  Na    c    -0.018440    6.715050    2.173792    0.000000    1.000000
    60  O     c     2.253894   -2.232745    6.711702    0.000000    0.183000
    61  Na    c     6.831364   -1.856710    4.504929    0.000000    1.000000
    62  Na    c    -2.323577   -1.856710    4.504929    0.000000    1.000000
    63  Na    c     2.253894    4.471680    6.665468    0.000000    1.000000
    64  Na    c     2.253894   -4.467066   -2.414455    0.000000    1.000000
    65  O     c    -2.258275   -2.234050   -2.235228    0.000000    0.183000
    66  O     c     6.766062   -2.234050   -2.235228    0.000000    0.183000
    67  Na    c     2.253894    6.443156    4.427190    0.000000    1.000000
    68  Na    c     2.253894   -2.090628   -4.487856    0.000000    1.000000
    69  Na    c     6.672512    4.496645   -2.590901    0.000000    1.000000
    70  Na    c    -2.164725    4.496645   -2.590901    0.000000    1.000000
    71  O     c     2.253894    6.765009   -2.217220    0.000000    0.183000
    72  Na    c     4.507676   -2.262675    6.610831    0.000000    1.000000
    73  Na    c     0.000111   -2.262675    6.610831    0.000000    1.000000
    74  Cl    c     4.570477   -4.593753    4.548858    0.000000    1.485000
    75  Cl    c    -0.062690   -4.593753    4.548858    0.000000    1.485000
    76  Cl    c     9.029237    0.056903    0.045112    0.000000    1.485000
    77  Cl    c    -4.521449    0.056903    0.045112    0.000000    1.485000
    78  Na    c     9.009893    2.082078    2.362116    0.000000    1.000000
    79  Na    c    -4.502106    2.082078    2.362116    0.000000    1.000000
    80  Cl    c     4.580855    4.591821   -4.598807    0.000000    1.485000
    81  Cl    c    -0.073067    4.591821   -4.598807    0.000000    1.485000
    82  Na    c     4.509720    6.728690   -2.154834    0.000000    1.000000
    83  Na    c    -0.001933    6.728690   -2.154834    0.000000    1.000000
    84  Na    c    -2.184839    0.008467    7.116820    0.000000    1.000000
    85  Na    c     6.692627    0.008467    7.116820    0.000000    1.000000
    86  Na    c     6.778136   -4.434427    2.596862    0.000000    1.000000
    87  Na    c    -2.270348   -4.434427    2.596862    0.000000    1.000000
    88  O     c     6.776420    2.257957    6.781099    0.000000    0.183000
    89  O     c    -2.268633    2.257957    6.781099    0.000000    0.183000
    90  O     c    -2.280359    6.791034    2.263844    0.000000    0.183000
    91  O     c     6.788146    6.791034    2.263844    0.000000    0.183000
    92  Na    c    -2.341699    6.465968    0.005971    0.000000    1.000000
    93  Na    c     6.849486    6.465968    0.005971    0.000000    1.000000
    94  Na    c     6.519109    1.953943   -4.456254    0.000000    1.000000
    95  Na    c    -2.011321    1.953943   -4.456254    0.000000    1.000000
    96  Na    c     8.996645   -2.066542    2.141787    0.000000    1.000000
    97  Na    c    -4.488858   -2.066542    2.141787    0.000000    1.000000
    98  Cl    c     9.062103    0.033781    4.526605    0.000000    1.485000
    99  Cl    c    -4.554316    0.033781    4.526605    0.000000    1.485000
   100  Cl    c     9.090661    4.546854    0.021169    0.000000    1.485000
   101  Cl    c    -4.582874    4.546854    0.021169    0.000000    1.485000
   102  Na    c     8.975776    2.265241   -2.401651    0.000000    1.000000
   103  Na    c    -4.467988    2.265241   -2.401651    0.000000    1.000000
   104  Na    c     2.253894   -4.481837    6.362763    0.000000    1.000000
   105  O     c    -2.258371   -2.235738    6.756472    0.000000    0.183000
   106  O     c     6.766158   -2.235738    6.756472    0.000000    0.183000
   107  O     c     2.253894   -6.722706    2.259024    0.000000    0.183000
   108  Na    c     2.253894    2.492848    9.064206    0.000000    1.000000
   109  Na    c     2.253894   -6.437102    0.014392    0.000000    1.000000
   110  Na    c    -2.309975    4.520139    6.466930    0.000000    1.000000
   111  Na    c     6.817763    4.520139    6.466930    0.000000    1.000000
   112  Na    c     6.728896   -4.478155   -2.588560    0.000000    1.000000
   113  Na    c    -2.221109   -4.478155   -2.588560    0.000000    1.000000
   114  O     c     2.253894    6.719718    6.711168    0.000000    0.183000
   115  Na    c    -2.122719    7.075066    4.508428    0.000000    1.000000
   116  Na    c     6.630507    7.075066    4.508428    0.000000    1.000000
   117  Na    c     6.789793   -1.900033   -4.491605    0.000000    1.000000
   118  Na    c    -2.282006   -1.900033   -4.491605    0.000000    1.000000
   119  Na    c     2.253894    0.018445   -6.698628    0.000000    1.000000
   120  Na    c     2.253894    9.039994    2.605580    0.000000    1.000000
   121  O     c     2.253894    2.279305   -6.765708    0.000000    0.183000
   122  O     c    -2.260830    6.747159   -2.254811    0.000000    0.183000
   123  O     c     6.768618    6.747159   -2.254811    0.000000    0.183000
   124  Cl    c     4.515922    0.013410    9.077365    0.000000    1.485000
   125  Cl    c    -0.008135    0.013410    9.077365    0.000000    1.485000
   126  Na    c     4.505090   -6.627859    2.197106    0.000000    1.000000
   127  Na    c     0.002697   -6.627859    2.197106    0.000000    1.000000
   128  Na    c     2.253894    6.389847   -4.475409    0.000000    1.000000
   129  Na    c     4.516295    6.691453    6.765041    0.000000    1.000000
   130  Na    c    -0.008508    6.691453    6.765041    0.000000    1.000000
   131  Cl    c     4.494439   -4.554522   -4.525592    0.000000    1.485000
   132  Cl    c     0.013349   -4.554522   -4.525592    0.000000    1.485000
   133  Cl    c     9.119168    4.521675    4.538834    0.000000    1.485000
   134  Cl    c    -4.611381    4.521675    4.538834    0.000000    1.485000
   135  Na    c     9.010406   -2.270603   -2.184295    0.000000    1.000000
   136  Na    c    -4.502619   -2.270603   -2.184295    0.000000    1.000000
   137  Na    c     2.253894   -2.552509    8.975419    0.000000    1.000000
   138  Na    c     2.253894   -7.055137    4.496337    0.000000    1.000000
   139  Cl    c     4.561046    9.096096   -0.030330    0.000000    1.485000
   140  Cl    c    -0.053259    9.096096   -0.030330    0.000000    1.485000
   141  Na    c     4.497861    2.291525   -6.784923    0.000000    1.000000
   142  Na    c     0.009927    2.291525   -6.784923    0.000000    1.000000
   143  O     c     2.253894   -6.737635   -2.233761    0.000000    0.183000
   144  O     c     2.253894   -2.253546   -6.740049    0.000000    0.183000
   145  Na    c     2.253894    4.507362   -6.992364    0.000000    1.000000
   146  Na    c     2.253894    8.997353   -2.638680    0.000000    1.000000
   147  Cl    c     4.484843    4.532223    9.047085    0.000000    1.485000
   148  Cl    c     0.022944    4.532223    9.047085    0.000000    1.485000
   149  Cl    c     9.059350   -4.473378    0.005433    0.000000    1.485000
   150  Cl    c    -4.551563   -4.473378    0.005433    0.000000    1.485000
   151  Na    c     4.507560   -6.695373   -2.185324    0.000000    1.000000
   152  Na    c     0.000227   -6.695373   -2.185324    0.000000    1.000000
   153  Na    c     9.023439    2.184730    6.723387    0.000000    1.000000
   154  Na    c    -4.515652    2.184730    6.723387    0.000000    1.000000
   155  Cl    c     4.509808    9.102965    4.523334    0.000000    1.485000
   156  Cl    c    -0.002021    9.102965    4.523334    0.000000    1.485000
   157  Na    c     4.511067   -2.248334   -6.681959    0.000000    1.000000
   158  Na    c    -0.003280   -2.248334   -6.681959    0.000000    1.000000
   159  Cl    c     9.066180    0.016272   -4.491216    0.000000    1.485000
   160  Cl    c    -4.558393    0.016272   -4.491216    0.000000    1.485000
   161  Na    c     9.025967    6.906206    2.324388    0.000000    1.000000
   162  Na    c    -4.518180    6.906206    2.324388    0.000000    1.000000
   163  Na    c     6.804578   -4.493480    6.491686    0.000000    1.000000
   164  Na    c    -2.296790   -4.493480    6.491686    0.000000    1.000000
   165  O     c     6.755697   -6.709722    2.250360    0.000000    0.183000
   166  O     c    -2.247910   -6.709722    2.250360    0.000000    0.183000
   167  Na    c    -2.294932    2.550626    9.017480    0.000000    1.000000
   168  Na    c     6.802719    2.550626    9.017480    0.000000    1.000000
   169  Na    c     6.815426   -6.444715   -0.005641    0.000000    1.000000
   170  Na    c    -2.307639   -6.444715   -0.005641    0.000000    1.000000
   171  Na    c    11.423962    0.008500    2.202592    0.000000    1.000000
   172  Na    c    -6.916175    0.008500    2.202592    0.000000    1.000000
   173  O     c    11.264895    2.255885    2.249014    0.000000    0.183000
   174  O     c    -6.757108    2.255885    2.249014    0.000000    0.183000
   175  O     c    -2.269506    6.785832    6.754392    0.000000    0.183000
   176  O     c     6.777293    6.785832    6.754392    0.000000    0.183000
   177  Na    c    11.094136    2.293962   -0.001928    0.000000    1.000000
   178  Na    c    -6.586349    2.293962   -0.001928    0.000000    1.000000
   179  Na    c    -2.228304    9.027019    1.984217    0.000000    1.000000
   180  Na    c     6.736091    9.027019    1.984217    0.000000    1.000000
   181  Na    c     6.722427    0.002401   -7.020031    0.000000    1.000000
   182  Na    c    -2.214639    0.002401   -7.020031    0.000000    1.000000
   183  O     c     6.745485    2.238918   -6.724351    0.000000    0.183000
   184  O     c    -2.237698    2.238918   -6.724351    0.000000    0.183000
   185  Cl    c     9.064092   -4.520349    4.528203    0.000000    1.485000
   186  Cl    c    -4.556305   -4.520349    4.528203    0.000000    1.485000
   187  Na    c     9.011056   -2.207223    6.829719    0.000000    1.000000
   188  Na    c    -4.503269   -2.207223    6.829719    0.000000    1.000000
   189  Na    c    -2.185799    6.961393   -4.496404    0.000000    1.000000
   190  Na    c     6.693586    6.961393   -4.496404    0.000000    1.000000
   191  O     c     2.253894   -6.739229    6.738953    0.000000    0.183000
   192  Na    c     6.665398   -6.950272    4.491769    0.000000    1.000000
   193  Na    c    -2.157610   -6.950272    4.491769    0.000000    1.000000
   194  Na    c    -2.187704   -2.493728    8.999911    0.000000    1.000000
   195  Na    c     6.695491   -2.493728    8.999911    0.000000    1.000000
   196  Cl    c     9.063348    4.529666   -4.484162    0.000000    1.485000
   197  Cl    c    -4.555561    4.529666   -4.484162    0.000000    1.485000
   198  Na    c     9.015214    6.705856   -2.302058    0.000000    1.000000
   199  Na    c    -4.507426    6.705856   -2.302058    0.000000    1.000000
   200  O     c    11.263335   -2.240062    2.253036    0.000000    0.183000
   201  O     c    -6.755547   -2.240062    2.253036    0.000000    0.183000
   202  O     c     6.761749   -6.734235   -2.264072    0.000000    0.183000
   203  O     c    -2.253961   -6.734235   -2.264072    0.000000    0.183000
   204  Na    c    11.330773    2.281004    4.503749    0.000000    1.000000
   205  Na    c    -6.822986    2.281004    4.503749    0.000000    1.000000
   206  Na    c     2.253894    6.728925    8.981886    0.000000    1.000000
[...]
    241 y          2.253894      2.237476    -0.016418    Cartesian   -0.73
    241 z          6.761681      6.845591     0.083910    Cartesian    1.24
    242 x         -2.253894     -2.227481     0.026412    Cartesian   -1.17
    242 y         -2.253894     -2.173771     0.080123    Cartesian   -3.55
    242 z          2.253894      2.251699    -0.002194    Cartesian   -0.10
    243 x          2.253894      2.253894     0.000000    Cartesian    0.00
    243 y          6.761681      6.842480     0.080799    Cartesian    1.19
    243 z          2.253894      2.186033    -0.067861    Cartesian   -3.01
    244 x         -2.253894     -2.209214     0.044680    Cartesian   -1.98
    244 y          2.253894      2.266587     0.012694    Cartesian    0.56
    244 z         -2.253894     -2.196748     0.057145    Cartesian   -2.54
    245 x          4.507787      4.537190     0.029403    Cartesian    0.65
    245 y         -4.507787     -4.569853    -0.062066    Cartesian    1.38
    245 z          0.000000     -0.079812    -0.079812    Cartesian    0.00
    246 x          4.507787      4.517058     0.009271    Cartesian    0.21
    246 y          0.000000     -0.110193    -0.110193    Cartesian    0.00
    246 z         -4.507787     -4.607806    -0.100019    Cartesian    2.22
    247 x          2.253894      2.253894     0.000000    Cartesian    0.00
    247 y         -2.253894     -2.232725     0.021169    Cartesian   -0.94
    247 z          6.761681      6.711745    -0.049936    Cartesian   -0.74
    248 x         -2.253894     -2.258280    -0.004386    Cartesian    0.19
    248 y         -2.253894     -2.234067     0.019826    Cartesian   -0.88
    248 z         -2.253894     -2.235223     0.018670    Cartesian   -0.83
    249 x          2.253894      2.253894     0.000000    Cartesian    0.00
    249 y          6.761681      6.765090     0.003409    Cartesian    0.05
    249 z         -2.253894     -2.217195     0.036699    Cartesian   -1.63
    250 x          4.507787      4.574375     0.066588    Cartesian    1.48
    250 y         -4.507787     -4.602524    -0.094737    Cartesian    2.10
    250 z          4.507787      4.555641     0.047854    Cartesian    1.06
    251 x          9.015574      9.024674     0.009099    Cartesian    0.10
    251 y          0.000000      0.058384     0.058384    Cartesian    0.00
    251 z          0.000000      0.049957     0.049957    Cartesian    0.00
    252 x          4.507787      4.592527     0.084740    Cartesian    1.88
    252 y          4.507787      4.604194     0.096407    Cartesian    2.14
    252 z         -4.507787     -4.606490    -0.098702    Cartesian    2.19
    253 x          6.761681      6.776420     0.014739    Cartesian    0.22
    253 y          2.253894      2.257926     0.004033    Cartesian    0.18
    253 z          6.761681      6.781120     0.019439    Cartesian    0.29
    254 x         -2.253894     -2.280392    -0.026498    Cartesian    1.18
    254 y          6.761681      6.791063     0.029382    Cartesian    0.43
    254 z          2.253894      2.263873     0.009979    Cartesian    0.44
    255 x          9.015574      9.054008     0.038433    Cartesian    0.43
    255 y          0.000000      0.037260     0.037260    Cartesian    0.00
    255 z          4.507787      4.525151     0.017364    Cartesian    0.39
    256 x          9.015574      9.088698     0.073124    Cartesian    0.81
    256 y          4.507787      4.545573     0.037785    Cartesian    0.84
    256 z          0.000000      0.023004     0.023004    Cartesian    0.00
    257 x         -2.253894     -2.258385    -0.004492    Cartesian    0.20
    257 y         -2.253894     -2.235726     0.018168    Cartesian   -0.81
    257 z          6.761681      6.756509    -0.005172    Cartesian   -0.08
    258 x          2.253894      2.253894     0.000000    Cartesian    0.00
    258 y         -6.761681     -6.722714     0.038967    Cartesian   -0.58
    258 z          2.253894      2.259027     0.005133    Cartesian    0.23
    259 x          2.253894      2.253894     0.000000    Cartesian    0.00
    259 y          6.761681      6.719629    -0.042052    Cartesian   -0.62
    259 z          6.761681      6.711199    -0.050482    Cartesian   -0.75
    260 x          2.253894      2.253894     0.000000    Cartesian    0.00
    260 y          2.253894      2.279337     0.025443    Cartesian    1.13
    260 z         -6.761681     -6.765789    -0.004108    Cartesian    0.06
    261 x         -2.253894     -2.260835    -0.006941    Cartesian    0.31
    261 y          6.761681      6.747158    -0.014523    Cartesian   -0.21
    261 z         -2.253894     -2.254861    -0.000967    Cartesian    0.04
    262 x          4.507787      4.517062     0.009275    Cartesian    0.21
    262 y          0.000000      0.015942     0.015942    Cartesian    0.00
    262 z          9.015574      9.075930     0.060356    Cartesian    0.67
    263 x          4.507787      4.497468    -0.010319    Cartesian   -0.23
    263 y         -4.507787     -4.559377    -0.051590    Cartesian    1.14
    263 z         -4.507787     -4.524617    -0.016829    Cartesian    0.37
    264 x          9.015574      9.115929     0.100355    Cartesian    1.11
    264 y          4.507787      4.524225     0.016438    Cartesian    0.36
    264 z          4.507787      4.535299     0.027512    Cartesian    0.61
    265 x          4.507787      4.562285     0.054498    Cartesian    1.21
    265 y          9.015574      9.097893     0.082319    Cartesian    0.91
    265 z          0.000000     -0.031350    -0.031350    Cartesian    0.00
    266 x          2.253894      2.253894     0.000000    Cartesian    0.00
    266 y         -6.761681     -6.737612     0.024069    Cartesian   -0.36
    266 z         -2.253894     -2.233763     0.020131    Cartesian   -0.89
    267 x          2.253894      2.253894     0.000000    Cartesian    0.00
    267 y         -2.253894     -2.253544     0.000349    Cartesian   -0.02
    267 z         -6.761681     -6.740012     0.021669    Cartesian   -0.32
    268 x          4.507787      4.482810    -0.024977    Cartesian   -0.55
    268 y          4.507787      4.530986     0.023199    Cartesian    0.51
    268 z          9.015574      9.049876     0.034302    Cartesian    0.38
    269 x          9.015574      9.058858     0.043284    Cartesian    0.48
    269 y         -4.507787     -4.472014     0.035774    Cartesian   -0.79
    269 z          0.000000      0.004515     0.004515    Cartesian    0.00
    270 x          4.507787      4.510709     0.002921    Cartesian    0.06
    270 y          9.015574      9.107264     0.091689    Cartesian    1.02
    270 z          4.507787      4.522502     0.014715    Cartesian    0.33
    271 x          9.015574      9.067735     0.052161    Cartesian    0.58
    271 y          0.000000      0.015893     0.015893    Cartesian    0.00
    271 z         -4.507787     -4.491627     0.016160    Cartesian   -0.36
    272 x          6.761681      6.755695    -0.005986    Cartesian   -0.09
    272 y         -6.761681     -6.709747     0.051934    Cartesian   -0.77
    272 z          2.253894      2.250406    -0.003488    Cartesian   -0.15
    273 x         11.269468     11.264899    -0.004569    Cartesian   -0.04
    273 y          2.253894      2.255876     0.001982    Cartesian    0.09
    273 z          2.253894      2.249019    -0.004874    Cartesian   -0.22
    274 x         -2.253894     -2.269514    -0.015621    Cartesian    0.69
    274 y          6.761681      6.785887     0.024206    Cartesian    0.36
    274 z          6.761681      6.754391    -0.007290    Cartesian   -0.11
    275 x          6.761681      6.745449    -0.016232    Cartesian   -0.24
    275 y          2.253894      2.238888    -0.015006    Cartesian   -0.67
    275 z         -6.761681     -6.724400     0.037281    Cartesian   -0.55
    276 x          9.015574      9.064765     0.049190    Cartesian    0.55
    276 y         -4.507787     -4.524410    -0.016623    Cartesian    0.37
    276 z          4.507787      4.529294     0.021507    Cartesian    0.48
    277 x          2.253894      2.253894     0.000000    Cartesian    0.00
    277 y         -6.761681     -6.739271     0.022410    Cartesian   -0.33
    277 z          6.761681      6.738936    -0.022745    Cartesian   -0.34
    278 x          9.015574      9.064536     0.048962    Cartesian    0.54
    278 y          4.507787      4.531486     0.023699    Cartesian    0.53
    278 z         -4.507787     -4.479390     0.028398    Cartesian   -0.63
    279 x         11.269468     11.263367    -0.006101    Cartesian   -0.05
    279 y         -2.253894     -2.240056     0.013838    Cartesian   -0.61
    279 z          2.253894      2.253022    -0.000872    Cartesian   -0.04
    280 x          6.761681      6.761748     0.000068    Cartesian    0.00
    280 y         -6.761681     -6.734243     0.027438    Cartesian   -0.41
    280 z         -2.253894     -2.264117    -0.010223    Cartesian    0.45
    281 x          6.761681      6.769757     0.008076    Cartesian    0.12
    281 y         -2.253894     -2.241720     0.012174    Cartesian   -0.54
    281 z         -6.761681     -6.750426     0.011255    Cartesian   -0.17
    282 x         11.269468     11.247438    -0.022030    Cartesian   -0.20
    282 y          2.253894      2.254996     0.001102    Cartesian    0.05
    282 z         -2.253894     -2.250829     0.003065    Cartesian   -0.14
    283 x          4.507787      4.520862     0.013075    Cartesian    0.29
    283 y         -4.507787     -4.522105    -0.014317    Cartesian    0.32
    283 z          9.015574      9.085574     0.070000    Cartesian    0.78
    284 x          2.253894      2.253894     0.000000    Cartesian    0.00
    284 y          6.761681      6.738060    -0.023620    Cartesian   -0.35
    284 z         -6.761681     -6.747412     0.014269    Cartesian   -0.21
    285 x          2.253894      2.253894     0.000000    Cartesian    0.00
    285 y          2.253894      2.257108     0.003214    Cartesian    0.14
    285 z         11.269468     11.284562     0.015094    Cartesian    0.13
    286 x          4.507787      4.523179     0.015392    Cartesian    0.34
    286 y          9.015574      9.077174     0.061599    Cartesian    0.68
    286 z         -4.507787     -4.524314    -0.016526    Cartesian    0.37
    287 x         11.269468     11.269217    -0.000251    Cartesian   -0.00
    287 y         -2.253894     -2.255884    -0.001990    Cartesian    0.09
    287 z         -2.253894     -2.241159     0.012735    Cartesian   -0.57
    288 x          2.253894      2.253894     0.000000    Cartesian    0.00
    288 y         11.269468     11.272494     0.003025    Cartesian    0.03
    288 z          2.253894      2.274272     0.020378    Cartesian    0.90
    289 x          4.507787      4.512709     0.004921    Cartesian    0.11
    289 y         -9.015574     -9.124435    -0.108860    Cartesian    1.21
    289 z          0.000000      0.000144     0.000144    Cartesian    0.00
    290 x          9.015574      9.057588     0.042013    Cartesian    0.47
    290 y          0.000000      0.004153     0.004153    Cartesian    0.00
    290 z          9.015574      9.020078     0.004504    Cartesian    0.05
    291 x          9.015574      9.060860     0.045286    Cartesian    0.50
    291 y         -4.507787     -4.529048    -0.021261    Cartesian    0.47
    291 z         -4.507787     -4.501561     0.006226    Cartesian   -0.14
    292 x          2.253894      2.253894     0.000000    Cartesian    0.00
    292 y         -2.253894     -2.271085    -0.017192    Cartesian    0.76
    292 z         11.269468     11.250671    -0.018797    Cartesian   -0.17
    293 x          6.761681      6.766011     0.004330    Cartesian    0.06
    293 y         -6.761681     -6.756029     0.005652    Cartesian   -0.08
    293 z          6.761681      6.738242    -0.023439    Cartesian   -0.35
    294 x          4.507787      4.488912    -0.018875    Cartesian   -0.42
    294 y          0.000000      0.025384     0.025384    Cartesian    0.00
    294 z         -9.015574     -9.030073    -0.014498    Cartesian    0.16
    295 x          9.015574      9.034149     0.018575    Cartesian    0.21
    295 y          9.015574      9.057766     0.042192    Cartesian    0.47
    295 z          0.000000      0.019575     0.019575    Cartesian    0.00
    296 x         11.269468     11.277852     0.008383    Cartesian    0.07
    296 y          2.253894      2.251804    -0.002090    Cartesian   -0.09
    296 z          6.761681      6.761615    -0.000065    Cartesian   -0.00
    297 x         11.269468     11.272462     0.002994    Cartesian    0.03
    297 y          6.761681      6.769538     0.007857    Cartesian    0.12
    297 z          2.253894      2.256151     0.002257    Cartesian    0.10
    298 x          4.507787      4.537531     0.029744    Cartesian    0.66
    298 y         -9.015574     -9.024190    -0.008615    Cartesian    0.10
    298 z          4.507787      4.517550     0.009763    Cartesian    0.22
    299 x         -2.253894     -2.259439    -0.005546    Cartesian    0.25
    299 y          6.761681      6.775119     0.013438    Cartesian    0.20
    299 z         -6.761681     -6.746911     0.014770    Cartesian   -0.22
    300 x          2.253894      2.253894     0.000000    Cartesian    0.00
    300 y         11.269468     11.248746    -0.020722    Cartesian   -0.18
    300 z         -2.253894     -2.287674    -0.033780    Cartesian    1.50
    301 x          9.015574      9.032508     0.016934    Cartesian    0.19
    301 y          4.507787      4.512798     0.005010    Cartesian    0.11
    301 z          9.015574      9.070269     0.054694    Cartesian    0.61
    302 x          9.015574      9.068076     0.052502    Cartesian    0.58
    302 y          9.015574      9.020953     0.005378    Cartesian    0.06
    302 z          4.507787      4.505989    -0.001799    Cartesian   -0.04
    303 x         11.269468     11.265993    -0.003475    Cartesian   -0.03
    303 y         -2.253894     -2.248793     0.005101    Cartesian   -0.23
    303 z          6.761681      6.765383     0.003702    Cartesian    0.05
    304 x          6.761681      6.765219     0.003538    Cartesian    0.05
    304 y          2.253894      2.275554     0.021661    Cartesian    0.96
    304 z         11.269468     11.266316    -0.003152    Cartesian   -0.03
    305 x          4.507787      4.508374     0.000587    Cartesian    0.01
    305 y          4.507787      4.502460    -0.005327    Cartesian   -0.12
    305 z         -9.015574     -9.044777    -0.029202    Cartesian    0.32
    306 x          2.253894      2.253894     0.000000    Cartesian    0.00
    306 y         -6.761681     -6.761167     0.000513    Cartesian   -0.01
    306 z         -6.761681     -6.760398     0.001283    Cartesian   -0.02
    307 x         11.269468     11.273569     0.004101    Cartesian    0.04
    307 y          6.761681      6.762139     0.000459    Cartesian    0.01
    307 z         -2.253894     -2.256254    -0.002361    Cartesian    0.10
    308 x         -2.253894     -2.255541    -0.001647    Cartesian    0.07
    308 y         11.269468     11.274630     0.005162    Cartesian    0.05
    308 z          2.253894      2.228298    -0.025595    Cartesian   -1.14
    309 x         13.523362     13.556301     0.032940    Cartesian    0.24
    309 y          0.000000     -0.002790    -0.002790    Cartesian    0.00
    309 z          0.000000     -0.008696    -0.008696    Cartesian    0.00
    310 x          4.507787      4.543463     0.035676    Cartesian    0.79
    310 y          9.015574      9.039865     0.024290    Cartesian    0.27
    310 z          9.015574      9.041214     0.025640    Cartesian    0.28
    311 x          6.761681      6.764388     0.002707    Cartesian    0.04
    311 y         -2.253894     -2.260478    -0.006584    Cartesian    0.29
    311 z         11.269468     11.254253    -0.015215    Cartesian   -0.14
    312 x          2.253894      2.253894     0.000000    Cartesian    0.00
    312 y          6.761681      6.772610     0.010929    Cartesian    0.16
    312 z         11.269468     11.257813    -0.011655    Cartesian   -0.10
    313 x          2.253894      2.253894     0.000000    Cartesian    0.00
    313 y         11.269468     11.271476     0.002008    Cartesian    0.02
    313 z          6.761681      6.754257    -0.007424    Cartesian   -0.11
    314 x          9.015574      9.019310     0.003736    Cartesian    0.04
    314 y         -4.507787     -4.499775     0.008012    Cartesian   -0.18
    314 z          9.015574      9.056073     0.040498    Cartesian    0.45
    315 x          6.761681      6.770769     0.009088    Cartesian    0.13
    315 y         11.269468     11.276899     0.007431    Cartesian    0.07
    315 z         -2.253894     -2.246415     0.007479    Cartesian   -0.33
    316 x         13.523362     13.542444     0.019082    Cartesian    0.14
    316 y          0.000000     -0.015050    -0.015050    Cartesian    0.00
    316 z          4.507787      4.537187     0.029400    Cartesian    0.65
    317 x          4.507787      4.534723     0.026935    Cartesian    0.60
    317 y         -9.015574     -9.024450    -0.008876    Cartesian    0.10
    317 z         -4.507787     -4.550032    -0.042245    Cartesian    0.94
    318 x         13.523362     13.596283     0.072921    Cartesian    0.54
    318 y          4.507787      4.493311    -0.014476    Cartesian   -0.32
    318 z          0.000000     -0.008344    -0.008344    Cartesian    0.00
    319 x          4.507787      4.531319     0.023532    Cartesian    0.52
    319 y         -4.507787     -4.514103    -0.006315    Cartesian    0.14
    319 z         -9.015574     -9.076238    -0.060664    Cartesian    0.67
    320 x         11.269468     11.262354    -0.007114    Cartesian   -0.06
    320 y         -6.761681     -6.762104    -0.000423    Cartesian    0.01
    320 z          2.253894      2.260448     0.006554    Cartesian    0.29
    321 x          9.015574      9.038051     0.022477    Cartesian    0.25
    321 y          9.015574      9.031903     0.016328    Cartesian    0.18
    321 z         -4.507787     -4.528660    -0.020873    Cartesian    0.46
--------------------------------------------------------------------------------


  Time to end of optimisation  =      174.0147 seconds


  Peak dynamic memory used =      94.95 MB 


  Timing analysis for GULP :

--------------------------------------------------------------------------------
  Task / Subroutine                                          Time (Seconds)
--------------------------------------------------------------------------------
  Calculation of reciprocal space energy and derivatives          0.0007
  Calculation of reciprocal space energy using symmetry           0.0010
  Calculation of real space energy and derivatives                0.0038
  Calculation of real space energy using symmetry                 0.0099
  Calculation for region 1 energy and derivatives (2-b)          94.2521
  Calculation for region 2a energy                               73.2552
  Calculation for region 2b energy                                0.0276
  Calculation and manipulation of Hessian matrix                  0.2139
  Calculation of matrix inversion                                 5.7253
  Symmetry generation of equivalent positions                     0.0050
--------------------------------------------------------------------------------
  Total CPU time                                                174.0148
--------------------------------------------------------------------------------


  Dump file written as Na3OCl.grs


  Job Finished at 19:30.25 30th November   2020                               

