********************************************************************************
*                       GENERAL UTILITY LATTICE PROGRAM                        *
*                                 Julian Gale                                  *
*                       Curtin Institute for Computation                       *
*                    School of Molecular and Life Sciences                     *
*                    Curtin University, Western Australia                      *
********************************************************************************
* Version = 5.2.0 * Last modified =  10th September 2020                       *
********************************************************************************
*  optimise     - perform optimisation run                                     *
*  conp         - constant pressure calculation                                *
*  property     - calculate properties for final geometry                      *
*  defect       - perform defect calculation after bulk run                    *
*  compare      - compare initial and final structures                         *
********************************************************************************

  Job Started  at 19:29.56 30th November   2020                               

  Number of CPUs =     1


  Total number of configurations input =      1

********************************************************************************
*  Input for Configuration =   1                                               *
********************************************************************************

  Formula = ClONa3                                                      

  Number of irreducible atoms/shells =       5


  Total number atoms/shells =       7

  Dimensionality = 3               :  Bulk   


  Symmetry :

  Crystal family                   :  Cubic       
  Crystal class  (Groth - 1921)    :  Cubic Hexakisoctahedral              

  Space group (centrosymmetric)    :  P M 3 M         

  Patterson group                  :  P m -3 m 

  Cartesian lattice vectors (Angstroms) :

        4.504000    0.000000    0.000000
        0.000000    4.504000    0.000000
        0.000000    0.000000    4.504000

  Cell parameters (Angstroms/Degrees):

  a =       4.5040    alpha =  90.0000
  b =       4.5040    beta  =  90.0000
  c =       4.5040    gamma =  90.0000

  Initial cell volume =          91.368216 Angs**3

  Temperature of configuration =   0.00     K 

  Pressure of configuration =         0.000 GPa 

  Fractional coordinates of asymmetric unit :

--------------------------------------------------------------------------------
   No.  Atomic       x           y          z         Charge      Occupancy
        Label      (Frac)      (Frac)     (Frac)        (e)         (Frac)  
--------------------------------------------------------------------------------
      1 Cl    c    0.000000    0.000000    0.000000     1.48500    1.000000    
      2 O     c    0.500000    0.500000    0.500000     0.18300    1.000000    
      3 Na    c    0.500000    0.500000    0.000000     1.00000    1.000000    
      4 Cl    s    0.000000    0.000000    0.000000    -2.48500    1.000000    
      5 O     s    0.500000    0.500000    0.500000    -2.18300    1.000000    
--------------------------------------------------------------------------------


  Constraints : 

--------------------------------------------------------------------------------
  Constraint no.      Unconstrained     Constrained    Coefficient    Offset
                         Variable         Variable
--------------------------------------------------------------------------------
           1              Strain 1        Strain 2       1.00000      0.0000
           2              Strain 1        Strain 3       1.00000      0.0000
--------------------------------------------------------------------------------


********************************************************************************
*  General input information                                                   *
********************************************************************************

  Species output for all configurations : 

--------------------------------------------------------------------------------
  Species    Type    Atomic    Atomic    Charge       Radii (Angs)     Library
                     Number     Mass       (e)     Cova   Ionic  VDW   Symbol
--------------------------------------------------------------------------------
    Na       Core       11      22.99   1.000000   0.970  0.000  2.300          
    O        Core        8      16.00   0.183000   0.730  0.000  1.360          
    O        Shell       8       0.00  -2.183000   0.730  0.000  1.360          
    Cl       Core       17      35.45   1.485000   0.990  0.000  1.650          
    Cl       Shell      17       0.00  -2.485000   0.990  0.000  1.650          
    Mg       Core       12      24.31   0.415000   1.100  0.000  0.000          
    Mg       Shell      12       0.00   1.585000   1.100  0.000  0.000          
    Ca       Core       20      40.08  -1.135000   0.990  0.000  0.000          
    Ca       Shell      20       0.00   3.135000   0.990  0.000  0.000          
    Sr       Core       38      87.62  -1.251000   1.120  0.000  0.000          
    Sr       Shell      38       0.00   3.251000   1.120  0.000  0.000          
    Ba       Core       56     137.33  -7.203000   1.340  0.000  0.000          
    Ba       Shell      56       0.00   9.203000   1.340  0.000  0.000          
--------------------------------------------------------------------------------


  Lattice summation method               =    Ewald          (3-D)
                                         =    Parry          (2-D)
                                         =    Saunders et al (1-D)
  Accuracy factor for lattice sums       =   12.000


  Analytic derivatives to be used

  Time limit = Infinity

  Maximum range for interatomic potentials =    100000.000000 Angstroms

  General interatomic potentials :

--------------------------------------------------------------------------------
Atom  Types   Potential      Parameter       Value         Units   Cutoffs(Ang)
  1     2                                                            Min /  Max 
--------------------------------------------------------------------------------
O    c O    s Spring (c-s)  Spring k 2       593.71600    eV*Ang^-2 0.000  0.800
                            Spring k 4       0.0000000    eV*Ang^-4 
--------------------------------------------------------------------------------
Cl   c Cl   s Spring (c-s)  Spring k 2       29.380000    eV*Ang^-2 0.000  0.800
                            Spring k 4       0.0000000    eV*Ang^-4 
--------------------------------------------------------------------------------
Mg   c Mg   s Spring (c-s)  Spring k 2       361.60000    eV*Ang^-2 0.000  0.800
                            Spring k 4       0.0000000    eV*Ang^-4 
--------------------------------------------------------------------------------
Ca   c Ca   s Spring (c-s)  Spring k 2       110.20000    eV*Ang^-2 0.000  0.800
                            Spring k 4       0.0000000    eV*Ang^-4 
--------------------------------------------------------------------------------
Sr   c Sr   s Spring (c-s)  Spring k 2       71.700000    eV*Ang^-2 0.000  0.800
                            Spring k 4       0.0000000    eV*Ang^-4 
--------------------------------------------------------------------------------
Ba   c Ba   s Spring (c-s)  Spring k 2       495.20000    eV*Ang^-2 0.000  0.800
                            Spring k 4       0.0000000    eV*Ang^-4 
--------------------------------------------------------------------------------
Na   c Na   c Buckingham    Buckingham A     1788.1900    eV        0.000 12.000
                            Buckingham rho  0.15900000    Ang       
                            Buckingham C     0.0000000    eV*Ang^6  
--------------------------------------------------------------------------------
Na   c O    s Buckingham    Buckingham A     1226.8400    eV        0.000 12.000
                            Buckingham rho  0.30700000    Ang       
                            Buckingham C     0.0000000    eV*Ang^6  
--------------------------------------------------------------------------------
Na   c Cl   s Buckingham    Buckingham A     2314.7000    eV        0.000 12.000
                            Buckingham rho  0.29000000    Ang       
                            Buckingham C     0.0000000    eV*Ang^6  
--------------------------------------------------------------------------------
O    s O    s Buckingham    Buckingham A     22764.300    eV        0.000 12.000
                            Buckingham rho  0.14900000    Ang       
                            Buckingham C     13.190000    eV*Ang^6  
--------------------------------------------------------------------------------
O    s Cl   s Buckingham    Buckingham A     8286.9100    eV        0.000 12.000
                            Buckingham rho  0.25900000    Ang       
                            Buckingham C     62.200000    eV*Ang^6  
--------------------------------------------------------------------------------
Cl   s Cl   s Buckingham    Buckingham A     1227.2000    eV        0.000 12.000
                            Buckingham rho  0.32100000    Ang       
                            Buckingham C     14.530000    eV*Ang^6  
--------------------------------------------------------------------------------
O    s Mg   s Buckingham    Buckingham A     1428.5000    eV        0.000 12.000
                            Buckingham rho  0.29450000    Ang       
                            Buckingham C     0.0000000    eV*Ang^6  
--------------------------------------------------------------------------------
Mg   s Cl   s Buckingham    Buckingham A     4914.5400    eV        0.000 12.000
                            Buckingham rho  0.25700000    Ang       
                            Buckingham C     0.0000000    eV*Ang^6  
--------------------------------------------------------------------------------
O    s Ca   s Buckingham    Buckingham A     1090.4000    eV        0.000 12.000
                            Buckingham rho  0.34370000    Ang       
                            Buckingham C     0.0000000    eV*Ang^6  
--------------------------------------------------------------------------------
Cl   s Ca   s Buckingham    Buckingham A     2302.0000    eV        0.000 12.000
                            Buckingham rho  0.34020000    Ang       
                            Buckingham C     0.0000000    eV*Ang^6  
--------------------------------------------------------------------------------
O    s Sr   s Buckingham    Buckingham A     959.10000    eV        0.000 12.000
                            Buckingham rho  0.37210000    Ang       
                            Buckingham C     0.0000000    eV*Ang^6  
--------------------------------------------------------------------------------
Cl   s Sr   s Buckingham    Buckingham A     2191.0900    eV        0.000 12.000
                            Buckingham rho  0.34570000    Ang       
                            Buckingham C     0.0000000    eV*Ang^6  
--------------------------------------------------------------------------------
O    s Ba   s Buckingham    Buckingham A     905.70000    eV        0.000 12.000
                            Buckingham rho  0.39760000    Ang       
                            Buckingham C     0.0000000    eV*Ang^6  
--------------------------------------------------------------------------------
Cl   s Ba   s Buckingham    Buckingham A     2704.5500    eV        0.000 12.000
                            Buckingham rho  0.35280000    Ang       
                            Buckingham C     0.0000000    eV*Ang^6  
--------------------------------------------------------------------------------

********************************************************************************
*  Output for configuration   1                                                *
********************************************************************************


  Components of energy : 

--------------------------------------------------------------------------------
  Interatomic potentials     =           5.13022605 eV    
  Monopole - monopole (real) =         -10.03624526 eV    
  Monopole - monopole (recip)=         -29.53581274 eV    
  Monopole - monopole (total)=         -39.57205800 eV    
--------------------------------------------------------------------------------
  Total lattice energy       =         -34.44183194 eV    
--------------------------------------------------------------------------------
  Total lattice energy       =           -3323.1103 kJ/(mole unit cells)
--------------------------------------------------------------------------------


  Number of variables =        1

  Maximum number of calculations  =          1000
  Maximum Hessian update interval =            10
  Maximum step size               =   1.000000000
  Maximum parameter tolerance     =   0.000010000
  Maximum function  tolerance     =   0.000010000
  Maximum gradient  tolerance     =   0.001000000
  Maximum gradient  component     =   0.010000000

  Symmetry constrained optimisation

  Symmetry used for second derivatives

  Cell parameters to be optimised using strains

  Newton-Raphson optimiser to be used

  BFGS hessian update to be used

  Lower half triangular hessian to be used

  Start of bulk optimisation :

  Cycle:      0 Energy:       -34.441832  Gnorm:      0.196570  CPU:    0.009
  ** Hessian calculated **
  Cycle:      1 Energy:       -34.441914  Gnorm:      0.000103  CPU:    0.011


  **** Optimisation achieved ****


  Final energy =     -34.44191447 eV
  Final Gnorm  =       0.00000000

  Components of energy : 

--------------------------------------------------------------------------------
  Interatomic potentials     =           5.09689708 eV    
  Monopole - monopole (real) =         -10.02781331 eV    
  Monopole - monopole (recip)=         -29.51099824 eV    
  Monopole - monopole (total)=         -39.53881155 eV    
--------------------------------------------------------------------------------
  Total lattice energy       =         -34.44191447 eV    
--------------------------------------------------------------------------------
  Total lattice energy       =           -3323.1183 kJ/(mole unit cells)
--------------------------------------------------------------------------------

  Final asymmetric unit coordinates :

--------------------------------------------------------------------------------
   No.  Atomic        x           y           z         Radius
        Label       (Frac)      (Frac)      (Frac)       (Angs) 
--------------------------------------------------------------------------------
     1  Cl    c     0.000000    0.000000    0.000000    0.000000
     2  O     c     0.500000    0.500000    0.500000    0.000000
     3  Na    c     0.500000    0.500000    0.000000    0.000000
     4  Cl    s     0.000000    0.000000    0.000000    0.000000
     5  O     s     0.500000    0.500000    0.500000    0.000000
--------------------------------------------------------------------------------

  Final Cartesian lattice vectors (Angstroms) :

        4.507787    0.000000    0.000000
        0.000000    4.507787    0.000000
        0.000000    0.000000    4.507787


  Final cell parameters and derivatives :

--------------------------------------------------------------------------------
       a            4.507787 Angstrom     dE/de1(xx)     0.000000 eV/strain
       b            4.507787 Angstrom     dE/de2(yy)     0.000000 eV/strain
       c            4.507787 Angstrom     dE/de3(zz)     0.000000 eV/strain
       alpha       90.000000 Degrees      dE/de4(yz)     0.000000 eV/strain
       beta        90.000000 Degrees      dE/de5(xz)     0.000000 eV/strain
       gamma       90.000000 Degrees      dE/de6(xy)     0.000000 eV/strain
--------------------------------------------------------------------------------

  Primitive cell volume =            91.598892 Angs**3

  Density of cell =      2.183054 g/cm**3

  Non-primitive cell volume =            91.598892 Angs**3


  Final internal derivatives :

--------------------------------------------------------------------------------
   No.  Atomic          a             b             c           Radius
        Label          (eV)          (eV)          (eV)        (eV/Angs)
--------------------------------------------------------------------------------
      1 Cl    c       0.000000      0.000000      0.000000      0.000000
      2 O     c       0.000000      0.000000      0.000000      0.000000
      3 Na    c       0.000000      0.000000      0.000000      0.000000
      4 Cl    s       0.000000      0.000000      0.000000      0.000000
      5 O     s       0.000000      0.000000      0.000000      0.000000
--------------------------------------------------------------------------------
  Maximum abs         0.000000      0.000000      0.000000      0.000000
--------------------------------------------------------------------------------

  Comparison of initial and final structures : 

--------------------------------------------------------------------------------
  Parameter   Initial value   Final value   Difference    Units      Percent
--------------------------------------------------------------------------------
    Volume        91.368216     91.598892     0.230676    Angs**3      0.25
    a              4.504000      4.507787     0.003787    Angstroms    0.08
    b              4.504000      4.507787     0.003787    Angstroms    0.08
    c              4.504000      4.507787     0.003787    Angstroms    0.08
    alpha         90.000000     90.000000     0.000000    Degrees      0.00
    beta          90.000000     90.000000     0.000000    Degrees      0.00
    gamma         90.000000     90.000000     0.000000    Degrees      0.00
      1 x          0.000000      0.000000     0.000000    Fractional   0.00
      1 y          0.000000      0.000000     0.000000    Fractional   0.00
      1 z          0.000000      0.000000     0.000000    Fractional   0.00
      2 x          0.500000      0.500000     0.000000    Fractional   0.00
      2 y          0.500000      0.500000     0.000000    Fractional   0.00
      2 z          0.500000      0.500000     0.000000    Fractional   0.00
      3 x          0.500000      0.500000     0.000000    Fractional   0.00
      3 y          0.500000      0.500000     0.000000    Fractional   0.00
      3 z          0.000000      0.000000     0.000000    Fractional   0.00
      4 x          0.000000      0.000000     0.000000    Fractional   0.00
      4 y          0.000000      0.000000     0.000000    Fractional   0.00
      4 z          0.000000      0.000000     0.000000    Fractional   0.00
      5 x          0.500000      0.500000     0.000000    Fractional   0.00
      5 y          0.500000      0.500000     0.000000    Fractional   0.00
      5 z          0.500000      0.500000     0.000000    Fractional   0.00
--------------------------------------------------------------------------------


  Born effective charge tensors : 

-------------------------------------------------------------------------------
  Atom             x           y             z
-------------------------------------------------------------------------------
    1 Cl    x      -1.0181     -0.0000      0.0000
            y      -0.0000     -1.0181      0.0000
            z       0.0000      0.0000     -1.0181
-------------------------------------------------------------------------------
    2 O     x      -2.2647      0.0000     -0.0000
            y       0.0000     -2.2647     -0.0000
            z      -0.0000     -0.0000     -2.2647
-------------------------------------------------------------------------------
    3 Na    x       1.2258     -0.0000      0.0000
            y      -0.0000      1.2258     -0.0000
            z       0.0000     -0.0000      0.8313
-------------------------------------------------------------------------------




  Elastic Constant Matrix: (Units=GPa)

-------------------------------------------------------------------------------
  Indices      1         2         3         4         5         6    
-------------------------------------------------------------------------------
       1     95.8177   20.0737   20.0737   -0.0000   -0.0000    0.0000
       2     20.0737   95.8177   20.0737   -0.0000   -0.0000    0.0000
       3     20.0737   20.0737   95.8177   -0.0000   -0.0000    0.0000
       4     -0.0000   -0.0000   -0.0000   20.0737   -0.0000    0.0000
       5     -0.0000   -0.0000   -0.0000   -0.0000   20.0737    0.0000
       6      0.0000    0.0000    0.0000    0.0000    0.0000   20.0737
-------------------------------------------------------------------------------


  Elastic Compliance Matrix: (Units=1/GPa)

-------------------------------------------------------------------------------
  Indices      1         2         3         4         5         6    
-------------------------------------------------------------------------------
       1    0.011253 -0.001949 -0.001949  0.000000  0.000000 -0.000000
       2   -0.001949  0.011253 -0.001949  0.000000  0.000000  0.000000
       3   -0.001949 -0.001949  0.011253  0.000000  0.000000 -0.000000
       4    0.000000  0.000000  0.000000  0.049816  0.000000 -0.000000
       5    0.000000  0.000000  0.000000  0.000000  0.049816 -0.000000
       6   -0.000000  0.000000 -0.000000 -0.000000 -0.000000  0.049816
-------------------------------------------------------------------------------

  Mechanical properties :

-------------------------------------------------------------------------------
  Convention :                    Reuss         Voigt         Hill
-------------------------------------------------------------------------------
  Bulk  Modulus (GPa)     =      45.32174      45.32174      45.32174
  Shear Modulus (GPa)     =      24.72085      27.19304      25.95695
-------------------------------------------------------------------------------
  Velocity S-wave (km/s)  =       3.36511       3.52937       3.44822
  Velocity P-wave (km/s)  =       5.98827       6.11304       6.05098
-------------------------------------------------------------------------------
  Compressibility (1/GPa) =    0.02206447
-------------------------------------------------------------------------------
  Stress axis :                     x             y             z
-------------------------------------------------------------------------------
  Youngs Moduli (GPa)     =      88.86373      88.86373      88.86373
-------------------------------------------------------------------------------
  Poissons Ratio (x)      =                     0.17321       0.17321
  Poissons Ratio (y)      =       0.17321                     0.17321
  Poissons Ratio (z)      =       0.17321       0.17321
-------------------------------------------------------------------------------


  Piezoelectric Strain Matrix: (Units=C/m**2)

-------------------------------------------------------------------------------
  Indices      1         2         3         4         5         6    
-------------------------------------------------------------------------------
       x    -0.00000  -0.00000  -0.00000   0.00000  -0.00000  -0.00000
       y    -0.00000  -0.00000   0.00000  -0.00000   0.00000   0.00000
       z    -0.00000  -0.00000  -0.00000  -0.00000   0.00000   0.00000
-------------------------------------------------------------------------------


  Piezoelectric Stress Matrix: (Units=10**-11 C/N)

-------------------------------------------------------------------------------
  Indices      1         2         3         4         5         6    
-------------------------------------------------------------------------------
       x    -0.00000   0.00000   0.00000   0.00000  -0.00000  -0.00000
       y    -0.00000  -0.00000   0.00000  -0.00000   0.00000   0.00000
       z     0.00000   0.00000  -0.00000  -0.00000   0.00000   0.00000
-------------------------------------------------------------------------------


  Static dielectric constant tensor : 

-------------------------------------------------------------------------------
              x         y         z
-------------------------------------------------------------------------------
       x    22.84729   0.00000   0.00000
       y     0.00000  22.84729  -0.00000
       z     0.00000  -0.00000  22.84729
--------------------------------------------------------------------------------

  High frequency dielectric constant tensor : 

-------------------------------------------------------------------------------
              x         y         z
-------------------------------------------------------------------------------
       x     1.47557   0.00000  -0.00000
       y     0.00000   1.47557  -0.00000
       z    -0.00000  -0.00000   1.47557
-------------------------------------------------------------------------------

  Static refractive indices : 

-------------------------------------------------------------------------------
    1 =    4.77988      2 =    4.77988      3 =    4.77988
-------------------------------------------------------------------------------

  High frequency refractive indices : 

-------------------------------------------------------------------------------
    1 =    1.21473      2 =    1.21473      3 =    1.21473
-------------------------------------------------------------------------------


  Time to end of optimisation =       0.0166 seconds

********************************************************************************
*  Defect calculation for configuration   1 :                                  *
********************************************************************************

  Total number of defects =      3

  Total charge on defect  =  -1.00

  Defect centre is at   0.5000   0.0300   0.4700  Frac

  Region 1 radius =  12.0000      Number of ions =    546

  Number of symmetry inequivalent region 1 ions  =    318

  Region 2 radius =  16.0000      Number of ions =    767

  Number of symmetry inequivalent region 2a ions =    416

  Region 2a mode = 4 : screened electrostatics due to region 1 
                       neglect correction to region 1 forces from 2a
                       region 2a displacements based on defects only

  Region 2a ions will only interact with defects in region 1

  Vacancies:

--------------------------------------------------------------------------------
    Specification type     Symbol/Number         x          y          z
--------------------------------------------------------------------------------
    Fractional                               0.500000   0.500000   0.000000
    Fractional                               0.500000   0.000000   0.500000
--------------------------------------------------------------------------------

  Interstitials:

--------------------------------------------------------------------------------
    Specification type     Symbol/Number         x          y          z
--------------------------------------------------------------------------------
    Atom/Fractional         Na               0.500000   0.030000   0.470000
--------------------------------------------------------------------------------


  Symmetry reduced region 1 (Relative to defect centre) :

--------------------------------------------------------------------------------
   No.   Atomic       x            y             z       Radius  Multiplicity   
         Label      (Angs)       (Angs)        (Angs)    (Angs)     
--------------------------------------------------------------------------------
     1  Na    c      0.0000       0.0000       0.0000    0.0000     1    Defect
     2  O     c      0.0000       2.1187 *     0.1352 *  0.0000     1          
     3  O     c      0.0000      -2.3891 *     0.1352 *  0.0000     1          
     4  Cl    c      2.2539 *    -0.1352 *    -2.1187 *  0.0000     2          
     5  Na    c      2.2539 *     2.1187 *     0.1352 *  0.0000     2          
     6  Na    c      0.0000      -2.3891 *    -2.1187 *  0.0000     1          
     7  Na    c      0.0000       2.1187 *     2.3891 *  0.0000     1          
     8  Cl    c      2.2539 *    -0.1352 *     2.3891 *  0.0000     2          
     9  Na    c      2.2539 *    -2.3891 *     0.1352 *  0.0000     2          
    10  Na    c      0.0000      -2.3891 *     2.3891 *  0.0000     1          
    11  Na    c      0.0000       4.3726 *     0.1352 *  0.0000     1          
    12  Na    c      0.0000      -0.1352 *    -4.3726 *  0.0000     1          
    13  Na    c     -4.5078 *    -0.1352 *     0.1352 *  0.0000     2          
    14  Na    c      0.0000      -0.1352 *     4.6430 *  0.0000     1          
    15  Na    c      0.0000      -4.6430 *     0.1352 *  0.0000     1          
    16  O     c      0.0000       2.1187 *    -4.3726 *  0.0000     1          
    17  O     c     -4.5078 *     2.1187 *     0.1352 *  0.0000     2          
    18  O     c      0.0000      -2.3891 *    -4.3726 *  0.0000     1          
    19  O     c      0.0000       2.1187 *     4.6430 *  0.0000     1          
    20  O     c     -4.5078 *    -2.3891 *     0.1352 *  0.0000     2          
    21  O     c      0.0000      -2.3891 *     4.6430 *  0.0000     1          
    22  Cl    c      2.2539 *     4.3726 *    -2.1187 *  0.0000     2          
    23  Na    c      2.2539 *     2.1187 *    -4.3726 *  0.0000     2          
    24  Na    c     -4.5078 *     2.1187 *    -2.1187 *  0.0000     2          
    25  Cl    c      2.2539 *     4.3726 *     2.3891 *  0.0000     2          
    26  Na    c      2.2539 *    -2.3891 *    -4.3726 *  0.0000     2          
    27  Na    c     -4.5078 *    -2.3891 *    -2.1187 *  0.0000     2          
    28  Na    c     -4.5078 *     2.1187 *     2.3891 *  0.0000     2          
    29  Na    c      2.2539 *     2.1187 *     4.6430 *  0.0000     2          
    30  Cl    c      2.2539 *    -4.6430 *    -2.1187 *  0.0000     2          
    31  Na    c     -4.5078 *    -2.3891 *     2.3891 *  0.0000     2          
    32  Na    c      2.2539 *    -2.3891 *     4.6430 *  0.0000     2          
    33  Cl    c      2.2539 *    -4.6430 *     2.3891 *  0.0000     2          
    34  Na    c      0.0000       4.3726 *    -4.3726 *  0.0000     1          
    35  Na    c      4.5078 *     4.3726 *     0.1352 *  0.0000     2          
    36  Na    c     -4.5078 *    -0.1352 *    -4.3726 *  0.0000     2          
    37  Na    c      0.0000       4.3726 *     4.6430 *  0.0000     1          
    38  Na    c      0.0000      -4.6430 *    -4.3726 *  0.0000     1          
    39  Na    c     -4.5078 *    -0.1352 *     4.6430 *  0.0000     2          
    40  Na    c      4.5078 *    -4.6430 *     0.1352 *  0.0000     2          
    41  Na    c      0.0000      -4.6430 *     4.6430 *  0.0000     1          
    42  O     c      0.0000       6.6264 *     0.1352 *  0.0000     1          
    43  O     c     -4.5078 *     2.1187 *    -4.3726 *  0.0000     2          
    44  O     c     -4.5078 *    -2.3891 *    -4.3726 *  0.0000     2          
    45  O     c     -4.5078 *     2.1187 *     4.6430 *  0.0000     2          
    46  O     c     -4.5078 *    -2.3891 *     4.6430 *  0.0000     2          
    47  O     c      0.0000      -6.8969 *     0.1352 *  0.0000     1          
    48  Na    c      0.0000       2.1187 *    -6.6264 *  0.0000     1          
    49  Na    c      0.0000       6.6264 *    -2.1187 *  0.0000     1          
    50  Cl    c      2.2539 *    -0.1352 *    -6.6264 *  0.0000     2          
    51  Na    c      2.2539 *     6.6264 *     0.1352 *  0.0000     2          
    52  Na    c      0.0000      -2.3891 *    -6.6264 *  0.0000     1          
    53  Na    c      0.0000       6.6264 *     2.3891 *  0.0000     1          
    54  Cl    c      6.7617 *    -0.1352 *    -2.1187 *  0.0000     2          
    55  Na    c      6.7617 *     2.1187 *     0.1352 *  0.0000     2          
    56  Cl    c      6.7617 *    -0.1352 *     2.3891 *  0.0000     2          
    57  Na    c      6.7617 *    -2.3891 *     0.1352 *  0.0000     2          
    58  Na    c      0.0000       2.1187 *     6.8969 *  0.0000     1          
    59  Na    c      0.0000      -6.8969 *    -2.1187 *  0.0000     1          
    60  Cl    c      2.2539 *    -0.1352 *     6.8969 *  0.0000     2          
    61  Na    c      2.2539 *    -6.8969 *     0.1352 *  0.0000     2          
    62  Na    c      0.0000      -2.3891 *     6.8969 *  0.0000     1          
    63  Na    c      0.0000      -6.8969 *     2.3891 *  0.0000     1          
    64  Na    c      4.5078 *     4.3726 *    -4.3726 *  0.0000     2          
    65  Na    c      4.5078 *     4.3726 *     4.6430 *  0.0000     2          
    66  Na    c      4.5078 *    -4.6430 *    -4.3726 *  0.0000     2          
    67  O     c      0.0000       6.6264 *    -4.3726 *  0.0000     1          
    68  Na    c      4.5078 *    -4.6430 *     4.6430 *  0.0000     2          
    69  O     c     -4.5078 *     6.6264 *     0.1352 *  0.0000     2          
    70  O     c      0.0000       6.6264 *     4.6430 *  0.0000     1          
    71  O     c      0.0000      -6.8969 *    -4.3726 *  0.0000     1          
    72  O     c      4.5078 *    -6.8969 *     0.1352 *  0.0000     2          
    73  Cl    c      2.2539 *     4.3726 *    -6.6264 *  0.0000     2          
    74  Na    c      2.2539 *     6.6264 *    -4.3726 *  0.0000     2          
    75  Na    c      4.5078 *     2.1187 *    -6.6264 *  0.0000     2          
    76  Na    c     -4.5078 *     6.6264 *    -2.1187 *  0.0000     2          
    77  O     c      0.0000      -6.8969 *     4.6430 *  0.0000     1          
    78  Cl    c      6.7617 *     4.3726 *    -2.1187 *  0.0000     2          
    79  Na    c      6.7617 *     2.1187 *    -4.3726 *  0.0000     2          
    80  Na    c     -4.5078 *    -2.3891 *    -6.6264 *  0.0000     2          
    81  Na    c     -4.5078 *     6.6264 *     2.3891 *  0.0000     2          
    82  Cl    c      2.2539 *    -4.6430 *    -6.6264 *  0.0000     2          
    83  Cl    c      6.7617 *     4.3726 *     2.3891 *  0.0000     2          
    84  Na    c      2.2539 *     6.6264 *     4.6430 *  0.0000     2          
    85  Na    c      6.7617 *    -2.3891 *    -4.3726 *  0.0000     2          
    86  Cl    c      2.2539 *     4.3726 *     6.8969 *  0.0000     2          
    87  Na    c      2.2539 *    -6.8969 *    -4.3726 *  0.0000     2          
    88  Na    c      6.7617 *     2.1187 *     4.6430 *  0.0000     2          
    89  Cl    c      6.7617 *    -4.6430 *    -2.1187 *  0.0000     2          
    90  Na    c     -4.5078 *     2.1187 *     6.8969 *  0.0000     2          
    91  Na    c      4.5078 *    -6.8969 *    -2.1187 *  0.0000     2          
    92  Na    c      6.7617 *    -2.3891 *     4.6430 *  0.0000     2          
    93  Cl    c      6.7617 *    -4.6430 *     2.3891 *  0.0000     2          
    94  Na    c      4.5078 *    -2.3891 *     6.8969 *  0.0000     2          
    95  Na    c      4.5078 *    -6.8969 *     2.3891 *  0.0000     2          
    96  Na    c      2.2539 *    -6.8969 *     4.6430 *  0.0000     2          
    97  Cl    c      2.2539 *    -4.6430 *     6.8969 *  0.0000     2          
    98  Na    c      0.0000       8.8803 *     0.1352 *  0.0000     1          
    99  Na    c      0.0000      -0.1352 *    -8.8803 *  0.0000     1          
   100  Na    c      9.0156 *    -0.1352 *     0.1352 *  0.0000     2          
   101  O     c     -4.5078 *     6.6264 *    -4.3726 *  0.0000     2          
   102  O     c      0.0000       2.1187 *    -8.8803 *  0.0000     1          
   103  Na    c      0.0000      -0.1352 *     9.1508 *  0.0000     1          
   104  Na    c      0.0000      -9.1508 *     0.1352 *  0.0000     1          
   105  O     c      0.0000      -2.3891 *    -8.8803 *  0.0000     1          
   106  O     c     -4.5078 *     6.6264 *     4.6430 *  0.0000     2          
   107  O     c      9.0156 *     2.1187 *     0.1352 *  0.0000     2          
   108  O     c      4.5078 *    -6.8969 *    -4.3726 *  0.0000     2          
   109  O     c      9.0156 *    -2.3891 *     0.1352 *  0.0000     2          
   110  Na    c      0.0000       6.6264 *    -6.6264 *  0.0000     1          
   111  O     c      0.0000       2.1187 *     9.1508 *  0.0000     1          
   112  Cl    c      2.2539 *     8.8803 *    -2.1187 *  0.0000     2          
   113  Na    c      2.2539 *     2.1187 *    -8.8803 *  0.0000     2          
   114  O     c      0.0000      -2.3891 *     9.1508 *  0.0000     1          
   115  O     c      4.5078 *    -6.8969 *     4.6430 *  0.0000     2          
   116  Cl    c      2.2539 *     8.8803 *     2.3891 *  0.0000     2          
   117  Cl    c      6.7617 *    -0.1352 *    -6.6264 *  0.0000     2          
   118  Na    c      6.7617 *     6.6264 *     0.1352 *  0.0000     2          
   119  Na    c      2.2539 *    -2.3891 *    -8.8803 *  0.0000     2          
   120  Na    c      9.0156 *     2.1187 *    -2.1187 *  0.0000     2          
   121  Na    c      0.0000       6.6264 *     6.8969 *  0.0000     1          
   122  Na    c      0.0000      -6.8969 *    -6.6264 *  0.0000     1          
   123  Na    c      9.0156 *    -2.3891 *    -2.1187 *  0.0000     2          
   124  Na    c      9.0156 *     2.1187 *     2.3891 *  0.0000     2          
   125  Na    c      9.0156 *    -2.3891 *     2.3891 *  0.0000     2          
   126  Na    c      2.2539 *     2.1187 *     9.1508 *  0.0000     2          
   127  Cl    c      2.2539 *    -9.1508 *    -2.1187 *  0.0000     2          
   128  Cl    c      6.7617 *    -0.1352 *     6.8969 *  0.0000     2          
   129  Na    c      6.7617 *    -6.8969 *     0.1352 *  0.0000     2          
   130  Na    c      2.2539 *    -2.3891 *     9.1508 *  0.0000     2          
   131  Cl    c      2.2539 *    -9.1508 *     2.3891 *  0.0000     2          
   132  Na    c      0.0000      -6.8969 *     6.8969 *  0.0000     1          
   133  Na    c      0.0000       8.8803 *    -4.3726 *  0.0000     1          
   134  Na    c      0.0000       4.3726 *    -8.8803 *  0.0000     1          
   135  Na    c     -4.5078 *     8.8803 *     0.1352 *  0.0000     2          
   136  Na    c     -4.5078 *    -0.1352 *    -8.8803 *  0.0000     2          
   137  Na    c      0.0000       8.8803 *     4.6430 *  0.0000     1          
   138  Na    c      9.0156 *     4.3726 *     0.1352 *  0.0000     2          
   139  Na    c      9.0156 *    -0.1352 *    -4.3726 *  0.0000     2          
   140  Na    c      0.0000      -4.6430 *    -8.8803 *  0.0000     1          
   141  Na    c      0.0000       4.3726 *     9.1508 *  0.0000     1          
   142  Na    c      9.0156 *    -0.1352 *     4.6430 *  0.0000     2          
   143  Na    c      0.0000      -9.1508 *    -4.3726 *  0.0000     1          
   144  Na    c      9.0156 *    -4.6430 *     0.1352 *  0.0000     2          
   145  O     c      4.5078 *     2.1187 *    -8.8803 *  0.0000     2          
   146  Na    c     -4.5078 *    -0.1352 *     9.1508 *  0.0000     2          
   147  Na    c     -4.5078 *    -9.1508 *     0.1352 *  0.0000     2          
   148  O     c      9.0156 *     2.1187 *    -4.3726 *  0.0000     2          
   149  O     c     -4.5078 *    -2.3891 *    -8.8803 *  0.0000     2          
   150  Na    c      0.0000      -4.6430 *     9.1508 *  0.0000     1          
   151  Na    c      0.0000      -9.1508 *     4.6430 *  0.0000     1          
   152  O     c      9.0156 *    -2.3891 *    -4.3726 *  0.0000     2          
   153  O     c      9.0156 *     2.1187 *     4.6430 *  0.0000     2          
   154  Na    c     -4.5078 *     6.6264 *    -6.6264 *  0.0000     2          
   155  O     c     -4.5078 *     2.1187 *     9.1508 *  0.0000     2          
   156  O     c      9.0156 *    -2.3891 *     4.6430 *  0.0000     2          
   157  Cl    c      6.7617 *     4.3726 *    -6.6264 *  0.0000     2          
   158  Na    c      6.7617 *     6.6264 *    -4.3726 *  0.0000     2          
   159  O     c     -4.5078 *    -2.3891 *     9.1508 *  0.0000     2          
   160  Na    c      6.7617 *     6.6264 *     4.6430 *  0.0000     2          
   161  Cl    c      6.7617 *    -4.6430 *    -6.6264 *  0.0000     2          
   162  Na    c     -4.5078 *     6.6264 *     6.8969 *  0.0000     2          
   163  Na    c      4.5078 *    -6.8969 *    -6.6264 *  0.0000     2          
   164  Cl    c      6.7617 *     4.3726 *     6.8969 *  0.0000     2          
   165  Na    c      6.7617 *    -6.8969 *    -4.3726 *  0.0000     2          
   166  Cl    c      6.7617 *    -4.6430 *     6.8969 *  0.0000     2          
   167  Na    c      6.7617 *    -6.8969 *     4.6430 *  0.0000     2          
   168  Na    c      4.5078 *    -6.8969 *     6.8969 *  0.0000     2          
   169  Na    c     -4.5078 *     8.8803 *    -4.3726 *  0.0000     2          
   170  Na    c      4.5078 *     4.3726 *    -8.8803 *  0.0000     2          
   171  Na    c      9.0156 *     4.3726 *    -4.3726 *  0.0000     2          
   172  Na    c     -4.5078 *     8.8803 *     4.6430 *  0.0000     2          
   173  Na    c      4.5078 *    -4.6430 *    -8.8803 *  0.0000     2          
   174  Na    c      9.0156 *     4.3726 *     4.6430 *  0.0000     2          
   175  Na    c      9.0156 *    -4.6430 *    -4.3726 *  0.0000     2          
   176  O     c      0.0000       6.6264 *    -8.8803 *  0.0000     1          
   177  Na    c      4.5078 *     4.3726 *     9.1508 *  0.0000     2          
   178  Na    c     -4.5078 *    -9.1508 *    -4.3726 *  0.0000     2          
   179  O     c      0.0000      11.1342 *     0.1352 *  0.0000     1          
   180  Na    c      9.0156 *    -4.6430 *     4.6430 *  0.0000     2          
   181  O     c      9.0156 *     6.6264 *     0.1352 *  0.0000     2          
   182  Na    c      4.5078 *    -4.6430 *     9.1508 *  0.0000     2          
   183  Na    c     -4.5078 *    -9.1508 *     4.6430 *  0.0000     2          
   184  O     c      0.0000      -6.8969 *    -8.8803 *  0.0000     1          
   185  O     c      0.0000       6.6264 *     9.1508 *  0.0000     1          
   186  Cl    c      2.2539 *     8.8803 *    -6.6264 *  0.0000     2          
   187  Na    c      2.2539 *     6.6264 *    -8.8803 *  0.0000     2          
   188  Na    c      0.0000       2.1187 *   -11.1342 *  0.0000     1          
   189  Na    c      0.0000      11.1342 *    -2.1187 *  0.0000     1          
   190  O     c      9.0156 *    -6.8969 *     0.1352 *  0.0000     2          
   191  Cl    c      2.2539 *    -0.1352 *   -11.1342 *  0.0000     2          
   192  Cl    c      6.7617 *     8.8803 *    -2.1187 *  0.0000     2          
   193  Na    c      2.2539 *    11.1342 *     0.1352 *  0.0000     2          
   194  Na    c      6.7617 *     2.1187 *    -8.8803 *  0.0000     2          
   195  Na    c      0.0000      -2.3891 *   -11.1342 *  0.0000     1          
   196  Na    c      0.0000      11.1342 *     2.3891 *  0.0000     1          
   197  Na    c      9.0156 *     2.1187 *    -6.6264 *  0.0000     2          
   198  Na    c      9.0156 *     6.6264 *    -2.1187 *  0.0000     2          
   199  O     c      0.0000     -11.4047 *     0.1352 *  0.0000     1          
   200  Cl    c      6.7617 *     8.8803 *     2.3891 *  0.0000     2          
   201  Na    c      6.7617 *    -2.3891 *    -8.8803 *  0.0000     2          
   202  Na    c      9.0156 *    -2.3891 *    -6.6264 *  0.0000     2          
   203  Na    c      9.0156 *     6.6264 *     2.3891 *  0.0000     2          
   204  O     c      0.0000      -6.8969 *     9.1508 *  0.0000     1          
   205  Cl    c      2.2539 *     8.8803 *     6.8969 *  0.0000     2          
   206  Cl    c     11.2695 *    -0.1352 *    -2.1187 *  0.0000     2          
   207  Na    c     11.2695 *     2.1187 *     0.1352 *  0.0000     2          
   208  Na    c      2.2539 *    -6.8969 *    -8.8803 *  0.0000     2          
   209  Na    c      2.2539 *     6.6264 *     9.1508 *  0.0000     2          
   210  Cl    c     11.2695 *    -0.1352 *     2.3891 *  0.0000     2          
   211  Na    c     11.2695 *    -2.3891 *     0.1352 *  0.0000     2          
   212  Cl    c      2.2539 *    -9.1508 *    -6.6264 *  0.0000     2          
   213  Na    c      9.0156 *     2.1187 *     6.8969 *  0.0000     2          
   214  Na    c      9.0156 *    -6.8969 *    -2.1187 *  0.0000     2          
   215  Na    c      6.7617 *     2.1187 *     9.1508 *  0.0000     2          
   216  Cl    c      6.7617 *    -9.1508 *    -2.1187 *  0.0000     2          
   217  Na    c      0.0000       2.1187 *    11.4047 *  0.0000     1          
   218  Na    c      0.0000     -11.4047 *    -2.1187 *  0.0000     1          
   219  Na    c      9.0156 *    -2.3891 *     6.8969 *  0.0000     2          
   220  Na    c      9.0156 *    -6.8969 *     2.3891 *  0.0000     2          
   221  Na    c      6.7617 *    -2.3891 *     9.1508 *  0.0000     2          
   222  Cl    c      2.2539 *    -0.1352 *    11.4047 *  0.0000     2          
   223  Cl    c      6.7617 *    -9.1508 *     2.3891 *  0.0000     2          
   224  Na    c      2.2539 *   -11.4047 *     0.1352 *  0.0000     2          
   225  Na    c      0.0000      -2.3891 *    11.4047 *  0.0000     1          
   226  Na    c      0.0000     -11.4047 *     2.3891 *  0.0000     1          
   227  Na    c      2.2539 *    -6.8969 *     9.1508 *  0.0000     2          
   228  Cl    c      2.2539 *    -9.1508 *     6.8969 *  0.0000     2          
   229  O     c      0.0000      11.1342 *    -4.3726 *  0.0000     1          
   230  O     c     -4.5078 *     6.6264 *    -8.8803 *  0.0000     2          
   231  O     s      0.0000       2.1187 *     0.1352 *  0.0000     1          
   232  O     s      0.0000      -2.3891 *     0.1352 *  0.0000     1          
   233  Cl    s      2.2539 *    -0.1352 *    -2.1187 *  0.0000     2          
   234  Cl    s      2.2539 *    -0.1352 *     2.3891 *  0.0000     2          
   235  O     s      0.0000       2.1187 *    -4.3726 *  0.0000     1          
   236  O     s     -4.5078 *     2.1187 *     0.1352 *  0.0000     2          
   237  O     s      0.0000      -2.3891 *    -4.3726 *  0.0000     1          
   238  O     s      0.0000       2.1187 *     4.6430 *  0.0000     1          
   239  O     s     -4.5078 *    -2.3891 *     0.1352 *  0.0000     2          
   240  O     s      0.0000      -2.3891 *     4.6430 *  0.0000     1          
   241  Cl    s      2.2539 *     4.3726 *    -2.1187 *  0.0000     2          
   242  Cl    s      2.2539 *     4.3726 *     2.3891 *  0.0000     2          
   243  Cl    s      2.2539 *    -4.6430 *    -2.1187 *  0.0000     2          
   244  Cl    s      2.2539 *    -4.6430 *     2.3891 *  0.0000     2          
   245  O     s      0.0000       6.6264 *     0.1352 *  0.0000     1          
   246  O     s     -4.5078 *     2.1187 *    -4.3726 *  0.0000     2          
   247  O     s     -4.5078 *    -2.3891 *    -4.3726 *  0.0000     2          
   248  O     s     -4.5078 *     2.1187 *     4.6430 *  0.0000     2          
   249  O     s     -4.5078 *    -2.3891 *     4.6430 *  0.0000     2          
   250  O     s      0.0000      -6.8969 *     0.1352 *  0.0000     1          
   251  Cl    s      2.2539 *    -0.1352 *    -6.6264 *  0.0000     2          
   252  Cl    s      6.7617 *    -0.1352 *    -2.1187 *  0.0000     2          
   253  Cl    s      6.7617 *    -0.1352 *     2.3891 *  0.0000     2          
   254  Cl    s      2.2539 *    -0.1352 *     6.8969 *  0.0000     2          
   255  O     s      0.0000       6.6264 *    -4.3726 *  0.0000     1          
   256  O     s     -4.5078 *     6.6264 *     0.1352 *  0.0000     2          
   257  O     s      0.0000       6.6264 *     4.6430 *  0.0000     1          
   258  O     s      0.0000      -6.8969 *    -4.3726 *  0.0000     1          
   259  O     s      4.5078 *    -6.8969 *     0.1352 *  0.0000     2          
   260  Cl    s      2.2539 *     4.3726 *    -6.6264 *  0.0000     2          
   261  O     s      0.0000      -6.8969 *     4.6430 *  0.0000     1          
   262  Cl    s      6.7617 *     4.3726 *    -2.1187 *  0.0000     2          
   263  Cl    s      2.2539 *    -4.6430 *    -6.6264 *  0.0000     2          
   264  Cl    s      6.7617 *     4.3726 *     2.3891 *  0.0000     2          
   265  Cl    s      2.2539 *     4.3726 *     6.8969 *  0.0000     2          
   266  Cl    s      6.7617 *    -4.6430 *    -2.1187 *  0.0000     2          
   267  Cl    s      6.7617 *    -4.6430 *     2.3891 *  0.0000     2          
   268  Cl    s      2.2539 *    -4.6430 *     6.8969 *  0.0000     2          
   269  O     s     -4.5078 *     6.6264 *    -4.3726 *  0.0000     2          
   270  O     s      0.0000       2.1187 *    -8.8803 *  0.0000     1          
   271  O     s      0.0000      -2.3891 *    -8.8803 *  0.0000     1          
   272  O     s     -4.5078 *     6.6264 *     4.6430 *  0.0000     2          
   273  O     s      9.0156 *     2.1187 *     0.1352 *  0.0000     2          
   274  O     s      4.5078 *    -6.8969 *    -4.3726 *  0.0000     2          
   275  O     s      9.0156 *    -2.3891 *     0.1352 *  0.0000     2          
   276  O     s      0.0000       2.1187 *     9.1508 *  0.0000     1          
   277  Cl    s      2.2539 *     8.8803 *    -2.1187 *  0.0000     2          
   278  O     s      0.0000      -2.3891 *     9.1508 *  0.0000     1          
   279  O     s      4.5078 *    -6.8969 *     4.6430 *  0.0000     2          
   280  Cl    s      2.2539 *     8.8803 *     2.3891 *  0.0000     2          
   281  Cl    s      6.7617 *    -0.1352 *    -6.6264 *  0.0000     2          
   282  Cl    s      2.2539 *    -9.1508 *    -2.1187 *  0.0000     2          
   283  Cl    s      6.7617 *    -0.1352 *     6.8969 *  0.0000     2          
   284  Cl    s      2.2539 *    -9.1508 *     2.3891 *  0.0000     2          
   285  O     s      4.5078 *     2.1187 *    -8.8803 *  0.0000     2          
   286  O     s      9.0156 *     2.1187 *    -4.3726 *  0.0000     2          
   287  O     s     -4.5078 *    -2.3891 *    -8.8803 *  0.0000     2          
   288  O     s      9.0156 *    -2.3891 *    -4.3726 *  0.0000     2          
   289  O     s      9.0156 *     2.1187 *     4.6430 *  0.0000     2          
   290  O     s     -4.5078 *     2.1187 *     9.1508 *  0.0000     2          
   291  O     s      9.0156 *    -2.3891 *     4.6430 *  0.0000     2          
   292  Cl    s      6.7617 *     4.3726 *    -6.6264 *  0.0000     2          
   293  O     s     -4.5078 *    -2.3891 *     9.1508 *  0.0000     2          
   294  Cl    s      6.7617 *    -4.6430 *    -6.6264 *  0.0000     2          
   295  Cl    s      6.7617 *     4.3726 *     6.8969 *  0.0000     2          
   296  Cl    s      6.7617 *    -4.6430 *     6.8969 *  0.0000     2          
   297  O     s      0.0000       6.6264 *    -8.8803 *  0.0000     1          
   298  O     s      0.0000      11.1342 *     0.1352 *  0.0000     1          
   299  O     s      9.0156 *     6.6264 *     0.1352 *  0.0000     2          
   300  O     s      0.0000      -6.8969 *    -8.8803 *  0.0000     1          
   301  O     s      0.0000       6.6264 *     9.1508 *  0.0000     1          
   302  Cl    s      2.2539 *     8.8803 *    -6.6264 *  0.0000     2          
   303  O     s      9.0156 *    -6.8969 *     0.1352 *  0.0000     2          
   304  Cl    s      2.2539 *    -0.1352 *   -11.1342 *  0.0000     2          
   305  Cl    s      6.7617 *     8.8803 *    -2.1187 *  0.0000     2          
   306  O     s      0.0000     -11.4047 *     0.1352 *  0.0000     1          
   307  Cl    s      6.7617 *     8.8803 *     2.3891 *  0.0000     2          
   308  O     s      0.0000      -6.8969 *     9.1508 *  0.0000     1          
   309  Cl    s      2.2539 *     8.8803 *     6.8969 *  0.0000     2          
   310  Cl    s     11.2695 *    -0.1352 *    -2.1187 *  0.0000     2          
   311  Cl    s     11.2695 *    -0.1352 *     2.3891 *  0.0000     2          
   312  Cl    s      2.2539 *    -9.1508 *    -6.6264 *  0.0000     2          
   313  Cl    s      6.7617 *    -9.1508 *    -2.1187 *  0.0000     2          
   314  Cl    s      2.2539 *    -0.1352 *    11.4047 *  0.0000     2          
   315  Cl    s      6.7617 *    -9.1508 *     2.3891 *  0.0000     2          
   316  Cl    s      2.2539 *    -9.1508 *     6.8969 *  0.0000     2          
   317  O     s      0.0000      11.1342 *    -4.3726 *  0.0000     1          
   318  O     s     -4.5078 *     6.6264 *    -8.8803 *  0.0000     2          
--------------------------------------------------------------------------------

  Components of defect energy : 

--------------------------------------------------------------------------------
  Region 1 - region 1                   =     -8.41457734 eV
  Region 1 - region 2a (unrelaxed)      =     16.80017150 eV
  Region 1 - 2a (relaxed - correction)  =     -0.31266901 eV
  Region 1 (Total)                      =      8.07292516 eV
  Region 2a                             =      0.15622942 eV
  Region 2b                             =     -0.43867220 eV
--------------------------------------------------------------------------------
  Total defect energy                   =      7.79048238 eV
--------------------------------------------------------------------------------

  Largest displacement in region 2 =   0.0326 Angstroms


  Number of variables =      862

  Maximum number of calculations  =        1000
  Maximum Hessian update interval =          10
  Maximum step size               =   1.0000000
  Maximum parameter tolerance     =   0.0000100
  Maximum function  tolerance     =   0.0000100
  Maximum gradient  tolerance     =   0.0010000

  Symmetry adapted optimisation

  Symmetry to be used for second derivatives

  Newton-Raphson optimiser to be used

  BFGS hessian update to be used

  Lower half triangular hessian to be used

  Start of defect optimisation :

  Cycle:      0 Defect Energy:   7.790482  Gnorm:     0.019412  CPU:    5.950
  ** Hessian calculated **
  Cycle:      1 Defect Energy:   6.045966  Gnorm:     0.007478  CPU:   11.378
  Cycle:      2 Defect Energy:   5.468470  Gnorm:     0.005959  CPU:   15.924
  Cycle:      3 Defect Energy:   5.335478  Gnorm:     0.003281  CPU:   19.535
  Cycle:      4 Defect Energy:   5.287087  Gnorm:     0.003141  CPU:   20.492
  Cycle:      5 Defect Energy:   5.221587  Gnorm:     0.002701  CPU:   21.467
  Cycle:      6 Defect Energy:   5.134879  Gnorm:     0.002208  CPU:   22.490
  Cycle:      7 Defect Energy:   5.040359  Gnorm:     0.002103  CPU:   23.424
  Cycle:      8 Defect Energy:   4.976384  Gnorm:     0.001770  CPU:   24.367
  Cycle:      9 Defect Energy:   4.927134  Gnorm:     0.001850  CPU:   25.307
  Cycle:     10 Defect Energy:   4.879953  Gnorm:     0.001895  CPU:   26.235
  ** Hessian calculated **
  Cycle:     11 Defect Energy:   4.863677  Gnorm:     0.001667  CPU:   28.768
  Cycle:     12 Defect Energy:   4.842793  Gnorm:     0.001587  CPU:   29.706
  Cycle:     13 Defect Energy:   4.815244  Gnorm:     0.001561  CPU:   30.624
  Cycle:     14 Defect Energy:   4.780419  Gnorm:     0.001523  CPU:   31.527
  Cycle:     15 Defect Energy:   4.749739  Gnorm:     0.001484  CPU:   32.444
  Cycle:     16 Defect Energy:   4.722191  Gnorm:     0.001449  CPU:   33.372
  Cycle:     17 Defect Energy:   4.697578  Gnorm:     0.001448  CPU:   36.402
  Cycle:     18 Defect Energy:   4.671470  Gnorm:     0.001416  CPU:   38.670
  Cycle:     19 Defect Energy:   4.645402  Gnorm:     0.001371  CPU:   39.744
  Cycle:     20 Defect Energy:   4.619604  Gnorm:     0.001343  CPU:   40.900
  ** Hessian calculated **
  Cycle:     21 Defect Energy:   4.610254  Gnorm:     0.001255  CPU:   43.825
  Cycle:     22 Defect Energy:   4.598309  Gnorm:     0.001222  CPU:   44.898
  Cycle:     23 Defect Energy:   4.582870  Gnorm:     0.001185  CPU:   45.956
  Cycle:     24 Defect Energy:   4.565360  Gnorm:     0.001166  CPU:   47.028
  Cycle:     25 Defect Energy:   4.551680  Gnorm:     0.001106  CPU:   48.100
  Cycle:     26 Defect Energy:   4.540252  Gnorm:     0.001116  CPU:   49.130
  Cycle:     27 Defect Energy:   4.527381  Gnorm:     0.001132  CPU:   50.138
  Cycle:     28 Defect Energy:   4.512298  Gnorm:     0.001164  CPU:   51.141
  Cycle:     29 Defect Energy:   4.494236  Gnorm:     0.001193  CPU:   52.253
  Cycle:     30 Defect Energy:   4.475528  Gnorm:     0.001280  CPU:   53.226
  ** Hessian calculated **
  Cycle:     31 Defect Energy:   4.466171  Gnorm:     0.001214  CPU:   55.774
  Cycle:     32 Defect Energy:   4.453760  Gnorm:     0.001184  CPU:   56.722
  Cycle:     33 Defect Energy:   4.437367  Gnorm:     0.001156  CPU:   57.660
  Cycle:     34 Defect Energy:   4.417820  Gnorm:     0.001119  CPU:   58.589
  Cycle:     35 Defect Energy:   4.402260  Gnorm:     0.001113  CPU:   59.523
  Cycle:     36 Defect Energy:   4.388864  Gnorm:     0.001119  CPU:   60.414
  Cycle:     37 Defect Energy:   4.377412  Gnorm:     0.001159  CPU:   61.516
  Cycle:     38 Defect Energy:   4.366185  Gnorm:     0.001163  CPU:   62.452
  Cycle:     39 Defect Energy:   4.355514  Gnorm:     0.001200  CPU:   63.364
  Cycle:     40 Defect Energy:   4.343907  Gnorm:     0.001239  CPU:   64.293
  ** Hessian calculated **
  Cycle:     41 Defect Energy:   4.292371  Gnorm:     0.001072  CPU:   66.555
  Cycle:     42 Defect Energy:   4.226922  Gnorm:     0.000778  CPU:   68.029
  Cycle:     43 Defect Energy:   4.193820  Gnorm:     0.000524  CPU:   71.807
  Cycle:     44 Defect Energy:   4.179098  Gnorm:     0.000370  CPU:   72.918
  Cycle:     45 Defect Energy:   4.172787  Gnorm:     0.000267  CPU:   74.040
  Cycle:     46 Defect Energy:   4.168048  Gnorm:     0.000115  CPU:   75.167
  Cycle:     47 Defect Energy:   4.166733  Gnorm:     0.000067  CPU:   76.312
  Cycle:     48 Defect Energy:   4.166383  Gnorm:     0.000038  CPU:   77.404
  Cycle:     49 Defect Energy:   4.166262  Gnorm:     0.000026  CPU:   78.418
  Cycle:     50 Defect Energy:   4.166207  Gnorm:     0.000018  CPU:   79.459
  ** Hessian calculated **
  Cycle:     51 Defect Energy:   4.166161  Gnorm:     0.000013  CPU:   82.252
  Cycle:     52 Defect Energy:   4.166141  Gnorm:     0.000009  CPU:   83.252


  **** Optimisation achieved ****


  Final defect energy  =        4.16613318
  Final defect Gnorm   =        0.00000681

  Components of defect energy : 

--------------------------------------------------------------------------------
  Region 1 - region 1                   =    -10.84556905 eV
  Region 1 - region 2a (unrelaxed)      =     15.55744625 eV
  Region 1 - 2a (relaxed - correction)  =     -0.22983508 eV
  Region 1 (Total)                      =      4.48204212 eV
  Region 2a                             =      0.11478352 eV
  Region 2b                             =     -0.43069247 eV
--------------------------------------------------------------------------------
  Total defect energy                   =      4.16613318 eV
--------------------------------------------------------------------------------

  Largest displacement in region 2 =   0.0326 Angstroms

  Final coordinates of region 1 :

--------------------------------------------------------------------------------
   No.  Atomic        x           y           z          Radius      Charge
        Label       (Angs)      (Angs)      (Angs)       (Angs)       (e) 
--------------------------------------------------------------------------------
     1  Na    c     2.253894    0.135234    2.118660    0.000000    1.000000
     2  O     c     2.253894    2.331322    2.380569    0.000000    0.183000
     3  O     c     2.253894   -2.204681    2.227159    0.000000    0.183000
     4  Cl    c     4.638019   -0.075658    0.013418    0.000000    1.485000
     5  Cl    c    -0.130232   -0.075658    0.013418    0.000000    1.485000
     6  Na    c     4.427546    2.266653    1.888075    0.000000    1.000000
     7  Na    c     0.080242    2.266653    1.888075    0.000000    1.000000
     8  Na    c     2.253894   -2.497359   -0.002040    0.000000    1.000000
     9  Na    c     2.253894    2.669173    4.541731    0.000000    1.000000
    10  Cl    c     4.585473   -0.139540    4.583913    0.000000    1.485000
    11  Cl    c    -0.077686   -0.139540    4.583913    0.000000    1.485000
    12  Na    c     4.505106   -2.133808    2.157417    0.000000    1.000000
    13  Na    c     0.002682   -2.133808    2.157417    0.000000    1.000000
    14  Na    c     2.253894   -2.293025    4.484880    0.000000    1.000000
    15  Na    c     2.253894    4.453067    1.721044    0.000000    1.000000
    16  Na    c     2.253894    0.105262   -1.766921    0.000000    1.000000
    17  Na    c    -2.205222    0.001794    2.615208    0.000000    1.000000
    18  Na    c     6.713010    0.001794    2.615208    0.000000    1.000000
    19  Na    c     2.253894    0.042911    6.325920    0.000000    1.000000
    20  Na    c     2.253894   -4.474596    2.365993    0.000000    1.000000
    21  O     c     2.253894    2.262512   -2.319912    0.000000    0.183000
    22  O     c    -2.218712    2.246067    2.240226    0.000000    0.183000
    23  O     c     6.726499    2.246067    2.240226    0.000000    0.183000
    24  O     c     2.253894   -2.192705   -2.229404    0.000000    0.183000
    25  O     c     2.253894    2.249377    6.803116    0.000000    0.183000
    26  O     c    -2.254707   -2.256170    2.265784    0.000000    0.183000
    27  O     c     6.762494   -2.256170    2.265784    0.000000    0.183000
    28  O     c     2.253894   -2.190337    6.759285    0.000000    0.183000
    29  Cl    c     4.611639    4.639488   -0.012310    0.000000    1.485000
    30  Cl    c    -0.103851    4.639488   -0.012310    0.000000    1.485000
    31  Na    c     4.436374    2.301900   -1.887849    0.000000    1.000000
    32  Na    c     0.071413    2.301900   -1.887849    0.000000    1.000000
    33  Na    c    -2.448038    1.882821    0.006877    0.000000    1.000000
    34  Na    c     6.955825    1.882821    0.006877    0.000000    1.000000
    35  Cl    c     4.563765    4.618819    4.652582    0.000000    1.485000
    36  Cl    c    -0.055978    4.618819    4.652582    0.000000    1.485000
    37  Na    c     4.510023   -2.264491   -2.160759    0.000000    1.000000
    38  Na    c    -0.002235   -2.264491   -2.160759    0.000000    1.000000
    39  Na    c    -2.354683   -1.898380    0.008635    0.000000    1.000000
    40  Na    c     6.862470   -1.898380    0.008635    0.000000    1.000000
    41  Na    c    -1.960893    2.570076    4.473449    0.000000    1.000000
    42  Na    c     6.468680    2.570076    4.473449    0.000000    1.000000
    43  Na    c     4.505609    2.190475    6.883781    0.000000    1.000000
    44  Na    c     0.002178    2.190475    6.883781    0.000000    1.000000
    45  Cl    c     4.474911   -4.500235   -0.008079    0.000000    1.485000
    46  Cl    c     0.032876   -4.500235   -0.008079    0.000000    1.485000
    47  Na    c    -2.066199   -2.604482    4.506182    0.000000    1.000000
    48  Na    c     6.573986   -2.604482    4.506182    0.000000    1.000000
    49  Na    c     4.513764   -2.126578    6.817327    0.000000    1.000000
    50  Na    c    -0.005977   -2.126578    6.817327    0.000000    1.000000
    51  Cl    c     4.440912   -4.565324    4.494190    0.000000    1.485000
    52  Cl    c     0.066875   -4.565324    4.494190    0.000000    1.485000
    53  Na    c     2.253894    4.438324   -1.883846    0.000000    1.000000
    54  Na    c     6.783486    4.494366    1.909613    0.000000    1.000000
    55  Na    c    -2.275699    4.494366    1.909613    0.000000    1.000000
    56  Na    c    -2.075693    0.007371   -2.584372    0.000000    1.000000
    57  Na    c     6.583480    0.007371   -2.584372    0.000000    1.000000
    58  Na    c     2.253894    4.505180    7.142576    0.000000    1.000000
    59  Na    c     2.253894   -4.446972   -2.585155    0.000000    1.000000
    60  Na    c    -2.323903   -0.006783    6.405480    0.000000    1.000000
    61  Na    c     6.831690   -0.006783    6.405480    0.000000    1.000000
    62  Na    c     6.712257   -4.490762    1.882746    0.000000    1.000000
    63  Na    c    -2.204470   -4.490762    1.882746    0.000000    1.000000
    64  Na    c     2.253894   -4.464393    6.876337    0.000000    1.000000
    65  O     c     2.253894    6.712541    2.254662    0.000000    0.183000
    66  O     c    -2.220373    2.237574   -2.227022    0.000000    0.183000
    67  O     c     6.728160    2.237574   -2.227022    0.000000    0.183000
    68  O     c    -2.260828   -2.236674   -2.249118    0.000000    0.183000
    69  O     c     6.768615   -2.236674   -2.249118    0.000000    0.183000
    70  O     c    -2.247363    2.248393    6.723374    0.000000    0.183000
    71  O     c     6.755150    2.248393    6.723374    0.000000    0.183000
    72  O     c    -2.266666   -2.266692    6.752691    0.000000    0.183000
    73  O     c     6.774453   -2.266692    6.752691    0.000000    0.183000
    74  O     c     2.253894   -6.734584    2.250071    0.000000    0.183000
    75  Na    c     2.253894    2.185128   -4.502387    0.000000    1.000000
    76  Na    c     2.253894    7.096190    0.006165    0.000000    1.000000
    77  Cl    c     4.601244   -0.062457   -4.645378    0.000000    1.485000
    78  Cl    c    -0.093457   -0.062457   -4.645378    0.000000    1.485000
    79  Na    c     4.507413    6.664963    2.357463    0.000000    1.000000
    80  Na    c     0.000374    6.664963    2.357463    0.000000    1.000000
    81  Na    c     2.253894   -1.804409   -4.468393    0.000000    1.000000
    82  Na    c     2.253894    6.340397    4.499740    0.000000    1.000000
    83  Cl    c     9.075362   -0.017493   -0.053276    0.000000    1.485000
    84  Cl    c    -4.567575   -0.017493   -0.053276    0.000000    1.485000
    85  Na    c     8.991443    2.264725    2.471434    0.000000    1.000000
    86  Na    c    -4.483656    2.264725    2.471434    0.000000    1.000000
    87  Cl    c     9.063240   -0.000277    4.491705    0.000000    1.485000
    88  Cl    c    -4.555453   -0.000277    4.491705    0.000000    1.485000
    89  Na    c     9.009706   -2.272002    2.413624    0.000000    1.000000
    90  Na    c    -4.501919   -2.272002    2.413624    0.000000    1.000000
    91  Na    c     2.253894    1.864963    9.034437    0.000000    1.000000
    92  Na    c     2.253894   -6.534498   -0.015571    0.000000    1.000000
    93  Cl    c     4.544563    0.000047    9.050701    0.000000    1.485000
    94  Cl    c    -0.036776    0.000047    9.050701    0.000000    1.485000
    95  Na    c     4.509089   -6.744309    2.320601    0.000000    1.000000
    96  Na    c    -0.001302   -6.744309    2.320601    0.000000    1.000000
    97  Na    c     2.253894   -1.929731    9.006635    0.000000    1.000000
    98  Na    c     2.253894   -6.728984    4.505505    0.000000    1.000000
    99  Na    c     6.848961    4.496192   -1.970740    0.000000    1.000000
   100  Na    c    -2.341174    4.496192   -1.970740    0.000000    1.000000
   101  Na    c     6.670629    4.497951    7.004601    0.000000    1.000000
   102  Na    c    -2.162842    4.497951    7.004601    0.000000    1.000000
   103  Na    c     6.857738   -4.492178   -1.980333    0.000000    1.000000
   104  Na    c    -2.349951   -4.492178   -1.980333    0.000000    1.000000
   105  O     c     2.253894    6.720177   -2.240337    0.000000    0.183000
   106  Na    c     6.718810   -4.489686    7.122646    0.000000    1.000000
   107  Na    c    -2.211023   -4.489686    7.122646    0.000000    1.000000
   108  O     c    -2.259633    6.746815    2.248499    0.000000    0.183000
   109  O     c     6.767420    6.746815    2.248499    0.000000    0.183000
   110  O     c     2.253894    6.754668    6.749839    0.000000    0.183000
   111  O     c     2.253894   -6.713750   -2.276143    0.000000    0.183000
   112  O     c     6.763775   -6.742073    2.241127    0.000000    0.183000
   113  O     c    -2.255988   -6.742073    2.241127    0.000000    0.183000
   114  Cl    c     4.577561    4.630339   -4.635358    0.000000    1.485000
   115  Cl    c    -0.069774    4.630339   -4.635358    0.000000    1.485000
   116  Na    c     4.506328    6.621857   -2.326290    0.000000    1.000000
   117  Na    c     0.001459    6.621857   -2.326290    0.000000    1.000000
   118  Na    c     6.544945    2.511605   -4.476206    0.000000    1.000000
   119  Na    c    -2.037158    2.511605   -4.476206    0.000000    1.000000
   120  Na    c    -2.070097    7.008622    0.001642    0.000000    1.000000
   121  Na    c     6.577884    7.008622    0.001642    0.000000    1.000000
   122  O     c     2.253894   -6.755398    6.756576    0.000000    0.183000
   123  Cl    c     9.040445    4.543474    0.005113    0.000000    1.485000
   124  Cl    c    -4.532658    4.543474    0.005113    0.000000    1.485000
   125  Na    c     8.991049    2.132424   -2.408417    0.000000    1.000000
   126  Na    c    -4.483262    2.132424   -2.408417    0.000000    1.000000
   127  Na    c    -2.198502   -2.494083   -4.498137    0.000000    1.000000
   128  Na    c     6.706290   -2.494083   -4.498137    0.000000    1.000000
   129  Na    c    -2.385263    6.501014    4.505811    0.000000    1.000000
   130  Na    c     6.893050    6.501014    4.505811    0.000000    1.000000
   131  Cl    c     4.541522   -4.564847   -4.511557    0.000000    1.485000
   132  Cl    c    -0.033735   -4.564847   -4.511557    0.000000    1.485000
   133  Cl    c     9.057190    4.504806    4.514176    0.000000    1.485000
   134  Cl    c    -4.549403    4.504806    4.514176    0.000000    1.485000
   135  Na    c     4.511575    6.771422    6.614204    0.000000    1.000000
   136  Na    c    -0.003788    6.771422    6.614204    0.000000    1.000000
   137  Na    c     9.013963   -2.084216   -2.314113    0.000000    1.000000
   138  Na    c    -4.506176   -2.084216   -2.314113    0.000000    1.000000
   139  Cl    c     4.526267    4.502817    9.060239    0.000000    1.485000
   140  Cl    c    -0.018480    4.502817    9.060239    0.000000    1.485000
   141  Na    c     4.508185   -6.630476   -2.278571    0.000000    1.000000
   142  Na    c    -0.000398   -6.630476   -2.278571    0.000000    1.000000
   143  Na    c     9.007682    2.342093    6.532658    0.000000    1.000000
   144  Na    c    -4.499895    2.342093    6.532658    0.000000    1.000000
   145  Cl    c     9.034515   -4.560968    0.000804    0.000000    1.485000
   146  Cl    c    -4.526728   -4.560968    0.000804    0.000000    1.485000
   147  Na    c    -2.390548    2.015650    8.984337    0.000000    1.000000
   148  Na    c     6.898335    2.015650    8.984337    0.000000    1.000000
   149  Na    c     6.681885   -7.069231    0.005040    0.000000    1.000000
   150  Na    c    -2.174098   -7.069231    0.005040    0.000000    1.000000
   151  Na    c     9.021094   -2.335627    6.581296    0.000000    1.000000
   152  Na    c    -4.513307   -2.335627    6.581296    0.000000    1.000000
   153  Cl    c     9.063477   -4.529004    4.526439    0.000000    1.485000
   154  Cl    c    -4.555689   -4.529004    4.526439    0.000000    1.485000
   155  Na    c     6.876717   -1.963201    8.997082    0.000000    1.000000
   156  Na    c    -2.368930   -1.963201    8.997082    0.000000    1.000000
   157  Na    c     6.848609   -6.468066    4.503572    0.000000    1.000000
   158  Na    c    -2.340822   -6.468066    4.503572    0.000000    1.000000
   159  Na    c     4.506591   -6.722554    6.662485    0.000000    1.000000
   160  Na    c     0.001196   -6.722554    6.662485    0.000000    1.000000
   161  Cl    c     4.503023   -4.548623    9.047530    0.000000    1.485000
   162  Cl    c     0.004764   -4.548623    9.047530    0.000000    1.485000
   163  Na    c     2.253894    8.977436    2.504900    0.000000    1.000000
   164  Na    c     2.253894    0.001733   -6.981832    0.000000    1.000000
   165  Na    c    11.203850    0.000322    1.875744    0.000000    1.000000
   166  Na    c    -6.696063    0.000322    1.875744    0.000000    1.000000
   167  O     c    -2.253132    6.760749   -2.238134    0.000000    0.183000
   168  O     c     6.760920    6.760749   -2.238134    0.000000    0.183000
   169  O     c     2.253894    2.235555   -6.785642    0.000000    0.183000
   170  Na    c     2.253894    0.000442   11.576292    0.000000    1.000000
   171  Na    c     2.253894   -8.989319    2.116799    0.000000    1.000000
   172  O     c     2.253894   -2.227370   -6.731030    0.000000    0.183000
   173  O     c    -2.264591    6.750248    6.774737    0.000000    0.183000
   174  O     c     6.772378    6.750248    6.774737    0.000000    0.183000
   175  O     c    11.252677    2.237961    2.251162    0.000000    0.183000
   176  O     c    -6.744889    2.237961    2.251162    0.000000    0.183000
   177  O     c     6.759162   -6.760244   -2.225981    0.000000    0.183000
   178  O     c    -2.251375   -6.760244   -2.225981    0.000000    0.183000
   179  O     c    11.267715   -2.240254    2.253479    0.000000    0.183000
   180  O     c    -6.759928   -2.240254    2.253479    0.000000    0.183000
   181  Na    c     2.253894    6.510285   -4.496036    0.000000    1.000000
   182  O     c     2.253894    2.244887   11.262934    0.000000    0.183000
   183  Cl    c     4.506699    9.054201    0.015994    0.000000    1.485000
   184  Cl    c     0.001088    9.054201    0.015994    0.000000    1.485000
   185  Na    c     4.499967    2.166843   -6.780941    0.000000    1.000000
   186  Na    c     0.007820    2.166843   -6.780941    0.000000    1.000000
   187  O     c     2.253894   -2.243346   11.258623    0.000000    0.183000
   188  O     c     6.759934   -6.728863    6.771458    0.000000    0.183000
   189  O     c    -2.252147   -6.728863    6.771458    0.000000    0.183000
   190  Cl    c     4.519545    9.081117    4.528792    0.000000    1.485000
   191  Cl    c    -0.011758    9.081117    4.528792    0.000000    1.485000
   192  Cl    c     9.079139   -0.020060   -4.513575    0.000000    1.485000
   193  Cl    c    -4.571352   -0.020060   -4.513575    0.000000    1.485000
   194  Na    c     9.015095    6.754027    2.071032    0.000000    1.000000
   195  Na    c    -4.507308    6.754027    2.071032    0.000000    1.000000
   196  Na    c     4.509836   -2.192454   -6.710366    0.000000    1.000000
   197  Na    c    -0.002049   -2.192454   -6.710366    0.000000    1.000000
   198  Na    c    11.137023    2.563578    0.002991    0.000000    1.000000
   199  Na    c    -6.629236    2.563578    0.002991    0.000000    1.000000
   200  Na    c     2.253894    7.024948    8.992156    0.000000    1.000000
   201  Na    c     2.253894   -6.960461   -4.502011    0.000000    1.000000
   202  Na    c    11.182423   -2.576105    0.008852    0.000000    1.000000
   203  Na    c    -6.674636   -2.576105    0.008852    0.000000    1.000000
   204  Na    c    11.388936    1.924167    4.494112    0.000000    1.000000
   205  Na    c    -6.881148    1.924167    4.494112    0.000000    1.000000
   206  Na    c    11.371798   -1.910755    4.498169    0.000000    1.000000
   207  Na    c    -6.864011   -1.910755    4.498169    0.000000    1.000000
   208  Na    c     4.515295    2.371822   11.188511    0.000000    1.000000
   209  Na    c    -0.007508    2.371822   11.188511    0.000000    1.000000
   210  Cl    c     4.491763   -9.045151   -0.002839    0.000000    1.485000
   211  Cl    c     0.016024   -9.045151   -0.002839    0.000000    1.485000
   212  Cl    c     9.050484   -0.004799    9.076693    0.000000    1.485000
   213  Cl    c    -4.542697   -0.004799    9.076693    0.000000    1.485000
   214  Na    c     9.018127   -6.678442    2.124210    0.000000    1.000000
   215  Na    c    -4.510339   -6.678442    2.124210    0.000000    1.000000
   216  Na    c     4.512426   -2.353420   11.191752    0.000000    1.000000
   217  Na    c    -0.004638   -2.353420   11.191752    0.000000    1.000000
   218  Cl    c     4.529625   -9.042528    4.523117    0.000000    1.485000
   219  Cl    c    -0.021838   -9.042528    4.523117    0.000000    1.485000
   220  Na    c     2.253894   -6.847117    9.006234    0.000000    1.000000
   221  Na    c     2.253894    8.984293   -2.455396    0.000000    1.000000
   222  Na    c     2.253894    4.493080   -6.791289    0.000000    1.000000
   223  Na    c    -2.244847    9.002576    2.393637    0.000000    1.000000
   224  Na    c     6.752635    9.002576    2.393637    0.000000    1.000000
   225  Na    c    -2.302930   -0.001278   -6.612196    0.000000    1.000000
   226  Na    c     6.810717   -0.001278   -6.612196    0.000000    1.000000
   227  Na    c     2.253894    9.008607    6.531599    0.000000    1.000000
   228  Na    c    11.272686    4.495342    2.515655    0.000000    1.000000
   229  Na    c    -6.764899    4.495342    2.515655    0.000000    1.000000
   230  Na    c    11.326365    0.002556   -1.989175    0.000000    1.000000
   231  Na    c    -6.818578    0.002556   -1.989175    0.000000    1.000000
   232  Na    c     2.253894   -4.487619   -6.563766    0.000000    1.000000
   233  Na    c     2.253894    4.510589   11.037636    0.000000    1.000000
   234  Na    c    11.200769    0.003748    7.068512    0.000000    1.000000
   235  Na    c    -6.692982    0.003748    7.068512    0.000000    1.000000
   236  Na    c     2.253894   -8.988972   -2.110707    0.000000    1.000000
   237  Na    c    11.310839   -4.490342    2.535483    0.000000    1.000000
   238  Na    c    -6.803052   -4.490342    2.535483    0.000000    1.000000
   239  O     c     6.745140    2.271672   -6.741992    0.000000    0.183000
   240  O     c    -2.237353    2.271672   -6.741992    0.000000    0.183000
   241  Na    c    -2.084776    0.004078   11.403659    0.000000    1.000000
   242  Na    c     6.592563    0.004078   11.403659    0.000000    1.000000
   243  Na    c    -2.297062   -9.000507    2.425479    0.000000    1.000000
   244  Na    c     6.804849   -9.000507    2.425479    0.000000    1.000000
   245  O     c    11.257091    2.254288   -2.244266    0.000000    0.183000
   246  O     c    -6.749304    2.254288   -2.244266    0.000000    0.183000
   247  O     c    -2.261145   -2.281836   -6.756424    0.000000    0.183000
   248  O     c     6.768932   -2.281836   -6.756424    0.000000    0.183000
   249  Na    c     2.253894   -4.501514   11.073609    0.000000    1.000000
   250  Na    c     2.253894   -9.012655    6.733836    0.000000    1.000000
   251  O     c    11.267794   -2.256921   -2.236895    0.000000    0.183000
   252  O     c    -6.760007   -2.256921   -2.236895    0.000000    0.183000
   253  O     c    11.267067    2.237927    6.739876    0.000000    0.183000
   254  O     c    -6.759280    2.237927    6.739876    0.000000    0.183000
[...]
    238 y          2.253894      2.249328    -0.004565    Cartesian   -0.20
    238 z          6.761681      6.803158     0.041477    Cartesian    0.61
    239 x         -2.253894     -2.254690    -0.000796    Cartesian    0.04
    239 y         -2.253894     -2.256173    -0.002280    Cartesian    0.10
    239 z          2.253894      2.265797     0.011903    Cartesian    0.53
    240 x          2.253894      2.253894     0.000000    Cartesian    0.00
    240 y         -2.253894     -2.190290     0.063604    Cartesian   -2.82
    240 z          6.761681      6.759269    -0.002412    Cartesian   -0.04
    241 x          4.507787      4.616509     0.108722    Cartesian    2.41
    241 y          4.507787      4.638779     0.130992    Cartesian    2.91
    241 z          0.000000     -0.010155    -0.010155    Cartesian    0.00
    242 x          4.507787      4.570386     0.062599    Cartesian    1.39
    242 y          4.507787      4.628151     0.120364    Cartesian    2.67
    242 z          4.507787      4.662222     0.154435    Cartesian    3.43
    243 x          4.507787      4.473670    -0.034117    Cartesian   -0.76
    243 y         -4.507787     -4.499235     0.008552    Cartesian   -0.19
    243 z          0.000000     -0.005901    -0.005901    Cartesian    0.00
    244 x          4.507787      4.442583    -0.065204    Cartesian   -1.45
    244 y         -4.507787     -4.569591    -0.061804    Cartesian    1.37
    244 z          4.507787      4.491112    -0.016675    Cartesian   -0.37
    245 x          2.253894      2.253894     0.000000    Cartesian    0.00
    245 y          6.761681      6.712578    -0.049103    Cartesian   -0.73
    245 z          2.253894      2.254672     0.000778    Cartesian    0.03
    246 x         -2.253894     -2.220428     0.033466    Cartesian   -1.48
    246 y          2.253894      2.237539    -0.016355    Cartesian   -0.73
    246 z         -2.253894     -2.227026     0.026867    Cartesian   -1.19
    247 x         -2.253894     -2.260827    -0.006934    Cartesian    0.31
    247 y         -2.253894     -2.236648     0.017246    Cartesian   -0.77
    247 z         -2.253894     -2.249151     0.004743    Cartesian   -0.21
    248 x         -2.253894     -2.247332     0.006562    Cartesian   -0.29
    248 y          2.253894      2.248423    -0.005470    Cartesian   -0.24
    248 z          6.761681      6.723384    -0.038297    Cartesian   -0.57
    249 x         -2.253894     -2.266664    -0.012771    Cartesian    0.57
    249 y         -2.253894     -2.266724    -0.012830    Cartesian    0.57
    249 z          6.761681      6.752701    -0.008980    Cartesian   -0.13
    250 x          2.253894      2.253894     0.000000    Cartesian    0.00
    250 y         -6.761681     -6.734559     0.027122    Cartesian   -0.40
    250 z          2.253894      2.250118    -0.003776    Cartesian   -0.17
    251 x          4.507787      4.614007     0.106219    Cartesian    2.36
    251 y          0.000000     -0.074360    -0.074360    Cartesian    0.00
    251 z         -4.507787     -4.654373    -0.146586    Cartesian    3.25
    252 x          9.015574      9.073379     0.057805    Cartesian    0.64
    252 y          0.000000     -0.017025    -0.017025    Cartesian    0.00
    252 z          0.000000     -0.055757    -0.055757    Cartesian    0.00
    253 x          9.015574      9.062495     0.046921    Cartesian    0.52
    253 y          0.000000      0.000941     0.000941    Cartesian    0.00
    253 z          4.507787      4.491574    -0.016214    Cartesian   -0.36
    254 x          4.507787      4.541307     0.033520    Cartesian    0.74
    254 y          0.000000      0.000223     0.000223    Cartesian    0.00
    254 z          9.015574      9.050840     0.035266    Cartesian    0.39
    255 x          2.253894      2.253894     0.000000    Cartesian    0.00
    255 y          6.761681      6.720209    -0.041471    Cartesian   -0.61
    255 z         -2.253894     -2.240369     0.013525    Cartesian   -0.60
    256 x         -2.253894     -2.259634    -0.005740    Cartesian    0.25
    256 y          6.761681      6.746831    -0.014850    Cartesian   -0.22
    256 z          2.253894      2.248452    -0.005441    Cartesian   -0.24
    257 x          2.253894      2.253894     0.000000    Cartesian    0.00
    257 y          6.761681      6.754683    -0.006997    Cartesian   -0.10
    257 z          6.761681      6.749856    -0.011825    Cartesian   -0.17
    258 x          2.253894      2.253894     0.000000    Cartesian    0.00
    258 y         -6.761681     -6.713746     0.047935    Cartesian   -0.71
    258 z         -2.253894     -2.276201    -0.022308    Cartesian    0.99
    259 x          6.761681      6.763770     0.002089    Cartesian    0.03
    259 y         -6.761681     -6.742095     0.019586    Cartesian   -0.29
    259 z          2.253894      2.241072    -0.012822    Cartesian   -0.57
    260 x          4.507787      4.590949     0.083162    Cartesian    1.84
    260 y          4.507787      4.644449     0.136662    Cartesian    3.03
    260 z         -4.507787     -4.648412    -0.140625    Cartesian    3.12
    261 x          2.253894      2.253894     0.000000    Cartesian    0.00
    261 y         -6.761681     -6.755443     0.006237    Cartesian   -0.09
    261 z          6.761681      6.756556    -0.005124    Cartesian   -0.08
    262 x          9.015574      9.040262     0.024687    Cartesian    0.27
    262 y          4.507787      4.544368     0.036581    Cartesian    0.81
    262 z          0.000000      0.006406     0.006406    Cartesian    0.00
    263 x          4.507787      4.543481     0.035694    Cartesian    0.79
    263 y         -4.507787     -4.570899    -0.063112    Cartesian    1.40
    263 z         -4.507787     -4.510411    -0.002624    Cartesian    0.06
    264 x          9.015574      9.061591     0.046016    Cartesian    0.51
    264 y          4.507787      4.502570    -0.005217    Cartesian   -0.12
    264 z          4.507787      4.515725     0.007938    Cartesian    0.18
    265 x          4.507787      4.524826     0.017039    Cartesian    0.38
    265 y          4.507787      4.500223    -0.007564    Cartesian   -0.17
    265 z          9.015574      9.061658     0.046084    Cartesian    0.51
    266 x          9.015574      9.033910     0.018335    Cartesian    0.20
    266 y         -4.507787     -4.565320    -0.057533    Cartesian    1.28
    266 z          0.000000      0.001215     0.001215    Cartesian    0.00
    267 x          9.015574      9.066605     0.051031    Cartesian    0.57
    267 y         -4.507787     -4.530815    -0.023027    Cartesian    0.51
    267 z          4.507787      4.528390     0.020602    Cartesian    0.46
    268 x          4.507787      4.506187    -0.001600    Cartesian   -0.04
    268 y         -4.507787     -4.552572    -0.044784    Cartesian    0.99
    268 z          9.015574      9.050319     0.034745    Cartesian    0.39
    269 x         -2.253894     -2.253127     0.000767    Cartesian   -0.03
    269 y          6.761681      6.760788    -0.000893    Cartesian   -0.01
    269 z         -2.253894     -2.238111     0.015782    Cartesian   -0.70
    270 x          2.253894      2.253894     0.000000    Cartesian    0.00
    270 y          2.253894      2.235514    -0.018380    Cartesian   -0.82
    270 z         -6.761681     -6.785724    -0.024043    Cartesian    0.36
    271 x          2.253894      2.253894     0.000000    Cartesian    0.00
    271 y         -2.253894     -2.227290     0.026604    Cartesian   -1.18
    271 z         -6.761681     -6.731083     0.030598    Cartesian   -0.45
    272 x         -2.253894     -2.264601    -0.010708    Cartesian    0.48
    272 y          6.761681      6.750244    -0.011437    Cartesian   -0.17
    272 z          6.761681      6.774787     0.013106    Cartesian    0.19
    273 x         11.269468     11.252693    -0.016775    Cartesian   -0.15
    273 y          2.253894      2.237965    -0.015929    Cartesian   -0.71
    273 z          2.253894      2.251173    -0.002721    Cartesian   -0.12
    274 x          6.761681      6.759163    -0.002518    Cartesian   -0.04
    274 y         -6.761681     -6.760291     0.001389    Cartesian   -0.02
    274 z         -2.253894     -2.225952     0.027942    Cartesian   -1.24
    275 x         11.269468     11.267731    -0.001737    Cartesian   -0.02
    275 y         -2.253894     -2.240264     0.013630    Cartesian   -0.60
    275 z          2.253894      2.253480    -0.000413    Cartesian   -0.02
    276 x          2.253894      2.253894     0.000000    Cartesian    0.00
    276 y          2.253894      2.244885    -0.009009    Cartesian   -0.40
    276 z         11.269468     11.262937    -0.006531    Cartesian   -0.06
    277 x          4.507787      4.508863     0.001076    Cartesian    0.02
    277 y          9.015574      9.050758     0.035184    Cartesian    0.39
    277 z          0.000000      0.017449     0.017449    Cartesian    0.00
    278 x          2.253894      2.253894     0.000000    Cartesian    0.00
    278 y         -2.253894     -2.243363     0.010530    Cartesian   -0.47
    278 z         11.269468     11.258643    -0.010825    Cartesian   -0.10
    279 x          6.761681      6.759929    -0.001752    Cartesian   -0.03
    279 y         -6.761681     -6.728849     0.032832    Cartesian   -0.49
    279 z          6.761681      6.771520     0.009839    Cartesian    0.15
    280 x          4.507787      4.517220     0.009432    Cartesian    0.21
    280 y          9.015574      9.087610     0.072036    Cartesian    0.80
    280 z          4.507787      4.531611     0.023824    Cartesian    0.53
    281 x          9.015574      9.085168     0.069594    Cartesian    0.77
    281 y          0.000000     -0.021981    -0.021981    Cartesian    0.00
    281 z         -4.507787     -4.510386    -0.002599    Cartesian    0.06
    282 x          4.507787      4.493122    -0.014665    Cartesian   -0.33
    282 y         -9.015574     -9.045613    -0.030038    Cartesian    0.33
    282 z          0.000000     -0.002715    -0.002715    Cartesian    0.00
    283 x          9.015574      9.048118     0.032544    Cartesian    0.36
    283 y          0.000000     -0.006259    -0.006259    Cartesian    0.00
    283 z          9.015574      9.080203     0.064628    Cartesian    0.72
    284 x          4.507787      4.533645     0.025858    Cartesian    0.57
    284 y         -9.015574     -9.047046    -0.031472    Cartesian    0.35
    284 z          4.507787      4.525796     0.018009    Cartesian    0.40
    285 x          6.761681      6.745101    -0.016580    Cartesian   -0.25
    285 y          2.253894      2.271728     0.017834    Cartesian    0.79
    285 z         -6.761681     -6.742007     0.019674    Cartesian   -0.29
    286 x         11.269468     11.257089    -0.012379    Cartesian   -0.11
    286 y          2.253894      2.254311     0.000417    Cartesian    0.02
    286 z         -2.253894     -2.244300     0.009594    Cartesian   -0.43
    287 x         -2.253894     -2.261153    -0.007259    Cartesian    0.32
    287 y         -2.253894     -2.281909    -0.028016    Cartesian    1.24
    287 z         -6.761681     -6.756424     0.005257    Cartesian   -0.08
    288 x         11.269468     11.267787    -0.001681    Cartesian   -0.01
    288 y         -2.253894     -2.256945    -0.003051    Cartesian    0.14
    288 z         -2.253894     -2.236915     0.016979    Cartesian   -0.75
    289 x         11.269468     11.267092    -0.002376    Cartesian   -0.02
    289 y          2.253894      2.237916    -0.015977    Cartesian   -0.71
    289 z          6.761681      6.739881    -0.021800    Cartesian   -0.32
    290 x         -2.253894     -2.260736    -0.006843    Cartesian    0.30
    290 y          2.253894      2.234925    -0.018968    Cartesian   -0.84
    290 z         11.269468     11.254235    -0.015233    Cartesian   -0.14
    291 x         11.269468     11.271319     0.001851    Cartesian    0.02
    291 y         -2.253894     -2.235866     0.018027    Cartesian   -0.80
    291 z          6.761681      6.745917    -0.015764    Cartesian   -0.23
    292 x          9.015574      9.064430     0.048856    Cartesian    0.54
    292 y          4.507787      4.486623    -0.021165    Cartesian   -0.47
    292 z         -4.507787     -4.505219     0.002568    Cartesian   -0.06
    293 x         -2.253894     -2.256463    -0.002569    Cartesian    0.11
    293 y         -2.253894     -2.232248     0.021645    Cartesian   -0.96
    293 z         11.269468     11.254630    -0.014838    Cartesian   -0.13
    294 x          9.015574      9.041787     0.026213    Cartesian    0.29
    294 y         -4.507787     -4.534042    -0.026255    Cartesian    0.58
    294 z         -4.507787     -4.528536    -0.020749    Cartesian    0.46
    295 x          9.015574      9.036796     0.021221    Cartesian    0.24
    295 y          4.507787      4.511245     0.003458    Cartesian    0.08
    295 z          9.015574      9.037938     0.022364    Cartesian    0.25
    296 x          9.015574      9.034256     0.018681    Cartesian    0.21
    296 y         -4.507787     -4.526813    -0.019026    Cartesian    0.42
    296 z          9.015574      9.034121     0.018547    Cartesian    0.21
    297 x          2.253894      2.253894     0.000000    Cartesian    0.00
    297 y          6.761681      6.759890    -0.001791    Cartesian   -0.03
    297 z         -6.761681     -6.753296     0.008385    Cartesian   -0.12
    298 x          2.253894      2.253894     0.000000    Cartesian    0.00
    298 y         11.269468     11.251416    -0.018052    Cartesian   -0.16
    298 z          2.253894      2.269803     0.015909    Cartesian    0.71
    299 x         11.269468     11.269537     0.000069    Cartesian    0.00
    299 y          6.761681      6.754453    -0.007227    Cartesian   -0.11
    299 z          2.253894      2.267971     0.014077    Cartesian    0.62
    300 x          2.253894      2.253894     0.000000    Cartesian    0.00
    300 y         -6.761681     -6.768928    -0.007247    Cartesian    0.11
    300 z         -6.761681     -6.742146     0.019534    Cartesian   -0.29
    301 x          2.253894      2.253894     0.000000    Cartesian    0.00
    301 y          6.761681      6.763124     0.001444    Cartesian    0.02
    301 z         11.269468     11.252885    -0.016583    Cartesian   -0.15
    302 x          4.507787      4.515656     0.007869    Cartesian    0.17
    302 y          9.015574      9.097735     0.082160    Cartesian    0.91
    302 z         -4.507787     -4.498445     0.009342    Cartesian   -0.21
    303 x         11.269468     11.272112     0.002644    Cartesian    0.02
    303 y         -6.761681     -6.750652     0.011029    Cartesian   -0.16
    303 z          2.253894      2.273906     0.020013    Cartesian    0.89
    304 x          4.507787      4.472482    -0.035305    Cartesian   -0.78
    304 y          0.000000      0.019474     0.019474    Cartesian    0.00
    304 z         -9.015574     -9.054131    -0.038556    Cartesian    0.43
    305 x          9.015574      9.040113     0.024538    Cartesian    0.27
    305 y          9.015574      9.011810    -0.003764    Cartesian   -0.04
    305 z          0.000000      0.011917     0.011917    Cartesian    0.00
    306 x          2.253894      2.253894     0.000000    Cartesian    0.00
    306 y        -11.269468    -11.260064     0.009404    Cartesian   -0.08
    306 z          2.253894      2.238481    -0.015413    Cartesian   -0.68
    307 x          9.015574      9.049227     0.033652    Cartesian    0.37
    307 y          9.015574      9.086266     0.070691    Cartesian    0.78
    307 z          4.507787      4.521916     0.014129    Cartesian    0.31
    308 x          2.253894      2.253894     0.000000    Cartesian    0.00
    308 y         -6.761681     -6.756268     0.005413    Cartesian   -0.08
    308 z         11.269468     11.266733    -0.002735    Cartesian   -0.02
    309 x          4.507787      4.520307     0.012520    Cartesian    0.28
    309 y          9.015574      9.021361     0.005787    Cartesian    0.06
    309 z          9.015574      9.081013     0.065438    Cartesian    0.73
    310 x         13.523362     13.602449     0.079087    Cartesian    0.58
    310 y          0.000000     -0.002227    -0.002227    Cartesian    0.00
    310 z          0.000000      0.002457     0.002457    Cartesian    0.00
    311 x         13.523362     13.592438     0.069076    Cartesian    0.51
    311 y          0.000000     -0.002951    -0.002951    Cartesian    0.00
    311 z          4.507787      4.512921     0.005134    Cartesian    0.11
    312 x          4.507787      4.501406    -0.006381    Cartesian   -0.14
    312 y         -9.015574     -9.060906    -0.045332    Cartesian    0.50
    312 z         -4.507787     -4.521612    -0.013825    Cartesian    0.31
    313 x          9.015574      9.007721    -0.007853    Cartesian   -0.09
    313 y         -9.015574     -9.017117    -0.001543    Cartesian    0.02
    313 z          0.000000      0.006069     0.006069    Cartesian    0.00
    314 x          4.507787      4.558366     0.050579    Cartesian    1.12
    314 y          0.000000     -0.008185    -0.008185    Cartesian    0.00
    314 z         13.523362     13.559697     0.036335    Cartesian    0.27
    315 x          9.015574      9.039084     0.023510    Cartesian    0.26
    315 y         -9.015574     -9.090623    -0.075049    Cartesian    0.83
    315 z          4.507787      4.513089     0.005301    Cartesian    0.12
    316 x          4.507787      4.513833     0.006045    Cartesian    0.13
    316 y         -9.015574     -9.032507    -0.016932    Cartesian    0.19
    316 z          9.015574      9.042963     0.027388    Cartesian    0.30
    317 x          2.253894      2.253894     0.000000    Cartesian    0.00
    317 y         11.269468     11.254840    -0.014628    Cartesian   -0.13
    317 z         -2.253894     -2.263560    -0.009667    Cartesian    0.43
    318 x         -2.253894     -2.266808    -0.012914    Cartesian    0.57
    318 y          6.761681      6.766979     0.005298    Cartesian    0.08
    318 z         -6.761681     -6.769508    -0.007828    Cartesian    0.12
--------------------------------------------------------------------------------


  Time to end of optimisation  =       84.2775 seconds


  Peak dynamic memory used =      92.15 MB 


  Timing analysis for GULP :

--------------------------------------------------------------------------------
  Task / Subroutine                                          Time (Seconds)
--------------------------------------------------------------------------------
  Calculation of reciprocal space energy and derivatives          0.0004
  Calculation of reciprocal space energy using symmetry           0.0005
  Calculation of real space energy and derivatives                0.0022
  Calculation of real space energy using symmetry                 0.0051
  Calculation for region 1 energy and derivatives (2-b)          46.9828
  Calculation for region 2a energy                               34.1921
  Calculation for region 2b energy                                0.0134
  Calculation and manipulation of Hessian matrix                  0.1346
  Calculation of matrix inversion                                 2.6339
  Symmetry generation of equivalent positions                     0.0026
--------------------------------------------------------------------------------
  Total CPU time                                                 84.2776
--------------------------------------------------------------------------------


  Dump file written as Na3OCl.grs


  Job Finished at 19:31.30 30th November   2020                               

