********************************************************************************
*                       GENERAL UTILITY LATTICE PROGRAM                        *
*                                 Julian Gale                                  *
*                       Curtin Institute for Computation                       *
*                    School of Molecular and Life Sciences                     *
*                    Curtin University, Western Australia                      *
********************************************************************************
* Version = 5.2.0 * Last modified =  10th September 2020                       *
********************************************************************************
*  optimise     - perform optimisation run                                     *
*  conp         - constant pressure calculation                                *
*  property     - calculate properties for final geometry                      *
*  defect       - perform defect calculation after bulk run                    *
*  compare      - compare initial and final structures                         *
********************************************************************************

  Job Started  at 19:31.02 30th November   2020                               

  Number of CPUs =     1


  Total number of configurations input =      1

********************************************************************************
*  Input for Configuration =   1                                               *
********************************************************************************

  Formula = ClONa3                                                      

  Number of irreducible atoms/shells =       5


  Total number atoms/shells =       7

  Dimensionality = 3               :  Bulk   


  Symmetry :

  Crystal family                   :  Cubic       
  Crystal class  (Groth - 1921)    :  Cubic Hexakisoctahedral              

  Space group (centrosymmetric)    :  P M 3 M         

  Patterson group                  :  P m -3 m 

  Cartesian lattice vectors (Angstroms) :

        4.504000    0.000000    0.000000
        0.000000    4.504000    0.000000
        0.000000    0.000000    4.504000

  Cell parameters (Angstroms/Degrees):

  a =       4.5040    alpha =  90.0000
  b =       4.5040    beta  =  90.0000
  c =       4.5040    gamma =  90.0000

  Initial cell volume =          91.368216 Angs**3

  Temperature of configuration =   0.00     K 

  Pressure of configuration =         0.000 GPa 

  Fractional coordinates of asymmetric unit :

--------------------------------------------------------------------------------
   No.  Atomic       x           y          z         Charge      Occupancy
        Label      (Frac)      (Frac)     (Frac)        (e)         (Frac)  
--------------------------------------------------------------------------------
      1 Cl    c    0.000000    0.000000    0.000000     1.48500    1.000000    
      2 O     c    0.500000    0.500000    0.500000     0.18300    1.000000    
      3 Na    c    0.500000    0.500000    0.000000     1.00000    1.000000    
      4 Cl    s    0.000000    0.000000    0.000000    -2.48500    1.000000    
      5 O     s    0.500000    0.500000    0.500000    -2.18300    1.000000    
--------------------------------------------------------------------------------


  Constraints : 

--------------------------------------------------------------------------------
  Constraint no.      Unconstrained     Constrained    Coefficient    Offset
                         Variable         Variable
--------------------------------------------------------------------------------
           1              Strain 1        Strain 2       1.00000      0.0000
           2              Strain 1        Strain 3       1.00000      0.0000
--------------------------------------------------------------------------------


********************************************************************************
*  General input information                                                   *
********************************************************************************

  Species output for all configurations : 

--------------------------------------------------------------------------------
  Species    Type    Atomic    Atomic    Charge       Radii (Angs)     Library
                     Number     Mass       (e)     Cova   Ionic  VDW   Symbol
--------------------------------------------------------------------------------
    Na       Core       11      22.99   1.000000   0.970  0.000  2.300          
    O        Core        8      16.00   0.183000   0.730  0.000  1.360          
    O        Shell       8       0.00  -2.183000   0.730  0.000  1.360          
    Cl       Core       17      35.45   1.485000   0.990  0.000  1.650          
    Cl       Shell      17       0.00  -2.485000   0.990  0.000  1.650          
    Mg       Core       12      24.31   0.415000   1.100  0.000  0.000          
    Mg       Shell      12       0.00   1.585000   1.100  0.000  0.000          
    Ca       Core       20      40.08  -1.135000   0.990  0.000  0.000          
    Ca       Shell      20       0.00   3.135000   0.990  0.000  0.000          
    Sr       Core       38      87.62  -1.251000   1.120  0.000  0.000          
    Sr       Shell      38       0.00   3.251000   1.120  0.000  0.000          
    Ba       Core       56     137.33  -7.203000   1.340  0.000  0.000          
    Ba       Shell      56       0.00   9.203000   1.340  0.000  0.000          
--------------------------------------------------------------------------------


  Lattice summation method               =    Ewald          (3-D)
                                         =    Parry          (2-D)
                                         =    Saunders et al (1-D)
  Accuracy factor for lattice sums       =   12.000


  Analytic derivatives to be used

  Time limit = Infinity

  Maximum range for interatomic potentials =    100000.000000 Angstroms

  General interatomic potentials :

--------------------------------------------------------------------------------
Atom  Types   Potential      Parameter       Value         Units   Cutoffs(Ang)
  1     2                                                            Min /  Max 
--------------------------------------------------------------------------------
O    c O    s Spring (c-s)  Spring k 2       593.71600    eV*Ang^-2 0.000  0.800
                            Spring k 4       0.0000000    eV*Ang^-4 
--------------------------------------------------------------------------------
Cl   c Cl   s Spring (c-s)  Spring k 2       29.380000    eV*Ang^-2 0.000  0.800
                            Spring k 4       0.0000000    eV*Ang^-4 
--------------------------------------------------------------------------------
Mg   c Mg   s Spring (c-s)  Spring k 2       361.60000    eV*Ang^-2 0.000  0.800
                            Spring k 4       0.0000000    eV*Ang^-4 
--------------------------------------------------------------------------------
Ca   c Ca   s Spring (c-s)  Spring k 2       110.20000    eV*Ang^-2 0.000  0.800
                            Spring k 4       0.0000000    eV*Ang^-4 
--------------------------------------------------------------------------------
Sr   c Sr   s Spring (c-s)  Spring k 2       71.700000    eV*Ang^-2 0.000  0.800
                            Spring k 4       0.0000000    eV*Ang^-4 
--------------------------------------------------------------------------------
Ba   c Ba   s Spring (c-s)  Spring k 2       495.20000    eV*Ang^-2 0.000  0.800
                            Spring k 4       0.0000000    eV*Ang^-4 
--------------------------------------------------------------------------------
Na   c Na   c Buckingham    Buckingham A     1788.1900    eV        0.000 12.000
                            Buckingham rho  0.15900000    Ang       
                            Buckingham C     0.0000000    eV*Ang^6  
--------------------------------------------------------------------------------
Na   c O    s Buckingham    Buckingham A     1226.8400    eV        0.000 12.000
                            Buckingham rho  0.30700000    Ang       
                            Buckingham C     0.0000000    eV*Ang^6  
--------------------------------------------------------------------------------
Na   c Cl   s Buckingham    Buckingham A     2314.7000    eV        0.000 12.000
                            Buckingham rho  0.29000000    Ang       
                            Buckingham C     0.0000000    eV*Ang^6  
--------------------------------------------------------------------------------
O    s O    s Buckingham    Buckingham A     22764.300    eV        0.000 12.000
                            Buckingham rho  0.14900000    Ang       
                            Buckingham C     13.190000    eV*Ang^6  
--------------------------------------------------------------------------------
O    s Cl   s Buckingham    Buckingham A     8286.9100    eV        0.000 12.000
                            Buckingham rho  0.25900000    Ang       
                            Buckingham C     62.200000    eV*Ang^6  
--------------------------------------------------------------------------------
Cl   s Cl   s Buckingham    Buckingham A     1227.2000    eV        0.000 12.000
                            Buckingham rho  0.32100000    Ang       
                            Buckingham C     14.530000    eV*Ang^6  
--------------------------------------------------------------------------------
O    s Mg   s Buckingham    Buckingham A     1428.5000    eV        0.000 12.000
                            Buckingham rho  0.29450000    Ang       
                            Buckingham C     0.0000000    eV*Ang^6  
--------------------------------------------------------------------------------
Mg   s Cl   s Buckingham    Buckingham A     4914.5400    eV        0.000 12.000
                            Buckingham rho  0.25700000    Ang       
                            Buckingham C     0.0000000    eV*Ang^6  
--------------------------------------------------------------------------------
O    s Ca   s Buckingham    Buckingham A     1090.4000    eV        0.000 12.000
                            Buckingham rho  0.34370000    Ang       
                            Buckingham C     0.0000000    eV*Ang^6  
--------------------------------------------------------------------------------
Cl   s Ca   s Buckingham    Buckingham A     2302.0000    eV        0.000 12.000
                            Buckingham rho  0.34020000    Ang       
                            Buckingham C     0.0000000    eV*Ang^6  
--------------------------------------------------------------------------------
O    s Sr   s Buckingham    Buckingham A     959.10000    eV        0.000 12.000
                            Buckingham rho  0.37210000    Ang       
                            Buckingham C     0.0000000    eV*Ang^6  
--------------------------------------------------------------------------------
Cl   s Sr   s Buckingham    Buckingham A     2191.0900    eV        0.000 12.000
                            Buckingham rho  0.34570000    Ang       
                            Buckingham C     0.0000000    eV*Ang^6  
--------------------------------------------------------------------------------
O    s Ba   s Buckingham    Buckingham A     905.70000    eV        0.000 12.000
                            Buckingham rho  0.39760000    Ang       
                            Buckingham C     0.0000000    eV*Ang^6  
--------------------------------------------------------------------------------
Cl   s Ba   s Buckingham    Buckingham A     2704.5500    eV        0.000 12.000
                            Buckingham rho  0.35280000    Ang       
                            Buckingham C     0.0000000    eV*Ang^6  
--------------------------------------------------------------------------------

********************************************************************************
*  Output for configuration   1                                                *
********************************************************************************


  Components of energy : 

--------------------------------------------------------------------------------
  Interatomic potentials     =           5.13022605 eV    
  Monopole - monopole (real) =         -10.03624526 eV    
  Monopole - monopole (recip)=         -29.53581274 eV    
  Monopole - monopole (total)=         -39.57205800 eV    
--------------------------------------------------------------------------------
  Total lattice energy       =         -34.44183194 eV    
--------------------------------------------------------------------------------
  Total lattice energy       =           -3323.1103 kJ/(mole unit cells)
--------------------------------------------------------------------------------


  Number of variables =        1

  Maximum number of calculations  =          1000
  Maximum Hessian update interval =            10
  Maximum step size               =   1.000000000
  Maximum parameter tolerance     =   0.000010000
  Maximum function  tolerance     =   0.000010000
  Maximum gradient  tolerance     =   0.001000000
  Maximum gradient  component     =   0.010000000

  Symmetry constrained optimisation

  Symmetry used for second derivatives

  Cell parameters to be optimised using strains

  Newton-Raphson optimiser to be used

  BFGS hessian update to be used

  Lower half triangular hessian to be used

  Start of bulk optimisation :

  Cycle:      0 Energy:       -34.441832  Gnorm:      0.196570  CPU:    0.015
  ** Hessian calculated **
  Cycle:      1 Energy:       -34.441914  Gnorm:      0.000103  CPU:    0.019


  **** Optimisation achieved ****


  Final energy =     -34.44191447 eV
  Final Gnorm  =       0.00000000

  Components of energy : 

--------------------------------------------------------------------------------
  Interatomic potentials     =           5.09689708 eV    
  Monopole - monopole (real) =         -10.02781331 eV    
  Monopole - monopole (recip)=         -29.51099824 eV    
  Monopole - monopole (total)=         -39.53881155 eV    
--------------------------------------------------------------------------------
  Total lattice energy       =         -34.44191447 eV    
--------------------------------------------------------------------------------
  Total lattice energy       =           -3323.1183 kJ/(mole unit cells)
--------------------------------------------------------------------------------

  Final asymmetric unit coordinates :

--------------------------------------------------------------------------------
   No.  Atomic        x           y           z         Radius
        Label       (Frac)      (Frac)      (Frac)       (Angs) 
--------------------------------------------------------------------------------
     1  Cl    c     0.000000    0.000000    0.000000    0.000000
     2  O     c     0.500000    0.500000    0.500000    0.000000
     3  Na    c     0.500000    0.500000    0.000000    0.000000
     4  Cl    s     0.000000    0.000000    0.000000    0.000000
     5  O     s     0.500000    0.500000    0.500000    0.000000
--------------------------------------------------------------------------------

  Final Cartesian lattice vectors (Angstroms) :

        4.507787    0.000000    0.000000
        0.000000    4.507787    0.000000
        0.000000    0.000000    4.507787


  Final cell parameters and derivatives :

--------------------------------------------------------------------------------
       a            4.507787 Angstrom     dE/de1(xx)     0.000000 eV/strain
       b            4.507787 Angstrom     dE/de2(yy)     0.000000 eV/strain
       c            4.507787 Angstrom     dE/de3(zz)     0.000000 eV/strain
       alpha       90.000000 Degrees      dE/de4(yz)     0.000000 eV/strain
       beta        90.000000 Degrees      dE/de5(xz)     0.000000 eV/strain
       gamma       90.000000 Degrees      dE/de6(xy)     0.000000 eV/strain
--------------------------------------------------------------------------------

  Primitive cell volume =            91.598892 Angs**3

  Density of cell =      2.183054 g/cm**3

  Non-primitive cell volume =            91.598892 Angs**3


  Final internal derivatives :

--------------------------------------------------------------------------------
   No.  Atomic          a             b             c           Radius
        Label          (eV)          (eV)          (eV)        (eV/Angs)
--------------------------------------------------------------------------------
      1 Cl    c       0.000000      0.000000      0.000000      0.000000
      2 O     c       0.000000      0.000000      0.000000      0.000000
      3 Na    c       0.000000      0.000000      0.000000      0.000000
      4 Cl    s       0.000000      0.000000      0.000000      0.000000
      5 O     s       0.000000      0.000000      0.000000      0.000000
--------------------------------------------------------------------------------
  Maximum abs         0.000000      0.000000      0.000000      0.000000
--------------------------------------------------------------------------------

  Comparison of initial and final structures : 

--------------------------------------------------------------------------------
  Parameter   Initial value   Final value   Difference    Units      Percent
--------------------------------------------------------------------------------
    Volume        91.368216     91.598892     0.230676    Angs**3      0.25
    a              4.504000      4.507787     0.003787    Angstroms    0.08
    b              4.504000      4.507787     0.003787    Angstroms    0.08
    c              4.504000      4.507787     0.003787    Angstroms    0.08
    alpha         90.000000     90.000000     0.000000    Degrees      0.00
    beta          90.000000     90.000000     0.000000    Degrees      0.00
    gamma         90.000000     90.000000     0.000000    Degrees      0.00
      1 x          0.000000      0.000000     0.000000    Fractional   0.00
      1 y          0.000000      0.000000     0.000000    Fractional   0.00
      1 z          0.000000      0.000000     0.000000    Fractional   0.00
      2 x          0.500000      0.500000     0.000000    Fractional   0.00
      2 y          0.500000      0.500000     0.000000    Fractional   0.00
      2 z          0.500000      0.500000     0.000000    Fractional   0.00
      3 x          0.500000      0.500000     0.000000    Fractional   0.00
      3 y          0.500000      0.500000     0.000000    Fractional   0.00
      3 z          0.000000      0.000000     0.000000    Fractional   0.00
      4 x          0.000000      0.000000     0.000000    Fractional   0.00
      4 y          0.000000      0.000000     0.000000    Fractional   0.00
      4 z          0.000000      0.000000     0.000000    Fractional   0.00
      5 x          0.500000      0.500000     0.000000    Fractional   0.00
      5 y          0.500000      0.500000     0.000000    Fractional   0.00
      5 z          0.500000      0.500000     0.000000    Fractional   0.00
--------------------------------------------------------------------------------


  Born effective charge tensors : 

-------------------------------------------------------------------------------
  Atom             x           y             z
-------------------------------------------------------------------------------
    1 Cl    x      -1.0181     -0.0000      0.0000
            y      -0.0000     -1.0181      0.0000
            z       0.0000      0.0000     -1.0181
-------------------------------------------------------------------------------
    2 O     x      -2.2647      0.0000     -0.0000
            y       0.0000     -2.2647     -0.0000
            z      -0.0000     -0.0000     -2.2647
-------------------------------------------------------------------------------
    3 Na    x       1.2258     -0.0000      0.0000
            y      -0.0000      1.2258     -0.0000
            z       0.0000     -0.0000      0.8313
-------------------------------------------------------------------------------




  Elastic Constant Matrix: (Units=GPa)

-------------------------------------------------------------------------------
  Indices      1         2         3         4         5         6    
-------------------------------------------------------------------------------
       1     95.8177   20.0737   20.0737   -0.0000   -0.0000    0.0000
       2     20.0737   95.8177   20.0737   -0.0000   -0.0000    0.0000
       3     20.0737   20.0737   95.8177   -0.0000   -0.0000    0.0000
       4     -0.0000   -0.0000   -0.0000   20.0737   -0.0000    0.0000
       5     -0.0000   -0.0000   -0.0000   -0.0000   20.0737    0.0000
       6      0.0000    0.0000    0.0000    0.0000    0.0000   20.0737
-------------------------------------------------------------------------------


  Elastic Compliance Matrix: (Units=1/GPa)

-------------------------------------------------------------------------------
  Indices      1         2         3         4         5         6    
-------------------------------------------------------------------------------
       1    0.011253 -0.001949 -0.001949  0.000000  0.000000 -0.000000
       2   -0.001949  0.011253 -0.001949  0.000000  0.000000  0.000000
       3   -0.001949 -0.001949  0.011253  0.000000  0.000000 -0.000000
       4    0.000000  0.000000  0.000000  0.049816  0.000000 -0.000000
       5    0.000000  0.000000  0.000000  0.000000  0.049816 -0.000000
       6   -0.000000  0.000000 -0.000000 -0.000000 -0.000000  0.049816
-------------------------------------------------------------------------------

  Mechanical properties :

-------------------------------------------------------------------------------
  Convention :                    Reuss         Voigt         Hill
-------------------------------------------------------------------------------
  Bulk  Modulus (GPa)     =      45.32174      45.32174      45.32174
  Shear Modulus (GPa)     =      24.72085      27.19304      25.95695
-------------------------------------------------------------------------------
  Velocity S-wave (km/s)  =       3.36511       3.52937       3.44822
  Velocity P-wave (km/s)  =       5.98827       6.11304       6.05098
-------------------------------------------------------------------------------
  Compressibility (1/GPa) =    0.02206447
-------------------------------------------------------------------------------
  Stress axis :                     x             y             z
-------------------------------------------------------------------------------
  Youngs Moduli (GPa)     =      88.86373      88.86373      88.86373
-------------------------------------------------------------------------------
  Poissons Ratio (x)      =                     0.17321       0.17321
  Poissons Ratio (y)      =       0.17321                     0.17321
  Poissons Ratio (z)      =       0.17321       0.17321
-------------------------------------------------------------------------------


  Piezoelectric Strain Matrix: (Units=C/m**2)

-------------------------------------------------------------------------------
  Indices      1         2         3         4         5         6    
-------------------------------------------------------------------------------
       x    -0.00000  -0.00000  -0.00000   0.00000  -0.00000  -0.00000
       y    -0.00000  -0.00000   0.00000  -0.00000   0.00000   0.00000
       z    -0.00000  -0.00000  -0.00000  -0.00000   0.00000   0.00000
-------------------------------------------------------------------------------


  Piezoelectric Stress Matrix: (Units=10**-11 C/N)

-------------------------------------------------------------------------------
  Indices      1         2         3         4         5         6    
-------------------------------------------------------------------------------
       x    -0.00000   0.00000   0.00000   0.00000  -0.00000  -0.00000
       y    -0.00000  -0.00000   0.00000  -0.00000   0.00000   0.00000
       z     0.00000   0.00000  -0.00000  -0.00000   0.00000   0.00000
-------------------------------------------------------------------------------


  Static dielectric constant tensor : 

-------------------------------------------------------------------------------
              x         y         z
-------------------------------------------------------------------------------
       x    22.84729   0.00000   0.00000
       y     0.00000  22.84729  -0.00000
       z     0.00000  -0.00000  22.84729
--------------------------------------------------------------------------------

  High frequency dielectric constant tensor : 

-------------------------------------------------------------------------------
              x         y         z
-------------------------------------------------------------------------------
       x     1.47557   0.00000  -0.00000
       y     0.00000   1.47557  -0.00000
       z    -0.00000  -0.00000   1.47557
-------------------------------------------------------------------------------

  Static refractive indices : 

-------------------------------------------------------------------------------
    1 =    4.77988      2 =    4.77988      3 =    4.77988
-------------------------------------------------------------------------------

  High frequency refractive indices : 

-------------------------------------------------------------------------------
    1 =    1.21473      2 =    1.21473      3 =    1.21473
-------------------------------------------------------------------------------


  Time to end of optimisation =       0.0278 seconds

********************************************************************************
*  Defect calculation for configuration   1 :                                  *
********************************************************************************

  Total number of defects =      3

  Total charge on defect  =  -1.00

  Defect centre is at   0.5000   0.3200   0.1800  Frac

  Region 1 radius =  12.0000      Number of ions =    547

  Number of symmetry inequivalent region 1 ions  =    316

  Region 2 radius =  16.0000      Number of ions =    774

  Number of symmetry inequivalent region 2a ions =    423

  Region 2a mode = 4 : screened electrostatics due to region 1 
                       neglect correction to region 1 forces from 2a
                       region 2a displacements based on defects only

  Region 2a ions will only interact with defects in region 1

  Vacancies:

--------------------------------------------------------------------------------
    Specification type     Symbol/Number         x          y          z
--------------------------------------------------------------------------------
    Fractional                               0.500000   0.500000   0.000000
    Fractional                               0.500000   0.000000   0.500000
--------------------------------------------------------------------------------

  Interstitials:

--------------------------------------------------------------------------------
    Specification type     Symbol/Number         x          y          z
--------------------------------------------------------------------------------
    Atom/Fractional         Na               0.500000   0.320000   0.180000
--------------------------------------------------------------------------------


  Symmetry reduced region 1 (Relative to defect centre) :

--------------------------------------------------------------------------------
   No.   Atomic       x            y             z       Radius  Multiplicity   
         Label      (Angs)       (Angs)        (Angs)    (Angs)     
--------------------------------------------------------------------------------
     1  Na    c      0.0000       0.0000       0.0000    0.0000     1    Defect
     2  O     c      0.0000       0.8114 *     1.4425 *  0.0000     1          
     3  Na    c      2.2539 *     0.8114 *     1.4425 *  0.0000     2          
     4  Cl    c      2.2539 *    -1.4425 *    -0.8114 *  0.0000     2          
     5  O     c      0.0000       0.8114 *    -3.0653 *  0.0000     1          
     6  Na    c      0.0000       3.0653 *     1.4425 *  0.0000     1          
     7  Na    c      0.0000      -1.4425 *    -3.0653 *  0.0000     1          
     8  Na    c      0.0000       0.8114 *     3.6964 *  0.0000     1          
     9  Na    c      0.0000      -3.6964 *    -0.8114 *  0.0000     1          
    10  Cl    c      2.2539 *     3.0653 *    -0.8114 *  0.0000     2          
    11  Na    c      2.2539 *     0.8114 *    -3.0653 *  0.0000     2          
    12  O     c      0.0000      -3.6964 *     1.4425 *  0.0000     1          
    13  Na    c      0.0000       3.0653 *    -3.0653 *  0.0000     1          
    14  Cl    c      2.2539 *    -1.4425 *     3.6964 *  0.0000     2          
    15  Na    c      2.2539 *    -3.6964 *     1.4425 *  0.0000     2          
    16  Na    c     -4.5078 *     0.8114 *    -0.8114 *  0.0000     2          
    17  O     c      0.0000      -3.6964 *    -3.0653 *  0.0000     1          
    18  O     c     -4.5078 *     0.8114 *     1.4425 *  0.0000     2          
    19  Na    c     -4.5078 *    -1.4425 *     1.4425 *  0.0000     2          
    20  Na    c      0.0000      -3.6964 *     3.6964 *  0.0000     1          
    21  Cl    c      2.2539 *     3.0653 *     3.6964 *  0.0000     2          
    22  Na    c      2.2539 *    -3.6964 *    -3.0653 *  0.0000     2          
    23  Na    c      0.0000       0.8114 *    -5.3192 *  0.0000     1          
    24  Na    c      0.0000       5.3192 *    -0.8114 *  0.0000     1          
    25  O     c      0.0000       5.3192 *     1.4425 *  0.0000     1          
    26  O     c     -4.5078 *     0.8114 *    -3.0653 *  0.0000     2          
    27  Na    c     -4.5078 *     3.0653 *     1.4425 *  0.0000     2          
    28  Na    c     -4.5078 *    -1.4425 *    -3.0653 *  0.0000     2          
    29  Na    c     -4.5078 *     0.8114 *     3.6964 *  0.0000     2          
    30  Na    c     -4.5078 *    -3.6964 *    -0.8114 *  0.0000     2          
    31  Cl    c      2.2539 *    -1.4425 *    -5.3192 *  0.0000     2          
    32  Na    c      2.2539 *     5.3192 *     1.4425 *  0.0000     2          
    33  O     c     -4.5078 *    -3.6964 *     1.4425 *  0.0000     2          
    34  O     c      0.0000       0.8114 *     5.9503 *  0.0000     1          
    35  Na    c      0.0000      -1.4425 *     5.9503 *  0.0000     1          
    36  Na    c      0.0000      -5.9503 *     1.4425 *  0.0000     1          
    37  O     c      0.0000       5.3192 *    -3.0653 *  0.0000     1          
    38  Na    c     -4.5078 *     3.0653 *    -3.0653 *  0.0000     2          
    39  Cl    c      2.2539 *    -5.9503 *    -0.8114 *  0.0000     2          
    40  Na    c      2.2539 *     0.8114 *     5.9503 *  0.0000     2          
    41  Na    c      0.0000       5.3192 *     3.6964 *  0.0000     1          
    42  Na    c      0.0000      -3.6964 *    -5.3192 *  0.0000     1          
    43  Cl    c      2.2539 *     3.0653 *    -5.3192 *  0.0000     2          
    44  Na    c      2.2539 *     5.3192 *    -3.0653 *  0.0000     2          
    45  O     c     -4.5078 *    -3.6964 *    -3.0653 *  0.0000     2          
    46  Na    c      0.0000       3.0653 *     5.9503 *  0.0000     1          
    47  Na    c      0.0000      -5.9503 *    -3.0653 *  0.0000     1          
    48  Na    c      4.5078 *    -3.6964 *     3.6964 *  0.0000     2          
    49  Cl    c      6.7617 *    -1.4425 *    -0.8114 *  0.0000     2          
    50  Na    c      6.7617 *     0.8114 *     1.4425 *  0.0000     2          
    51  O     c      0.0000      -3.6964 *     5.9503 *  0.0000     1          
    52  Na    c     -4.5078 *     0.8114 *    -5.3192 *  0.0000     2          
    53  Na    c     -4.5078 *     5.3192 *    -0.8114 *  0.0000     2          
    54  O     c     -4.5078 *     5.3192 *     1.4425 *  0.0000     2          
    55  Cl    c      2.2539 *    -5.9503 *     3.6964 *  0.0000     2          
    56  Na    c      2.2539 *    -3.6964 *     5.9503 *  0.0000     2          
    57  Cl    c      6.7617 *     3.0653 *    -0.8114 *  0.0000     2          
    58  Na    c      6.7617 *     0.8114 *    -3.0653 *  0.0000     2          
    59  O     c     -4.5078 *     0.8114 *     5.9503 *  0.0000     2          
    60  Na    c      0.0000       5.3192 *    -5.3192 *  0.0000     1          
    61  Na    c      4.5078 *    -5.9503 *     1.4425 *  0.0000     2          
    62  Na    c     -4.5078 *    -1.4425 *     5.9503 *  0.0000     2          
    63  O     c     -4.5078 *     5.3192 *    -3.0653 *  0.0000     2          
    64  O     c      0.0000       0.8114 *    -7.5731 *  0.0000     1          
    65  Na    c      0.0000       7.5731 *     1.4425 *  0.0000     1          
    66  Na    c      0.0000      -1.4425 *    -7.5731 *  0.0000     1          
    67  Cl    c      6.7617 *    -1.4425 *     3.6964 *  0.0000     2          
    68  Na    c      6.7617 *    -3.6964 *     1.4425 *  0.0000     2          
    69  Na    c      4.5078 *     5.3192 *     3.6964 *  0.0000     2          
    70  Na    c      4.5078 *    -3.6964 *    -5.3192 *  0.0000     2          
    71  Cl    c      2.2539 *     7.5731 *    -0.8114 *  0.0000     2          
    72  Na    c      2.2539 *     0.8114 *    -7.5731 *  0.0000     2          
    73  O     c      0.0000       5.3192 *     5.9503 *  0.0000     1          
    74  Na    c      4.5078 *     3.0653 *     5.9503 *  0.0000     2          
    75  Na    c      4.5078 *    -5.9503 *    -3.0653 *  0.0000     2          
    76  Na    c      0.0000       7.5731 *    -3.0653 *  0.0000     1          
    77  Na    c      0.0000       3.0653 *    -7.5731 *  0.0000     1          
    78  Na    c      0.0000       0.8114 *     8.2042 *  0.0000     1          
    79  Na    c      0.0000      -8.2042 *    -0.8114 *  0.0000     1          
    80  Cl    c      2.2539 *    -5.9503 *    -5.3192 *  0.0000     2          
    81  Cl    c      6.7617 *     3.0653 *     3.6964 *  0.0000     2          
    82  Na    c      2.2539 *     5.3192 *     5.9503 *  0.0000     2          
    83  Na    c      6.7617 *    -3.6964 *    -3.0653 *  0.0000     2          
    84  O     c      0.0000      -8.2042 *     1.4425 *  0.0000     1          
    85  O     c      4.5078 *    -3.6964 *     5.9503 *  0.0000     2          
    86  Na    c      0.0000      -5.9503 *     5.9503 *  0.0000     1          
    87  O     c      0.0000      -3.6964 *    -7.5731 *  0.0000     1          
    88  Cl    c      2.2539 *    -1.4425 *     8.2042 *  0.0000     2          
    89  Na    c      2.2539 *    -8.2042 *     1.4425 *  0.0000     2          
    90  Cl    c      2.2539 *     7.5731 *     3.6964 *  0.0000     2          
    91  Cl    c      6.7617 *    -1.4425 *    -5.3192 *  0.0000     2          
    92  Na    c      2.2539 *    -3.6964 *    -7.5731 *  0.0000     2          
    93  Na    c      6.7617 *     5.3192 *     1.4425 *  0.0000     2          
    94  O     c      0.0000      -8.2042 *    -3.0653 *  0.0000     1          
    95  Na    c      4.5078 *     5.3192 *    -5.3192 *  0.0000     2          
    96  O     c     -4.5078 *     0.8114 *    -7.5731 *  0.0000     2          
    97  Na    c      4.5078 *     7.5731 *     1.4425 *  0.0000     2          
    98  Na    c     -4.5078 *    -1.4425 *    -7.5731 *  0.0000     2          
    99  Na    c      0.0000      -3.6964 *     8.2042 *  0.0000     1          
   100  Na    c      0.0000      -8.2042 *     3.6964 *  0.0000     1          
   101  Cl    c      2.2539 *     3.0653 *     8.2042 *  0.0000     2          
   102  Na    c      2.2539 *    -8.2042 *    -3.0653 *  0.0000     2          
   103  Na    c      6.7617 *     0.8114 *     5.9503 *  0.0000     2          
   104  Cl    c      6.7617 *    -5.9503 *    -0.8114 *  0.0000     2          
   105  Na    c      9.0156 *     0.8114 *    -0.8114 *  0.0000     2          
   106  Cl    c      6.7617 *     3.0653 *    -5.3192 *  0.0000     2          
   107  Na    c      6.7617 *     5.3192 *    -3.0653 *  0.0000     2          
   108  O     c      4.5078 *     5.3192 *     5.9503 *  0.0000     2          
   109  O     c      9.0156 *     0.8114 *     1.4425 *  0.0000     2          
   110  Na    c      9.0156 *    -1.4425 *     1.4425 *  0.0000     2          
   111  O     c      0.0000       5.3192 *    -7.5731 *  0.0000     1          
   112  Na    c      4.5078 *     3.0653 *    -7.5731 *  0.0000     2          
   113  Na    c      4.5078 *     7.5731 *    -3.0653 *  0.0000     2          
   114  Na    c      4.5078 *     0.8114 *     8.2042 *  0.0000     2          
   115  Na    c     -4.5078 *    -8.2042 *    -0.8114 *  0.0000     2          
   116  O     c     -4.5078 *    -8.2042 *     1.4425 *  0.0000     2          
   117  Cl    c      2.2539 *     7.5731 *    -5.3192 *  0.0000     2          
   118  Na    c      2.2539 *     5.3192 *    -7.5731 *  0.0000     2          
   119  Na    c      4.5078 *    -5.9503 *     5.9503 *  0.0000     2          
   120  O     c      4.5078 *    -3.6964 *    -7.5731 *  0.0000     2          
   121  O     c      9.0156 *     0.8114 *    -3.0653 *  0.0000     2          
   122  Na    c      0.0000       7.5731 *     5.9503 *  0.0000     1          
   123  Na    c      9.0156 *     3.0653 *     1.4425 *  0.0000     2          
   124  Na    c      0.0000      -5.9503 *    -7.5731 *  0.0000     1          
   125  Na    c      9.0156 *    -1.4425 *    -3.0653 *  0.0000     2          
   126  Na    c      6.7617 *    -3.6964 *     5.9503 *  0.0000     2          
   127  Cl    c      6.7617 *    -5.9503 *     3.6964 *  0.0000     2          
   128  Na    c      0.0000       5.3192 *     8.2042 *  0.0000     1          
   129  Na    c      0.0000      -8.2042 *    -5.3192 *  0.0000     1          
   130  Na    c      9.0156 *     0.8114 *     3.6964 *  0.0000     2          
   131  Na    c      9.0156 *    -3.6964 *    -0.8114 *  0.0000     2          
   132  O     c     -4.5078 *    -8.2042 *    -3.0653 *  0.0000     2          
   133  O     c      9.0156 *    -3.6964 *     1.4425 *  0.0000     2          
   134  Na    c      0.0000       0.8114 *    -9.8270 *  0.0000     1          
   135  Na    c      0.0000       9.8270 *    -0.8114 *  0.0000     1          
   136  O     c      0.0000       9.8270 *     1.4425 *  0.0000     1          
   137  Na    c      9.0156 *     3.0653 *    -3.0653 *  0.0000     2          
   138  Na    c      4.5078 *    -3.6964 *     8.2042 *  0.0000     2          
   139  Na    c     -4.5078 *    -8.2042 *     3.6964 *  0.0000     2          
   140  O     c      0.0000      -8.2042 *     5.9503 *  0.0000     1          
   141  Cl    c      2.2539 *    -1.4425 *    -9.8270 *  0.0000     2          
   142  Cl    c      6.7617 *     7.5731 *    -0.8114 *  0.0000     2          
   143  Na    c      2.2539 *     9.8270 *     1.4425 *  0.0000     2          
   144  Na    c      6.7617 *     0.8114 *    -7.5731 *  0.0000     2          
   145  O     c      9.0156 *    -3.6964 *    -3.0653 *  0.0000     2          
   146  O     c      0.0000       9.8270 *    -3.0653 *  0.0000     1          
   147  O     c      4.5078 *     5.3192 *    -7.5731 *  0.0000     2          
   148  Cl    c      2.2539 *    -5.9503 *     8.2042 *  0.0000     2          
   149  Na    c      2.2539 *    -8.2042 *     5.9503 *  0.0000     2          
   150  Na    c      9.0156 *    -3.6964 *     3.6964 *  0.0000     2          
   151  Na    c      6.7617 *     5.3192 *     5.9503 *  0.0000     2          
   152  Cl    c      6.7617 *    -5.9503 *    -5.3192 *  0.0000     2          
   153  O     c      0.0000       0.8114 *    10.4581 *  0.0000     1          
   154  Na    c      0.0000       9.8270 *     3.6964 *  0.0000     1          
   155  Na    c      0.0000      -3.6964 *    -9.8270 *  0.0000     1          
   156  Na    c      9.0156 *     0.8114 *    -5.3192 *  0.0000     2          
   157  Na    c      9.0156 *     5.3192 *    -0.8114 *  0.0000     2          
   158  Cl    c      2.2539 *     3.0653 *    -9.8270 *  0.0000     2          
   159  Na    c      2.2539 *     9.8270 *    -3.0653 *  0.0000     2          
   160  Na    c      0.0000      -1.4425 *    10.4581 *  0.0000     1          
   161  Na    c      0.0000     -10.4581 *     1.4425 *  0.0000     1          
   162  O     c      9.0156 *     5.3192 *     1.4425 *  0.0000     2          
   163  Na    c      4.5078 *     7.5731 *     5.9503 *  0.0000     2          
   164  Na    c      4.5078 *    -5.9503 *    -7.5731 *  0.0000     2          
   165  Na    c      0.0000       7.5731 *    -7.5731 *  0.0000     1          
   166  Cl    c      6.7617 *    -1.4425 *     8.2042 *  0.0000     2          
   167  Na    c      6.7617 *    -8.2042 *     1.4425 *  0.0000     2          
   168  Cl    c      2.2539 *   -10.4581 *    -0.8114 *  0.0000     2          
   169  Na    c      2.2539 *     0.8114 *    10.4581 *  0.0000     2          
   170  Na    c      4.5078 *     5.3192 *     8.2042 *  0.0000     2          
   171  Na    c     -4.5078 *    -8.2042 *    -5.3192 *  0.0000     2          
   172  Cl    c      6.7617 *     7.5731 *     3.6964 *  0.0000     2          
   173  Na    c      6.7617 *    -3.6964 *    -7.5731 *  0.0000     2          
   174  O     c      9.0156 *     0.8114 *     5.9503 *  0.0000     2          
   175  Na    c      4.5078 *     0.8114 *    -9.8270 *  0.0000     2          
   176  Na    c     -4.5078 *     9.8270 *    -0.8114 *  0.0000     2          
   177  Na    c      0.0000       3.0653 *    10.4581 *  0.0000     1          
   178  Na    c      9.0156 *    -1.4425 *     5.9503 *  0.0000     2          
   179  Na    c      9.0156 *    -5.9503 *     1.4425 *  0.0000     2          
   180  Na    c      0.0000     -10.4581 *    -3.0653 *  0.0000     1          
   181  O     c     -4.5078 *     9.8270 *     1.4425 *  0.0000     2          
   182  O     c      9.0156 *     5.3192 *    -3.0653 *  0.0000     2          
   183  Cl    c      6.7617 *     3.0653 *     8.2042 *  0.0000     2          
   184  Na    c      6.7617 *    -8.2042 *    -3.0653 *  0.0000     2          
   185  O     c      4.5078 *    -8.2042 *     5.9503 *  0.0000     2          
   186  O     c      0.0000      -3.6964 *    10.4581 *  0.0000     1          
   187  Na    c      9.0156 *     5.3192 *     3.6964 *  0.0000     2          
   188  Na    c      9.0156 *    -3.6964 *    -5.3192 *  0.0000     2          
   189  O     c      0.0000      -8.2042 *    -7.5731 *  0.0000     1          
   190  Na    c      0.0000       5.3192 *    -9.8270 *  0.0000     1          
   191  Na    c      0.0000       9.8270 *    -5.3192 *  0.0000     1          
   192  Na    c      9.0156 *     3.0653 *     5.9503 *  0.0000     2          
   193  Na    c      9.0156 *    -5.9503 *    -3.0653 *  0.0000     2          
   194  O     c     -4.5078 *     9.8270 *    -3.0653 *  0.0000     2          
   195  Cl    c      2.2539 *   -10.4581 *     3.6964 *  0.0000     2          
   196  Na    c      2.2539 *    -3.6964 *    10.4581 *  0.0000     2          
   197  Cl    c      2.2539 *     7.5731 *     8.2042 *  0.0000     2          
   198  Cl    c     11.2695 *    -1.4425 *    -0.8114 *  0.0000     2          
   199  Na    c     11.2695 *     0.8114 *     1.4425 *  0.0000     2          
   200  Na    c      2.2539 *    -8.2042 *    -7.5731 *  0.0000     2          
   201  O     c      9.0156 *    -3.6964 *     5.9503 *  0.0000     2          
   202  O     c      4.5078 *     0.8114 *    10.4581 *  0.0000     2          
   203  Na    c      4.5078 *     9.8270 *     3.6964 *  0.0000     2          
   204  Na    c      4.5078 *    -3.6964 *    -9.8270 *  0.0000     2          
   205  Cl    c      6.7617 *     7.5731 *    -5.3192 *  0.0000     2          
   206  Na    c      6.7617 *     5.3192 *    -7.5731 *  0.0000     2          
   207  Na    c      4.5078 *    -1.4425 *    10.4581 *  0.0000     2          
   208  Na    c      4.5078 *   -10.4581 *     1.4425 *  0.0000     2          
   209  O     c      0.0000       9.8270 *     5.9503 *  0.0000     1          
   210  Na    c      0.0000      -8.2042 *     8.2042 *  0.0000     1          
   211  Na    c      4.5078 *     7.5731 *    -7.5731 *  0.0000     2          
   212  Cl    c     11.2695 *     3.0653 *    -0.8114 *  0.0000     2          
   213  Na    c     11.2695 *     0.8114 *    -3.0653 *  0.0000     2          
   214  Cl    c      2.2539 *    -5.9503 *    -9.8270 *  0.0000     2          
   215  Na    c      2.2539 *     9.8270 *     5.9503 *  0.0000     2          
   216  O     c      0.0000       5.3192 *    10.4581 *  0.0000     1          
   217  Na    c      9.0156 *     5.3192 *    -5.3192 *  0.0000     2          
   218  Na    c      4.5078 *     3.0653 *    10.4581 *  0.0000     2          
   219  Na    c      4.5078 *   -10.4581 *    -3.0653 *  0.0000     2          
   220  O     c      9.0156 *     0.8114 *    -7.5731 *  0.0000     2          
   221  Na    c      9.0156 *     7.5731 *     1.4425 *  0.0000     2          
   222  Na    c      9.0156 *    -1.4425 *    -7.5731 *  0.0000     2          
   223  Cl    c     11.2695 *    -1.4425 *     3.6964 *  0.0000     2          
   224  Na    c     11.2695 *    -3.6964 *     1.4425 *  0.0000     2          
   225  Cl    c      2.2539 *   -10.4581 *    -5.3192 *  0.0000     2          
   226  Na    c      2.2539 *     5.3192 *    10.4581 *  0.0000     2          
   227  O     c      4.5078 *    -3.6964 *    10.4581 *  0.0000     2          
   228  O     s      0.0000       0.8114 *     1.4425 *  0.0000     1          
   229  Cl    s      2.2539 *    -1.4425 *    -0.8114 *  0.0000     2          
   230  O     s      0.0000       0.8114 *    -3.0653 *  0.0000     1          
   231  Cl    s      2.2539 *     3.0653 *    -0.8114 *  0.0000     2          
   232  O     s      0.0000      -3.6964 *     1.4425 *  0.0000     1          
   233  Cl    s      2.2539 *    -1.4425 *     3.6964 *  0.0000     2          
   234  O     s      0.0000      -3.6964 *    -3.0653 *  0.0000     1          
   235  O     s     -4.5078 *     0.8114 *     1.4425 *  0.0000     2          
   236  Cl    s      2.2539 *     3.0653 *     3.6964 *  0.0000     2          
   237  O     s      0.0000       5.3192 *     1.4425 *  0.0000     1          
   238  O     s     -4.5078 *     0.8114 *    -3.0653 *  0.0000     2          
   239  Cl    s      2.2539 *    -1.4425 *    -5.3192 *  0.0000     2          
   240  O     s     -4.5078 *    -3.6964 *     1.4425 *  0.0000     2          
   241  O     s      0.0000       0.8114 *     5.9503 *  0.0000     1          
   242  O     s      0.0000       5.3192 *    -3.0653 *  0.0000     1          
   243  Cl    s      2.2539 *    -5.9503 *    -0.8114 *  0.0000     2          
   244  Cl    s      2.2539 *     3.0653 *    -5.3192 *  0.0000     2          
   245  O     s     -4.5078 *    -3.6964 *    -3.0653 *  0.0000     2          
   246  Cl    s      6.7617 *    -1.4425 *    -0.8114 *  0.0000     2          
   247  O     s      0.0000      -3.6964 *     5.9503 *  0.0000     1          
   248  O     s     -4.5078 *     5.3192 *     1.4425 *  0.0000     2          
   249  Cl    s      2.2539 *    -5.9503 *     3.6964 *  0.0000     2          
   250  Cl    s      6.7617 *     3.0653 *    -0.8114 *  0.0000     2          
   251  O     s     -4.5078 *     0.8114 *     5.9503 *  0.0000     2          
   252  O     s     -4.5078 *     5.3192 *    -3.0653 *  0.0000     2          
   253  O     s      0.0000       0.8114 *    -7.5731 *  0.0000     1          
   254  Cl    s      6.7617 *    -1.4425 *     3.6964 *  0.0000     2          
   255  Cl    s      2.2539 *     7.5731 *    -0.8114 *  0.0000     2          
   256  O     s      0.0000       5.3192 *     5.9503 *  0.0000     1          
   257  Cl    s      2.2539 *    -5.9503 *    -5.3192 *  0.0000     2          
   258  Cl    s      6.7617 *     3.0653 *     3.6964 *  0.0000     2          
   259  O     s      0.0000      -8.2042 *     1.4425 *  0.0000     1          
   260  O     s      4.5078 *    -3.6964 *     5.9503 *  0.0000     2          
   261  O     s      0.0000      -3.6964 *    -7.5731 *  0.0000     1          
   262  Cl    s      2.2539 *    -1.4425 *     8.2042 *  0.0000     2          
   263  Cl    s      2.2539 *     7.5731 *     3.6964 *  0.0000     2          
   264  Cl    s      6.7617 *    -1.4425 *    -5.3192 *  0.0000     2          
   265  O     s      0.0000      -8.2042 *    -3.0653 *  0.0000     1          
   266  O     s     -4.5078 *     0.8114 *    -7.5731 *  0.0000     2          
   267  Cl    s      2.2539 *     3.0653 *     8.2042 *  0.0000     2          
   268  Cl    s      6.7617 *    -5.9503 *    -0.8114 *  0.0000     2          
   269  Cl    s      6.7617 *     3.0653 *    -5.3192 *  0.0000     2          
   270  O     s      4.5078 *     5.3192 *     5.9503 *  0.0000     2          
   271  O     s      9.0156 *     0.8114 *     1.4425 *  0.0000     2          
   272  O     s      0.0000       5.3192 *    -7.5731 *  0.0000     1          
   273  O     s     -4.5078 *    -8.2042 *     1.4425 *  0.0000     2          
   274  Cl    s      2.2539 *     7.5731 *    -5.3192 *  0.0000     2          
   275  O     s      4.5078 *    -3.6964 *    -7.5731 *  0.0000     2          
   276  O     s      9.0156 *     0.8114 *    -3.0653 *  0.0000     2          
   277  Cl    s      6.7617 *    -5.9503 *     3.6964 *  0.0000     2          
   278  O     s     -4.5078 *    -8.2042 *    -3.0653 *  0.0000     2          
   279  O     s      9.0156 *    -3.6964 *     1.4425 *  0.0000     2          
   280  O     s      0.0000       9.8270 *     1.4425 *  0.0000     1          
   281  O     s      0.0000      -8.2042 *     5.9503 *  0.0000     1          
   282  Cl    s      2.2539 *    -1.4425 *    -9.8270 *  0.0000     2          
   283  Cl    s      6.7617 *     7.5731 *    -0.8114 *  0.0000     2          
   284  O     s      9.0156 *    -3.6964 *    -3.0653 *  0.0000     2          
   285  O     s      0.0000       9.8270 *    -3.0653 *  0.0000     1          
   286  O     s      4.5078 *     5.3192 *    -7.5731 *  0.0000     2          
   287  Cl    s      2.2539 *    -5.9503 *     8.2042 *  0.0000     2          
   288  Cl    s      6.7617 *    -5.9503 *    -5.3192 *  0.0000     2          
   289  O     s      0.0000       0.8114 *    10.4581 *  0.0000     1          
   290  Cl    s      2.2539 *     3.0653 *    -9.8270 *  0.0000     2          
   291  O     s      9.0156 *     5.3192 *     1.4425 *  0.0000     2          
   292  Cl    s      6.7617 *    -1.4425 *     8.2042 *  0.0000     2          
   293  Cl    s      2.2539 *   -10.4581 *    -0.8114 *  0.0000     2          
   294  Cl    s      6.7617 *     7.5731 *     3.6964 *  0.0000     2          
   295  O     s      9.0156 *     0.8114 *     5.9503 *  0.0000     2          
   296  O     s     -4.5078 *     9.8270 *     1.4425 *  0.0000     2          
   297  O     s      9.0156 *     5.3192 *    -3.0653 *  0.0000     2          
   298  Cl    s      6.7617 *     3.0653 *     8.2042 *  0.0000     2          
   299  O     s      4.5078 *    -8.2042 *     5.9503 *  0.0000     2          
   300  O     s      0.0000      -3.6964 *    10.4581 *  0.0000     1          
   301  O     s      0.0000      -8.2042 *    -7.5731 *  0.0000     1          
   302  O     s     -4.5078 *     9.8270 *    -3.0653 *  0.0000     2          
   303  Cl    s      2.2539 *   -10.4581 *     3.6964 *  0.0000     2          
   304  Cl    s      2.2539 *     7.5731 *     8.2042 *  0.0000     2          
   305  Cl    s     11.2695 *    -1.4425 *    -0.8114 *  0.0000     2          
   306  O     s      9.0156 *    -3.6964 *     5.9503 *  0.0000     2          
   307  O     s      4.5078 *     0.8114 *    10.4581 *  0.0000     2          
   308  Cl    s      6.7617 *     7.5731 *    -5.3192 *  0.0000     2          
   309  O     s      0.0000       9.8270 *     5.9503 *  0.0000     1          
   310  Cl    s     11.2695 *     3.0653 *    -0.8114 *  0.0000     2          
   311  Cl    s      2.2539 *    -5.9503 *    -9.8270 *  0.0000     2          
   312  O     s      0.0000       5.3192 *    10.4581 *  0.0000     1          
   313  O     s      9.0156 *     0.8114 *    -7.5731 *  0.0000     2          
   314  Cl    s     11.2695 *    -1.4425 *     3.6964 *  0.0000     2          
   315  Cl    s      2.2539 *   -10.4581 *    -5.3192 *  0.0000     2          
   316  O     s      4.5078 *    -3.6964 *    10.4581 *  0.0000     2          
--------------------------------------------------------------------------------

  Components of defect energy : 

--------------------------------------------------------------------------------
  Region 1 - region 1                   =      8.25206380 eV
  Region 1 - region 2a (unrelaxed)      =      1.78417109 eV
  Region 1 - 2a (relaxed - correction)  =     -0.29404276 eV
  Region 1 (Total)                      =      9.74219213 eV
  Region 2a                             =      0.14694244 eV
  Region 2b                             =     -0.43095283 eV
--------------------------------------------------------------------------------
  Total defect energy                   =      9.45818174 eV
--------------------------------------------------------------------------------

  Largest displacement in region 2 =   0.0242 Angstroms


  Number of variables =      861

  Maximum number of calculations  =        1000
  Maximum Hessian update interval =          10
  Maximum step size               =   1.0000000
  Maximum parameter tolerance     =   0.0000100
  Maximum function  tolerance     =   0.0000100
  Maximum gradient  tolerance     =   0.0010000

  Symmetry adapted optimisation

  Symmetry to be used for second derivatives

  Newton-Raphson optimiser to be used

  BFGS hessian update to be used

  Lower half triangular hessian to be used

  Start of defect optimisation :

  Cycle:      0 Defect Energy:   9.458182  Gnorm:     0.021924  CPU:    2.849
  ** Hessian calculated **
  Cycle:      1 Defect Energy:   7.920971  Gnorm:     0.011670  CPU:    7.105
  Cycle:      2 Defect Energy:   7.413589  Gnorm:     0.010693  CPU:   14.896
  Cycle:      3 Defect Energy:   7.209603  Gnorm:     0.008893  CPU:   18.981
  Cycle:      4 Defect Energy:   6.876910  Gnorm:     0.009311  CPU:   24.764
  Cycle:      5 Defect Energy:   6.560721  Gnorm:     0.006733  CPU:   29.284
  Cycle:      6 Defect Energy:   6.222092  Gnorm:     0.007862  CPU:   33.615
  Cycle:      7 Defect Energy:   5.888370  Gnorm:     0.006570  CPU:   37.058
  Cycle:      8 Defect Energy:   5.602120  Gnorm:     0.004596  CPU:   41.110
  Cycle:      9 Defect Energy:   5.533522  Gnorm:     0.003546  CPU:   42.093
  Cycle:     10 Defect Energy:   5.458320  Gnorm:     0.002890  CPU:   43.484
  ** Hessian calculated **
  Cycle:     11 Defect Energy:   5.388347  Gnorm:     0.002660  CPU:   49.311
  Cycle:     12 Defect Energy:   5.298166  Gnorm:     0.002337  CPU:   50.425
  Cycle:     13 Defect Energy:   5.229522  Gnorm:     0.002056  CPU:   51.547
  ** Hessian calculated **
  Cycle:     14 Defect Energy:   5.217437  Gnorm:     0.001815  CPU:   54.460
  Cycle:     15 Defect Energy:   5.203428  Gnorm:     0.001745  CPU:   55.510
  Cycle:     16 Defect Energy:   5.185997  Gnorm:     0.001701  CPU:   56.547
  Cycle:     17 Defect Energy:   5.169285  Gnorm:     0.001648  CPU:   57.614
  Cycle:     18 Defect Energy:   5.155978  Gnorm:     0.001574  CPU:   58.719
  Cycle:     19 Defect Energy:   5.146978  Gnorm:     0.001532  CPU:   59.737
  Cycle:     20 Defect Energy:   5.138599  Gnorm:     0.001481  CPU:   60.748
  Cycle:     21 Defect Energy:   5.131005  Gnorm:     0.001427  CPU:   61.765
  Cycle:     22 Defect Energy:   5.122846  Gnorm:     0.001363  CPU:   62.873
  Cycle:     23 Defect Energy:   5.113327  Gnorm:     0.001304  CPU:   63.897
  ** Hessian calculated **
  Cycle:     24 Defect Energy:   5.110813  Gnorm:     0.001275  CPU:   66.384
  Cycle:     25 Defect Energy:   5.107381  Gnorm:     0.001263  CPU:   67.352
  Cycle:     26 Defect Energy:   5.102444  Gnorm:     0.001247  CPU:   68.425
  Cycle:     27 Defect Energy:   5.095728  Gnorm:     0.001227  CPU:   69.374
  Cycle:     28 Defect Energy:   5.086847  Gnorm:     0.001202  CPU:   70.284
  Cycle:     29 Defect Energy:   5.078351  Gnorm:     0.001179  CPU:   71.223
  Cycle:     30 Defect Energy:   5.072291  Gnorm:     0.001158  CPU:   72.171
  Cycle:     31 Defect Energy:   5.066639  Gnorm:     0.001134  CPU:   73.182
  Cycle:     32 Defect Energy:   5.060444  Gnorm:     0.001114  CPU:   74.112
  Cycle:     33 Defect Energy:   5.051927  Gnorm:     0.001086  CPU:   75.026
  ** Hessian calculated **
  Cycle:     34 Defect Energy:   5.043171  Gnorm:     0.001021  CPU:   77.458
  Cycle:     35 Defect Energy:   5.028073  Gnorm:     0.000910  CPU:   78.566
  Cycle:     36 Defect Energy:   5.017479  Gnorm:     0.000808  CPU:   82.562
  ** Hessian calculated **
  Cycle:     37 Defect Energy:   5.015775  Gnorm:     0.000773  CPU:   85.510
  Cycle:     38 Defect Energy:   5.013457  Gnorm:     0.000759  CPU:   86.582
  Cycle:     39 Defect Energy:   5.010379  Gnorm:     0.000746  CPU:   87.765
  Cycle:     40 Defect Energy:   5.006302  Gnorm:     0.000723  CPU:   88.897
  Cycle:     41 Defect Energy:   5.002203  Gnorm:     0.000705  CPU:   89.954
  Cycle:     42 Defect Energy:   4.998980  Gnorm:     0.000685  CPU:   91.029
  Cycle:     43 Defect Energy:   4.995983  Gnorm:     0.000681  CPU:   92.081
  Cycle:     44 Defect Energy:   4.992237  Gnorm:     0.000663  CPU:   93.325
  Cycle:     45 Defect Energy:   4.987137  Gnorm:     0.000662  CPU:   94.328
  Cycle:     46 Defect Energy:   4.979141  Gnorm:     0.000673  CPU:   95.358
  ** Hessian calculated **
  Cycle:     47 Defect Energy:   4.976104  Gnorm:     0.000643  CPU:   98.080
  Cycle:     48 Defect Energy:   4.971942  Gnorm:     0.000633  CPU:   99.047
  Cycle:     49 Defect Energy:   4.966164  Gnorm:     0.000624  CPU:  100.019
  Cycle:     50 Defect Energy:   4.958114  Gnorm:     0.000614  CPU:  101.026
  Cycle:     51 Defect Energy:   4.947661  Gnorm:     0.000620  CPU:  102.003
  Cycle:     52 Defect Energy:   4.934487  Gnorm:     0.000656  CPU:  102.929
  Cycle:     53 Defect Energy:   4.924588  Gnorm:     0.000718  CPU:  103.863
  Cycle:     54 Defect Energy:   4.916181  Gnorm:     0.000762  CPU:  104.756
  Cycle:     55 Defect Energy:   4.909050  Gnorm:     0.000813  CPU:  105.785
  Cycle:     56 Defect Energy:   4.900031  Gnorm:     0.000878  CPU:  106.702
  ** Hessian calculated **
  Cycle:     57 Defect Energy:   4.879400  Gnorm:     0.000875  CPU:  109.032
  Cycle:     58 Defect Energy:   4.851275  Gnorm:     0.000869  CPU:  109.944
  Cycle:     59 Defect Energy:   4.829735  Gnorm:     0.000859  CPU:  111.019
  ** Hessian calculated **
  Cycle:     60 Defect Energy:   4.825071  Gnorm:     0.000783  CPU:  116.726
  Cycle:     61 Defect Energy:   4.818993  Gnorm:     0.000753  CPU:  117.849
  Cycle:     62 Defect Energy:   4.811004  Gnorm:     0.000737  CPU:  118.976
  Cycle:     63 Defect Energy:   4.800673  Gnorm:     0.000708  CPU:  120.057
  Cycle:     64 Defect Energy:   4.790529  Gnorm:     0.000700  CPU:  121.253
  Cycle:     65 Defect Energy:   4.783061  Gnorm:     0.000689  CPU:  122.327
  Cycle:     66 Defect Energy:   4.777072  Gnorm:     0.000702  CPU:  123.384
  Cycle:     67 Defect Energy:   4.771561  Gnorm:     0.000715  CPU:  124.461
  Cycle:     68 Defect Energy:   4.766396  Gnorm:     0.000736  CPU:  125.595
  Cycle:     69 Defect Energy:   4.761515  Gnorm:     0.000758  CPU:  126.639
  ** Hessian calculated **
  Cycle:     70 Defect Energy:   4.752340  Gnorm:     0.000713  CPU:  129.210
  Cycle:     71 Defect Energy:   4.742323  Gnorm:     0.000657  CPU:  130.302
  ** Hessian calculated **
  Cycle:     72 Defect Energy:   4.741292  Gnorm:     0.000642  CPU:  132.819
  Cycle:     73 Defect Energy:   4.739924  Gnorm:     0.000639  CPU:  133.796
  Cycle:     74 Defect Energy:   4.738046  Gnorm:     0.000636  CPU:  134.854
  Cycle:     75 Defect Energy:   4.735497  Gnorm:     0.000633  CPU:  135.811
  Cycle:     76 Defect Energy:   4.732652  Gnorm:     0.000639  CPU:  136.753
  Cycle:     77 Defect Energy:   4.730629  Gnorm:     0.000634  CPU:  137.695
  Cycle:     78 Defect Energy:   4.729290  Gnorm:     0.000644  CPU:  138.640
  Cycle:     79 Defect Energy:   4.727826  Gnorm:     0.000637  CPU:  139.594
  Cycle:     80 Defect Energy:   4.726472  Gnorm:     0.000641  CPU:  140.575
  Cycle:     81 Defect Energy:   4.724611  Gnorm:     0.000636  CPU:  141.497
  ** Hessian calculated **
  Cycle:     82 Defect Energy:   4.719652  Gnorm:     0.000599  CPU:  143.912
  Cycle:     83 Defect Energy:   4.712766  Gnorm:     0.000544  CPU:  144.702
  Cycle:     84 Defect Energy:   4.703137  Gnorm:     0.000456  CPU:  145.999
  Cycle:     85 Defect Energy:   4.691506  Gnorm:     0.000316  CPU:  149.763
  Cycle:     86 Defect Energy:   4.685971  Gnorm:     0.000219  CPU:  150.920
  Cycle:     87 Defect Energy:   4.683324  Gnorm:     0.000150  CPU:  152.046
  Cycle:     88 Defect Energy:   4.682081  Gnorm:     0.000116  CPU:  153.171
  Cycle:     89 Defect Energy:   4.681619  Gnorm:     0.000066  CPU:  154.290
  Cycle:     90 Defect Energy:   4.681229  Gnorm:     0.000036  CPU:  155.475
  Cycle:     91 Defect Energy:   4.681082  Gnorm:     0.000019  CPU:  156.556
  ** Hessian calculated **
  Cycle:     92 Defect Energy:   4.681037  Gnorm:     0.000013  CPU:  159.406
  Cycle:     93 Defect Energy:   4.681024  Gnorm:     0.000009  CPU:  160.455


  **** Optimisation achieved ****


  Final defect energy  =        4.68102232
  Final defect Gnorm   =        0.00000608

  Components of defect energy : 

--------------------------------------------------------------------------------
  Region 1 - region 1                   =      3.41297451 eV
  Region 1 - region 2a (unrelaxed)      =      1.80471055 eV
  Region 1 - 2a (relaxed - correction)  =     -0.21249713 eV
  Region 1 (Total)                      =      5.00518793 eV
  Region 2a                             =      0.10614823 eV
  Region 2b                             =     -0.43031384 eV
--------------------------------------------------------------------------------
  Total defect energy                   =      4.68102232 eV
--------------------------------------------------------------------------------

  Largest displacement in region 2 =   0.0242 Angstroms

  Final coordinates of region 1 :

--------------------------------------------------------------------------------
   No.  Atomic        x           y           z          Radius      Charge
        Label       (Angs)      (Angs)      (Angs)       (Angs)       (e) 
--------------------------------------------------------------------------------
     1  Na    c     2.253894    1.442492    0.811402    0.000000    1.000000
     2  O     c     2.253894    2.455583    2.651895    0.000000    0.183000
     3  Na    c     4.494751    2.318004    2.697100    0.000000    1.000000
     4  Na    c     0.013036    2.318004    2.697100    0.000000    1.000000
     5  Cl    c     4.521251   -0.029211   -0.078656    0.000000    1.485000
     6  Cl    c    -0.013464   -0.029211   -0.078656    0.000000    1.485000
     7  O     c     2.253894    2.252121   -2.184142    0.000000    0.183000
     8  Na    c     2.253894    4.608109    2.421063    0.000000    1.000000
     9  Na    c     2.253894    0.021085   -2.393851    0.000000    1.000000
    10  Na    c     2.253894    1.563883    4.633882    0.000000    1.000000
    11  Na    c     2.253894   -2.018279    0.071910    0.000000    1.000000
    12  Cl    c     4.580214    4.683589    0.021917    0.000000    1.485000
    13  Cl    c    -0.072427    4.683589    0.021917    0.000000    1.485000
    14  Na    c     4.465388    2.247795   -2.020360    0.000000    1.000000
    15  Na    c     0.042400    2.247795   -2.020360    0.000000    1.000000
    16  O     c     2.253894   -2.295272    2.275787    0.000000    0.183000
    17  Na    c     2.253894    4.427184   -1.655581    0.000000    1.000000
    18  Cl    c     4.630367   -0.018145    4.624697    0.000000    1.485000
    19  Cl    c    -0.122580   -0.018145    4.624697    0.000000    1.485000
    20  Na    c     4.429149   -1.837040    2.285660    0.000000    1.000000
    21  Na    c     0.078638   -1.837040    2.285660    0.000000    1.000000
    22  Na    c    -2.142586    1.858706    0.082156    0.000000    1.000000
    23  Na    c     6.650374    1.858706    0.082156    0.000000    1.000000
    24  O     c     2.253894   -2.259680   -2.213720    0.000000    0.183000
    25  O     c    -2.250457    2.278123    2.317141    0.000000    0.183000
    26  O     c     6.758245    2.278123    2.317141    0.000000    0.183000
    27  Na    c    -2.395338    0.032596    2.693818    0.000000    1.000000
    28  Na    c     6.903125    0.032596    2.693818    0.000000    1.000000
    29  Na    c     2.253894   -1.891763    4.466175    0.000000    1.000000
    30  Cl    c     4.674616    4.571782    4.615838    0.000000    1.485000
    31  Cl    c    -0.166828    4.571782    4.615838    0.000000    1.485000
    32  Na    c     4.508438   -2.262065   -2.233831    0.000000    1.000000
    33  Na    c    -0.000651   -2.262065   -2.233831    0.000000    1.000000
    34  Na    c     2.253894    2.601728   -4.414665    0.000000    1.000000
    35  Na    c     2.253894    6.925463    0.028221    0.000000    1.000000
    36  O     c     2.253894    6.852006    2.294147    0.000000    0.183000
    37  O     c    -2.233023    2.247395   -2.177031    0.000000    0.183000
    38  O     c     6.740810    2.247395   -2.177031    0.000000    0.183000
    39  Na    c    -2.152155    4.519946    1.922674    0.000000    1.000000
    40  Na    c     6.659942    4.519946    1.922674    0.000000    1.000000
    41  Na    c    -2.181142    0.009185   -2.608251    0.000000    1.000000
    42  Na    c     6.688929    0.009185   -2.608251    0.000000    1.000000
    43  Na    c    -2.419329    2.648208    4.557233    0.000000    1.000000
    44  Na    c     6.927117    2.648208    4.557233    0.000000    1.000000
    45  Na    c    -2.191178   -1.875935    0.019215    0.000000    1.000000
    46  Na    c     6.698965   -1.875935    0.019215    0.000000    1.000000
    47  Cl    c     4.520003   -0.057503   -4.530724    0.000000    1.485000
    48  Cl    c    -0.012216   -0.057503   -4.530724    0.000000    1.485000
    49  Na    c     4.517134    6.808240    2.257095    0.000000    1.000000
    50  Na    c    -0.009346    6.808240    2.257095    0.000000    1.000000
    51  O     c    -2.211970   -2.204158    2.263357    0.000000    0.183000
    52  O     c     6.719758   -2.204158    2.263357    0.000000    0.183000
    53  O     c     2.253894    2.221297    6.812007    0.000000    0.183000
    54  Na    c     2.253894    0.003964    7.299027    0.000000    1.000000
    55  Na    c     2.253894   -4.492362    2.266305    0.000000    1.000000
    56  O     c     2.253894    6.687964   -2.218885    0.000000    0.183000
    57  Na    c    -2.274273    4.499685   -1.849739    0.000000    1.000000
    58  Na    c     6.782060    4.499685   -1.849739    0.000000    1.000000
    59  Cl    c     4.532446   -4.622792   -0.084795    0.000000    1.485000
    60  Cl    c    -0.024659   -4.622792   -0.084795    0.000000    1.485000
    61  Na    c     4.524953    2.287962    6.721141    0.000000    1.000000
    62  Na    c    -0.017166    2.287962    6.721141    0.000000    1.000000
    63  Na    c     2.253894    7.118816    4.522524    0.000000    1.000000
    64  Na    c     2.253894   -2.524443   -4.461861    0.000000    1.000000
    65  Cl    c     4.555748    4.531827   -4.585359    0.000000    1.485000
    66  Cl    c    -0.047961    4.531827   -4.585359    0.000000    1.485000
    67  Na    c     4.508785    6.638382   -2.240020    0.000000    1.000000
    68  Na    c    -0.000998    6.638382   -2.240020    0.000000    1.000000
    69  O     c    -2.262731   -2.241097   -2.230728    0.000000    0.183000
    70  O     c     6.770518   -2.241097   -2.230728    0.000000    0.183000
    71  Na    c     2.253894    4.442322    6.229800    0.000000    1.000000
    72  Na    c     2.253894   -4.498111   -1.922788    0.000000    1.000000
    73  Na    c     6.732156   -2.580275    4.499132    0.000000    1.000000
    74  Na    c    -2.224368   -2.580275    4.499132    0.000000    1.000000
    75  Cl    c     9.024293    0.016684    0.059792    0.000000    1.485000
    76  Cl    c    -4.516506    0.016684    0.059792    0.000000    1.485000
    77  Na    c     9.012795    2.396268    2.126185    0.000000    1.000000
    78  Na    c    -4.505008    2.396268    2.126185    0.000000    1.000000
    79  O     c     2.253894   -2.207969    6.759643    0.000000    0.183000
    80  Na    c    -2.254688    2.598411   -4.436223    0.000000    1.000000
    81  Na    c     6.762475    2.598411   -4.436223    0.000000    1.000000
    82  Na    c    -2.224237    7.087283    0.012019    0.000000    1.000000
    83  Na    c     6.732024    7.087283    0.012019    0.000000    1.000000
    84  O     c    -2.266228    6.768030    2.264581    0.000000    0.183000
    85  O     c     6.774015    6.768030    2.264581    0.000000    0.183000
    86  Cl    c     4.583985   -4.594577    4.620138    0.000000    1.485000
    87  Cl    c    -0.076198   -4.594577    4.620138    0.000000    1.485000
    88  Na    c     4.507221   -2.205036    6.695680    0.000000    1.000000
    89  Na    c     0.000566   -2.205036    6.695680    0.000000    1.000000
    90  Cl    c     9.045351    4.517753    0.039951    0.000000    1.485000
    91  Cl    c    -4.537563    4.517753    0.039951    0.000000    1.485000
    92  Na    c     8.999295    2.189668   -2.101795    0.000000    1.000000
    93  Na    c    -4.491507    2.189668   -2.101795    0.000000    1.000000
    94  O     c    -2.284033    2.260401    6.789574    0.000000    0.183000
    95  O     c     6.791820    2.260401    6.789574    0.000000    0.183000
    96  Na    c     2.253894    6.398249   -4.470583    0.000000    1.000000
    97  Na    c     6.500890   -4.461964    1.988849    0.000000    1.000000
    98  Na    c    -1.993103   -4.461964    1.988849    0.000000    1.000000
    99  Na    c    -2.237725    0.001789    6.487985    0.000000    1.000000
   100  Na    c     6.745512    0.001789    6.487985    0.000000    1.000000
   101  O     c    -2.262531    6.748777   -2.239068    0.000000    0.183000
   102  O     c     6.770318    6.748777   -2.239068    0.000000    0.183000
   103  O     c     2.253894    2.254657   -6.704154    0.000000    0.183000
   104  Na    c     2.253894    9.075541    2.163234    0.000000    1.000000
   105  Na    c     2.253894    0.006779   -6.406968    0.000000    1.000000
   106  Cl    c     9.069742    0.031658    4.597775    0.000000    1.485000
   107  Cl    c    -4.561955    0.031658    4.597775    0.000000    1.485000
   108  Na    c     8.978379   -2.404691    2.158360    0.000000    1.000000
   109  Na    c    -4.470592   -2.404691    2.158360    0.000000    1.000000
   110  Na    c     6.767660    6.469494    4.521850    0.000000    1.000000
   111  Na    c    -2.259873    6.469494    4.521850    0.000000    1.000000
   112  Na    c     6.818127   -2.588333   -4.476433    0.000000    1.000000
   113  Na    c    -2.310339   -2.588333   -4.476433    0.000000    1.000000
   114  Cl    c     4.473357    9.044428    0.037071    0.000000    1.485000
   115  Cl    c     0.034430    9.044428    0.037071    0.000000    1.485000
   116  Na    c     4.504534    2.234348   -6.629487    0.000000    1.000000
   117  Na    c     0.003253    2.234348   -6.629487    0.000000    1.000000
   118  O     c     2.253894    6.709802    6.731937    0.000000    0.183000
   119  Na    c     6.833992    4.503083    7.083235    0.000000    1.000000
   120  Na    c    -2.326204    4.503083    7.083235    0.000000    1.000000
   121  Na    c     6.792803   -4.496144   -1.907348    0.000000    1.000000
   122  Na    c    -2.285016   -4.496144   -1.907348    0.000000    1.000000
   123  Na    c     2.253894    8.965384   -2.410262    0.000000    1.000000
   124  Na    c     2.253894    4.493107   -7.018611    0.000000    1.000000
   125  Na    c     2.253894    2.652405    9.015548    0.000000    1.000000
   126  Na    c     2.253894   -6.885991    0.003774    0.000000    1.000000
   127  Cl    c     4.519169   -4.513623   -4.562994    0.000000    1.485000
   128  Cl    c    -0.011381   -4.513623   -4.562994    0.000000    1.485000
   129  Cl    c     9.082036    4.550536    4.539922    0.000000    1.485000
   130  Cl    c    -4.574249    4.550536    4.539922    0.000000    1.485000
   131  Na    c     4.516496    6.625295    6.743629    0.000000    1.000000
   132  Na    c    -0.008709    6.625295    6.743629    0.000000    1.000000
   133  Na    c     9.015298   -2.173559   -2.158046    0.000000    1.000000
   134  Na    c    -4.507510   -2.173559   -2.158046    0.000000    1.000000
   135  O     c     2.253894   -6.779403    2.258998    0.000000    0.183000
   136  O     c     6.764875   -2.254657    6.753008    0.000000    0.183000
   137  O     c    -2.257088   -2.254657    6.753008    0.000000    0.183000
   138  Na    c     2.253894   -4.475967    6.482375    0.000000    1.000000
   139  O     c     2.253894   -2.243960   -6.726880    0.000000    0.183000
   140  Cl    c     4.555047   -0.021131    9.097281    0.000000    1.485000
   141  Cl    c    -0.047260   -0.021131    9.097281    0.000000    1.485000
   142  Na    c     4.499334   -6.809805    2.251466    0.000000    1.000000
   143  Na    c     0.008453   -6.809805    2.251466    0.000000    1.000000
   144  Cl    c     4.508234    9.072082    4.522978    0.000000    1.485000
   145  Cl    c    -0.000447    9.072082    4.522978    0.000000    1.485000
   146  Cl    c     9.047483   -0.000831   -4.487771    0.000000    1.485000
   147  Cl    c    -4.539696   -0.000831   -4.487771    0.000000    1.485000
   148  Na    c     4.508793   -2.212931   -6.648344    0.000000    1.000000
   149  Na    c    -0.001006   -2.212931   -6.648344    0.000000    1.000000
   150  Na    c     9.020393    6.645039    2.259987    0.000000    1.000000
   151  Na    c    -4.512606    6.645039    2.259987    0.000000    1.000000
   152  O     c     2.253894   -6.742152   -2.256137    0.000000    0.183000
   153  Na    c     6.769314    6.492233   -4.496040    0.000000    1.000000
   154  Na    c    -2.261527    6.492233   -4.496040    0.000000    1.000000
   155  O     c    -2.249906    2.246778   -6.709211    0.000000    0.183000
   156  O     c     6.757693    2.246778   -6.709211    0.000000    0.183000
   157  Na    c     6.810111    9.008845    2.527374    0.000000    1.000000
   158  Na    c    -2.302324    9.008845    2.527374    0.000000    1.000000
   159  Na    c    -2.267642   -0.004549   -6.442867    0.000000    1.000000
   160  Na    c     6.775429   -0.004549   -6.442867    0.000000    1.000000
   161  Na    c     2.253894   -2.550433    8.996117    0.000000    1.000000
   162  Na    c     2.253894   -6.835918    4.495544    0.000000    1.000000
   163  Cl    c     4.541866    4.536212    9.079343    0.000000    1.485000
   164  Cl    c    -0.034079    4.536212    9.079343    0.000000    1.485000
   165  Na    c     4.513313   -6.680359   -2.244589    0.000000    1.000000
   166  Na    c    -0.005526   -6.680359   -2.244589    0.000000    1.000000
   167  Na    c     9.033363    2.123247    6.835325    0.000000    1.000000
   168  Na    c    -4.525576    2.123247    6.835325    0.000000    1.000000
   169  Cl    c     9.077222   -4.503842    0.010794    0.000000    1.485000
   170  Cl    c    -4.569435   -4.503842    0.010794    0.000000    1.485000
   171  Na    c    11.348497    1.903066    0.009376    0.000000    1.000000
   172  Na    c    -6.840710    1.903066    0.009376    0.000000    1.000000
   173  Cl    c     9.056090    4.532734   -4.521148    0.000000    1.485000
   174  Cl    c    -4.548303    4.532734   -4.521148    0.000000    1.485000
   175  Na    c     9.015622    6.749306   -2.259993    0.000000    1.000000
   176  Na    c    -4.507835    6.749306   -2.259993    0.000000    1.000000
   177  O     c     6.777689    6.751963    6.782563    0.000000    0.183000
   178  O     c    -2.269902    6.751963    6.782563    0.000000    0.183000
   179  O     c    11.266596    2.244751    2.248734    0.000000    0.183000
   180  O     c    -6.758808    2.244751    2.248734    0.000000    0.183000
   181  Na    c    11.104684    0.003400    2.542162    0.000000    1.000000
   182  Na    c    -6.596897    0.003400    2.542162    0.000000    1.000000
   183  O     c     2.253894    6.737346   -6.737246    0.000000    0.183000
   184  Na    c     6.729730    4.488263   -6.956974    0.000000    1.000000
   185  Na    c    -2.221943    4.488263   -6.956974    0.000000    1.000000
   186  Na    c     6.748628    8.992712   -2.492264    0.000000    1.000000
   187  Na    c    -2.240840    8.992712   -2.492264    0.000000    1.000000
   188  Na    c     6.741501    1.991095    9.025074    0.000000    1.000000
   189  Na    c    -2.233714    1.991095    9.025074    0.000000    1.000000
   190  Na    c    -2.235412   -6.997542    0.003086    0.000000    1.000000
   191  Na    c     6.743199   -6.997542    0.003086    0.000000    1.000000
   192  O     c    -2.238603   -6.728405    2.246437    0.000000    0.183000
   193  O     c     6.746390   -6.728405    2.246437    0.000000    0.183000
   194  Cl    c     4.527554    9.075941   -4.508523    0.000000    1.485000
   195  Cl    c    -0.019766    9.075941   -4.508523    0.000000    1.485000
   196  Na    c     4.507875    6.751559   -6.698988    0.000000    1.000000
   197  Na    c    -0.000088    6.751559   -6.698988    0.000000    1.000000
   198  Na    c     6.734773   -4.497183    6.944491    0.000000    1.000000
   199  Na    c    -2.226986   -4.497183    6.944491    0.000000    1.000000
   200  O     c     6.763707   -2.258838   -6.733643    0.000000    0.183000
   201  O     c    -2.255920   -2.258838   -6.733643    0.000000    0.183000
   202  O     c    11.264826    2.238381   -2.229341    0.000000    0.183000
   203  O     c    -6.757039    2.238381   -2.229341    0.000000    0.183000
   204  Na    c     2.253894    8.974053    6.968827    0.000000    1.000000
   205  Na    c    11.366081    4.493058    1.986467    0.000000    1.000000
   206  Na    c    -6.858294    4.493058    1.986467    0.000000    1.000000
   207  Na    c     2.253894   -4.493155   -6.934439    0.000000    1.000000
   208  Na    c    11.299615    0.006073   -2.572913    0.000000    1.000000
   209  Na    c    -6.791827    0.006073   -2.572913    0.000000    1.000000
   210  Na    c     9.013519   -2.213268    6.774492    0.000000    1.000000
   211  Na    c    -4.505732   -2.213268    6.774492    0.000000    1.000000
   212  Cl    c     9.067642   -4.493618    4.523390    0.000000    1.485000
[...]
    236 y          4.507787      4.575553     0.067766    Cartesian    1.50
    236 z          4.507787      4.626193     0.118406    Cartesian    2.63
    237 x          2.253894      2.253894     0.000000    Cartesian    0.00
    237 y          6.761681      6.852080     0.090399    Cartesian    1.34
    237 z          2.253894      2.294158     0.040265    Cartesian    1.79
    238 x         -2.253894     -2.233036     0.020857    Cartesian   -0.93
    238 y          2.253894      2.247388    -0.006506    Cartesian   -0.29
    238 z         -2.253894     -2.177019     0.076874    Cartesian   -3.41
    239 x          4.507787      4.526710     0.018922    Cartesian    0.42
    239 y         -0.000000     -0.062924    -0.062924    Cartesian *******
    239 z         -4.507787     -4.540055    -0.032268    Cartesian    0.72
    240 x         -2.253894     -2.212022     0.041871    Cartesian   -1.86
    240 y         -2.253894     -2.204153     0.049741    Cartesian   -2.21
    240 z          2.253894      2.263367     0.009473    Cartesian    0.42
    241 x          2.253894      2.253894     0.000000    Cartesian    0.00
    241 y          2.253894      2.221257    -0.032636    Cartesian   -1.45
    241 z          6.761681      6.812016     0.050335    Cartesian    0.74
    242 x          2.253894      2.253894     0.000000    Cartesian    0.00
    242 y          6.761681      6.687996    -0.073685    Cartesian   -1.09
    242 z         -2.253894     -2.218834     0.035060    Cartesian   -1.56
    243 x          4.507787      4.544458     0.036671    Cartesian    0.81
    243 y         -4.507787     -4.634076    -0.126289    Cartesian    2.80
    243 z          0.000000     -0.097625    -0.097625    Cartesian    0.00
    244 x          4.507787      4.560143     0.052356    Cartesian    1.16
    244 y          4.507787      4.535726     0.027939    Cartesian    0.62
    244 z         -4.507787     -4.594685    -0.086898    Cartesian    1.93
    245 x         -2.253894     -2.262737    -0.008844    Cartesian    0.39
    245 y         -2.253894     -2.241094     0.012799    Cartesian   -0.57
    245 z         -2.253894     -2.230733     0.023161    Cartesian   -1.03
    246 x          9.015574      9.023638     0.008063    Cartesian    0.09
    246 y         -0.000000      0.020200     0.020200    Cartesian *******
    246 z          0.000000      0.058630     0.058630    Cartesian    0.00
    247 x          2.253894      2.253894     0.000000    Cartesian    0.00
    247 y         -2.253894     -2.207980     0.045914    Cartesian   -2.04
    247 z          6.761681      6.759724    -0.001957    Cartesian   -0.03
    248 x         -2.253894     -2.266217    -0.012323    Cartesian    0.55
    248 y          6.761681      6.768046     0.006365    Cartesian    0.09
    248 z          2.253894      2.264568     0.010675    Cartesian    0.47
    249 x          4.507787      4.596732     0.088945    Cartesian    1.97
    249 y         -4.507787     -4.603632    -0.095844    Cartesian    2.13
    249 z          4.507787      4.635521     0.127733    Cartesian    2.83
    250 x          9.015574      9.044049     0.028474    Cartesian    0.32
    250 y          4.507787      4.515554     0.007767    Cartesian    0.17
    250 z          0.000000      0.043833     0.043833    Cartesian    0.00
    251 x         -2.253894     -2.284074    -0.030180    Cartesian    1.34
    251 y          2.253894      2.260418     0.006525    Cartesian    0.29
    251 z          6.761681      6.789598     0.027918    Cartesian    0.41
    252 x         -2.253894     -2.262547    -0.008654    Cartesian    0.38
    252 y          6.761681      6.748803    -0.012878    Cartesian   -0.19
    252 z         -2.253894     -2.239062     0.014831    Cartesian   -0.66
    253 x          2.253894      2.253894     0.000000    Cartesian    0.00
    253 y          2.253894      2.254679     0.000786    Cartesian    0.03
    253 z         -6.761681     -6.704168     0.057513    Cartesian   -0.85
    254 x          9.015574      9.069490     0.053915    Cartesian    0.60
    254 y         -0.000000      0.033488     0.033488    Cartesian *******
    254 z          4.507787      4.596276     0.088489    Cartesian    1.96
    255 x          4.507787      4.471114    -0.036673    Cartesian   -0.81
    255 y          9.015574      9.042538     0.026964    Cartesian    0.30
    255 z          0.000000      0.043638     0.043638    Cartesian    0.00
    256 x          2.253894      2.253894     0.000000    Cartesian    0.00
    256 y          6.761681      6.709870    -0.051811    Cartesian   -0.77
    256 z          6.761681      6.731886    -0.029795    Cartesian   -0.44
    257 x          4.507787      4.519789     0.012001    Cartesian    0.27
    257 y         -4.507787     -4.511305    -0.003518    Cartesian    0.08
    257 z         -4.507787     -4.568975    -0.061188    Cartesian    1.36
    258 x          9.015574      9.080063     0.064489    Cartesian    0.72
    258 y          4.507787      4.547910     0.040123    Cartesian    0.89
    258 z          4.507787      4.541421     0.033633    Cartesian    0.75
    259 x          2.253894      2.253894     0.000000    Cartesian    0.00
    259 y         -6.761681     -6.779484    -0.017803    Cartesian    0.26
    259 z          2.253894      2.259026     0.005132    Cartesian    0.23
    260 x          6.761681      6.764871     0.003191    Cartesian    0.05
    260 y         -2.253894     -2.254695    -0.000801    Cartesian    0.04
    260 z          6.761681      6.753011    -0.008670    Cartesian   -0.13
    261 x          2.253894      2.253894     0.000000    Cartesian    0.00
    261 y         -2.253894     -2.243988     0.009906    Cartesian   -0.44
    261 z         -6.761681     -6.726856     0.034825    Cartesian   -0.52
    262 x          4.507787      4.556846     0.049059    Cartesian    1.09
    262 y         -0.000000     -0.021456    -0.021456    Cartesian *******
    262 z          9.015574      9.101446     0.085872    Cartesian    0.95
    263 x          4.507787      4.507532    -0.000255    Cartesian   -0.01
    263 y          9.015574      9.074455     0.058880    Cartesian    0.65
    263 z          4.507787      4.522364     0.014577    Cartesian    0.32
    264 x          9.015574      9.049002     0.033427    Cartesian    0.37
    264 y         -0.000000     -0.001793    -0.001793    Cartesian *******
    264 z         -4.507787     -4.484858     0.022930    Cartesian   -0.51
    265 x          2.253894      2.253894     0.000000    Cartesian    0.00
    265 y         -6.761681     -6.742139     0.019542    Cartesian   -0.29
    265 z         -2.253894     -2.256109    -0.002216    Cartesian    0.10
    266 x         -2.253894     -2.249902     0.003991    Cartesian   -0.18
    266 y          2.253894      2.246817    -0.007077    Cartesian   -0.31
    266 z         -6.761681     -6.709231     0.052450    Cartesian   -0.78
    267 x          4.507787      4.539184     0.031396    Cartesian    0.70
    267 y          4.507787      4.539027     0.031240    Cartesian    0.69
    267 z          9.015574      9.083345     0.067771    Cartesian    0.75
    268 x          9.015574      9.080851     0.065276    Cartesian    0.72
    268 y         -4.507787     -4.503763     0.004024    Cartesian   -0.09
    268 z          0.000000      0.010479     0.010479    Cartesian    0.00
    269 x          9.015574      9.057696     0.042121    Cartesian    0.47
    269 y          4.507787      4.533089     0.025302    Cartesian    0.56
    269 z         -4.507787     -4.526167    -0.018380    Cartesian    0.41
    270 x          6.761681      6.777711     0.016030    Cartesian    0.24
    270 y          6.761681      6.751957    -0.009724    Cartesian   -0.14
    270 z          6.761681      6.782612     0.020931    Cartesian    0.31
    271 x         11.269468     11.266602    -0.002866    Cartesian   -0.03
    271 y          2.253894      2.244752    -0.009142    Cartesian   -0.41
    271 z          2.253894      2.248727    -0.005166    Cartesian   -0.23
    272 x          2.253894      2.253894     0.000000    Cartesian    0.00
    272 y          6.761681      6.737322    -0.024359    Cartesian   -0.36
    272 z         -6.761681     -6.737292     0.024389    Cartesian   -0.36
    273 x         -2.253894     -2.238565     0.015329    Cartesian   -0.68
    273 y         -6.761681     -6.728452     0.033229    Cartesian   -0.49
    273 z          2.253894      2.246410    -0.007484    Cartesian   -0.33
    274 x          4.507787      4.531375     0.023588    Cartesian    0.52
    274 y          9.015574      9.085218     0.069644    Cartesian    0.77
    274 z         -4.507787     -4.507323     0.000464    Cartesian   -0.01
    275 x          6.761681      6.763711     0.002030    Cartesian    0.03
    275 y         -2.253894     -2.258875    -0.004981    Cartesian    0.22
    275 z         -6.761681     -6.733651     0.028030    Cartesian   -0.41
    276 x         11.269468     11.264851    -0.004617    Cartesian   -0.04
    276 y          2.253894      2.238349    -0.015545    Cartesian   -0.69
    276 z         -2.253894     -2.229351     0.024543    Cartesian   -1.09
    277 x          9.015574      9.071985     0.056410    Cartesian    0.63
    277 y         -4.507787     -4.488064     0.019723    Cartesian   -0.44
    277 z          4.507787      4.524326     0.016539    Cartesian    0.37
    278 x         -2.253894     -2.265478    -0.011584    Cartesian    0.51
    278 y         -6.761681     -6.750580     0.011101    Cartesian   -0.16
    278 z         -2.253894     -2.246537     0.007357    Cartesian   -0.33
    279 x         11.269468     11.247207    -0.022261    Cartesian   -0.20
    279 y         -2.253894     -2.238046     0.015848    Cartesian   -0.70
    279 z          2.253894      2.262289     0.008395    Cartesian    0.37
    280 x          2.253894      2.253894     0.000000    Cartesian    0.00
    280 y         11.269468     11.291397     0.021929    Cartesian    0.19
    280 z          2.253894      2.245498    -0.008396    Cartesian   -0.37
    281 x          2.253894      2.253894     0.000000    Cartesian    0.00
    281 y         -6.761681     -6.749368     0.012313    Cartesian   -0.18
    281 z          6.761681      6.735275    -0.026405    Cartesian   -0.39
    282 x          4.507787      4.511956     0.004169    Cartesian    0.09
    282 y         -0.000000     -0.002370    -0.002370    Cartesian *******
    282 z         -9.015574     -9.131888    -0.116314    Cartesian    1.29
    283 x          9.015574      9.074053     0.058479    Cartesian    0.65
    283 y          9.015574      9.015756     0.000181    Cartesian    0.00
    283 z          0.000000     -0.006050    -0.006050    Cartesian    0.00
    284 x         11.269468     11.270008     0.000540    Cartesian    0.00
    284 y         -2.253894     -2.227268     0.026625    Cartesian   -1.18
    284 z         -2.253894     -2.253993    -0.000099    Cartesian    0.00
    285 x          2.253894      2.253894     0.000000    Cartesian    0.00
    285 y         11.269468     11.254928    -0.014540    Cartesian   -0.13
    285 z         -2.253894     -2.266130    -0.012236    Cartesian    0.54
    286 x          6.761681      6.765377     0.003696    Cartesian    0.05
    286 y          6.761681      6.736411    -0.025270    Cartesian   -0.37
    286 z         -6.761681     -6.756374     0.005307    Cartesian   -0.08
    287 x          4.507787      4.502520    -0.005268    Cartesian   -0.12
    287 y         -4.507787     -4.516030    -0.008243    Cartesian    0.18
    287 z          9.015574      9.067499     0.051925    Cartesian    0.58
    288 x          9.015574      9.068197     0.052622    Cartesian    0.58
    288 y         -4.507787     -4.515824    -0.008036    Cartesian    0.18
    288 z         -4.507787     -4.540176    -0.032389    Cartesian    0.72
    289 x          2.253894      2.253894     0.000000    Cartesian    0.00
    289 y          2.253894      2.287290     0.033397    Cartesian    1.48
    289 z         11.269468     11.262255    -0.007213    Cartesian   -0.06
    290 x          4.507787      4.535563     0.027776    Cartesian    0.62
    290 y          4.507787      4.517175     0.009388    Cartesian    0.21
    290 z         -9.015574     -9.011866     0.003708    Cartesian   -0.04
    291 x         11.269468     11.278048     0.008580    Cartesian    0.08
    291 y          6.761681      6.746104    -0.015577    Cartesian   -0.23
    291 z          2.253894      2.246852    -0.007041    Cartesian   -0.31
    292 x          9.015574      9.011448    -0.004127    Cartesian   -0.05
    292 y         -0.000000      0.010944     0.010944    Cartesian *******
    292 z          9.015574      9.062913     0.047338    Cartesian    0.53
    293 x          4.507787      4.502634    -0.005153    Cartesian   -0.11
    293 y         -9.015574     -9.010553     0.005021    Cartesian   -0.06
    293 z          0.000000      0.026040     0.026040    Cartesian    0.00
    294 x          9.015574      9.025966     0.010392    Cartesian    0.12
    294 y          9.015574      9.090280     0.074706    Cartesian    0.83
    294 z          4.507787      4.521164     0.013377    Cartesian    0.30
    295 x         11.269468     11.276779     0.007311    Cartesian    0.06
    295 y          2.253894      2.260470     0.006576    Cartesian    0.29
    295 z          6.761681      6.760938    -0.000743    Cartesian   -0.01
    296 x         -2.253894     -2.261710    -0.007816    Cartesian    0.35
    296 y         11.269468     11.263977    -0.005491    Cartesian   -0.05
    296 z          2.253894      2.274402     0.020508    Cartesian    0.91
    297 x         11.269468     11.270938     0.001470    Cartesian    0.01
    297 y          6.761681      6.760694    -0.000987    Cartesian   -0.01
    297 z         -2.253894     -2.227962     0.025931    Cartesian   -1.15
    298 x          9.015574      9.098678     0.083103    Cartesian    0.92
    298 y          4.507787      4.514362     0.006575    Cartesian    0.15
    298 z          9.015574      9.032731     0.017157    Cartesian    0.19
    299 x          6.761681      6.771276     0.009595    Cartesian    0.14
    299 y         -6.761681     -6.752669     0.009012    Cartesian   -0.13
    299 z          6.761681      6.778708     0.017027    Cartesian    0.25
    300 x          2.253894      2.253894     0.000000    Cartesian    0.00
    300 y         -2.253894     -2.265678    -0.011784    Cartesian    0.52
    300 z         11.269468     11.245957    -0.023511    Cartesian   -0.21
    301 x          2.253894      2.253894     0.000000    Cartesian    0.00
    301 y         -6.761681     -6.751953     0.009728    Cartesian   -0.14
    301 z         -6.761681     -6.761551     0.000129    Cartesian   -0.00
    302 x         -2.253894     -2.256769    -0.002876    Cartesian    0.13
    302 y         11.269468     11.250815    -0.018653    Cartesian   -0.17
    302 z         -2.253894     -2.259160    -0.005267    Cartesian    0.23
    303 x          4.507787      4.486383    -0.021405    Cartesian   -0.47
    303 y         -9.015574     -9.064970    -0.049396    Cartesian    0.55
    303 z          4.507787      4.495277    -0.012510    Cartesian   -0.28
    304 x          4.507787      4.526859     0.019072    Cartesian    0.42
    304 y          9.015574      9.044800     0.029226    Cartesian    0.32
    304 z          9.015574      9.042701     0.027126    Cartesian    0.30
    305 x         13.523362     13.581900     0.058538    Cartesian    0.43
    305 y         -0.000000     -0.013088    -0.013088    Cartesian *******
    305 z          0.000000      0.005998     0.005998    Cartesian    0.00
    306 x         11.269468     11.276690     0.007222    Cartesian    0.06
    306 y         -2.253894     -2.258291    -0.004398    Cartesian    0.20
    306 z          6.761681      6.756347    -0.005334    Cartesian   -0.08
    307 x          6.761681      6.763206     0.001525    Cartesian    0.02
    307 y          2.253894      2.230698    -0.023196    Cartesian   -1.03
    307 z         11.269468     11.273637     0.004169    Cartesian    0.04
    308 x          9.015574      9.016243     0.000669    Cartesian    0.01
    308 y          9.015574      9.056234     0.040660    Cartesian    0.45
    308 z         -4.507787     -4.501792     0.005995    Cartesian   -0.13
    309 x          2.253894      2.253894     0.000000    Cartesian    0.00
    309 y         11.269468     11.246673    -0.022795    Cartesian   -0.20
    309 z          6.761681      6.781106     0.019426    Cartesian    0.29
    310 x         13.523362     13.566476     0.043114    Cartesian    0.32
    310 y          4.507787      4.522984     0.015196    Cartesian    0.34
    310 z          0.000000     -0.011146    -0.011146    Cartesian    0.00
    311 x          4.507787      4.526311     0.018524    Cartesian    0.41
    311 y         -4.507787     -4.553035    -0.045248    Cartesian    1.00
    311 z         -9.015574     -9.021624    -0.006049    Cartesian    0.07
    312 x          2.253894      2.253894     0.000000    Cartesian    0.00
    312 y          6.761681      6.746174    -0.015507    Cartesian   -0.23
    312 z         11.269468     11.270016     0.000548    Cartesian    0.00
    313 x         11.269468     11.269191    -0.000278    Cartesian   -0.00
    313 y          2.253894      2.266774     0.012881    Cartesian    0.57
    313 z         -6.761681     -6.746492     0.015189    Cartesian   -0.22
    314 x         13.523362     13.590908     0.067546    Cartesian    0.50
    314 y         -0.000000     -0.005754    -0.005754    Cartesian *******
    314 z          4.507787      4.502624    -0.005163    Cartesian   -0.11
    315 x          4.507787      4.525725     0.017937    Cartesian    0.40
    315 y         -9.015574     -9.090088    -0.074514    Cartesian    0.83
    315 z         -4.507787     -4.506883     0.000905    Cartesian   -0.02
    316 x          6.761681      6.768218     0.006537    Cartesian    0.10
    316 y         -2.253894     -2.248927     0.004967    Cartesian   -0.22
    316 z         11.269468     11.281348     0.011880    Cartesian    0.11
--------------------------------------------------------------------------------


  Time to end of optimisation  =      161.4980 seconds


  Peak dynamic memory used =      92.28 MB 


  Timing analysis for GULP :

--------------------------------------------------------------------------------
  Task / Subroutine                                          Time (Seconds)
--------------------------------------------------------------------------------
  Calculation of reciprocal space energy and derivatives          0.0006
  Calculation of reciprocal space energy using symmetry           0.0009
  Calculation of real space energy and derivatives                0.0036
  Calculation of real space energy using symmetry                 0.0088
  Calculation for region 1 energy and derivatives (2-b)          86.4254
  Calculation for region 2a energy                               67.8378
  Calculation for region 2b energy                                0.0265
  Calculation and manipulation of Hessian matrix                  0.2334
  Calculation of matrix inversion                                 6.4444
  Symmetry generation of equivalent positions                     0.0046
--------------------------------------------------------------------------------
  Total CPU time                                                161.4981
--------------------------------------------------------------------------------


  Dump file written as Na3OCl.grs


  Job Finished at 19:33.55 30th November   2020                               

