********************************************************************************
*                       GENERAL UTILITY LATTICE PROGRAM                        *
*                                 Julian Gale                                  *
*                       Curtin Institute for Computation                       *
*                    School of Molecular and Life Sciences                     *
*                    Curtin University, Western Australia                      *
********************************************************************************
* Version = 5.2.0 * Last modified =  10th September 2020                       *
********************************************************************************
*  optimise     - perform optimisation run                                     *
*  conp         - constant pressure calculation                                *
*  property     - calculate properties for final geometry                      *
*  defect       - perform defect calculation after bulk run                    *
*  compare      - compare initial and final structures                         *
********************************************************************************

  Job Started  at 19:32.52 30th November   2020                               

  Number of CPUs =     1


  Total number of configurations input =      1

********************************************************************************
*  Input for Configuration =   1                                               *
********************************************************************************

  Formula = ClONa3                                                      

  Number of irreducible atoms/shells =       5


  Total number atoms/shells =       7

  Dimensionality = 3               :  Bulk   


  Symmetry :

  Crystal family                   :  Cubic       
  Crystal class  (Groth - 1921)    :  Cubic Hexakisoctahedral              

  Space group (centrosymmetric)    :  P M 3 M         

  Patterson group                  :  P m -3 m 

  Cartesian lattice vectors (Angstroms) :

        4.504000    0.000000    0.000000
        0.000000    4.504000    0.000000
        0.000000    0.000000    4.504000

  Cell parameters (Angstroms/Degrees):

  a =       4.5040    alpha =  90.0000
  b =       4.5040    beta  =  90.0000
  c =       4.5040    gamma =  90.0000

  Initial cell volume =          91.368216 Angs**3

  Temperature of configuration =   0.00     K 

  Pressure of configuration =         0.000 GPa 

  Fractional coordinates of asymmetric unit :

--------------------------------------------------------------------------------
   No.  Atomic       x           y          z         Charge      Occupancy
        Label      (Frac)      (Frac)     (Frac)        (e)         (Frac)  
--------------------------------------------------------------------------------
      1 Cl    c    0.000000    0.000000    0.000000     1.48500    1.000000    
      2 O     c    0.500000    0.500000    0.500000     0.18300    1.000000    
      3 Na    c    0.500000    0.500000    0.000000     1.00000    1.000000    
      4 Cl    s    0.000000    0.000000    0.000000    -2.48500    1.000000    
      5 O     s    0.500000    0.500000    0.500000    -2.18300    1.000000    
--------------------------------------------------------------------------------


  Constraints : 

--------------------------------------------------------------------------------
  Constraint no.      Unconstrained     Constrained    Coefficient    Offset
                         Variable         Variable
--------------------------------------------------------------------------------
           1              Strain 1        Strain 2       1.00000      0.0000
           2              Strain 1        Strain 3       1.00000      0.0000
--------------------------------------------------------------------------------


********************************************************************************
*  General input information                                                   *
********************************************************************************

  Species output for all configurations : 

--------------------------------------------------------------------------------
  Species    Type    Atomic    Atomic    Charge       Radii (Angs)     Library
                     Number     Mass       (e)     Cova   Ionic  VDW   Symbol
--------------------------------------------------------------------------------
    Na       Core       11      22.99   1.000000   0.970  0.000  2.300          
    O        Core        8      16.00   0.183000   0.730  0.000  1.360          
    O        Shell       8       0.00  -2.183000   0.730  0.000  1.360          
    Cl       Core       17      35.45   1.485000   0.990  0.000  1.650          
    Cl       Shell      17       0.00  -2.485000   0.990  0.000  1.650          
    Mg       Core       12      24.31   0.415000   1.100  0.000  0.000          
    Mg       Shell      12       0.00   1.585000   1.100  0.000  0.000          
    Ca       Core       20      40.08  -1.135000   0.990  0.000  0.000          
    Ca       Shell      20       0.00   3.135000   0.990  0.000  0.000          
    Sr       Core       38      87.62  -1.251000   1.120  0.000  0.000          
    Sr       Shell      38       0.00   3.251000   1.120  0.000  0.000          
    Ba       Core       56     137.33  -7.203000   1.340  0.000  0.000          
    Ba       Shell      56       0.00   9.203000   1.340  0.000  0.000          
--------------------------------------------------------------------------------


  Lattice summation method               =    Ewald          (3-D)
                                         =    Parry          (2-D)
                                         =    Saunders et al (1-D)
  Accuracy factor for lattice sums       =   12.000


  Analytic derivatives to be used

  Time limit = Infinity

  Maximum range for interatomic potentials =    100000.000000 Angstroms

  General interatomic potentials :

--------------------------------------------------------------------------------
Atom  Types   Potential      Parameter       Value         Units   Cutoffs(Ang)
  1     2                                                            Min /  Max 
--------------------------------------------------------------------------------
O    c O    s Spring (c-s)  Spring k 2       593.71600    eV*Ang^-2 0.000  0.800
                            Spring k 4       0.0000000    eV*Ang^-4 
--------------------------------------------------------------------------------
Cl   c Cl   s Spring (c-s)  Spring k 2       29.380000    eV*Ang^-2 0.000  0.800
                            Spring k 4       0.0000000    eV*Ang^-4 
--------------------------------------------------------------------------------
Mg   c Mg   s Spring (c-s)  Spring k 2       361.60000    eV*Ang^-2 0.000  0.800
                            Spring k 4       0.0000000    eV*Ang^-4 
--------------------------------------------------------------------------------
Ca   c Ca   s Spring (c-s)  Spring k 2       110.20000    eV*Ang^-2 0.000  0.800
                            Spring k 4       0.0000000    eV*Ang^-4 
--------------------------------------------------------------------------------
Sr   c Sr   s Spring (c-s)  Spring k 2       71.700000    eV*Ang^-2 0.000  0.800
                            Spring k 4       0.0000000    eV*Ang^-4 
--------------------------------------------------------------------------------
Ba   c Ba   s Spring (c-s)  Spring k 2       495.20000    eV*Ang^-2 0.000  0.800
                            Spring k 4       0.0000000    eV*Ang^-4 
--------------------------------------------------------------------------------
Na   c Na   c Buckingham    Buckingham A     1788.1900    eV        0.000 12.000
                            Buckingham rho  0.15900000    Ang       
                            Buckingham C     0.0000000    eV*Ang^6  
--------------------------------------------------------------------------------
Na   c O    s Buckingham    Buckingham A     1226.8400    eV        0.000 12.000
                            Buckingham rho  0.30700000    Ang       
                            Buckingham C     0.0000000    eV*Ang^6  
--------------------------------------------------------------------------------
Na   c Cl   s Buckingham    Buckingham A     2314.7000    eV        0.000 12.000
                            Buckingham rho  0.29000000    Ang       
                            Buckingham C     0.0000000    eV*Ang^6  
--------------------------------------------------------------------------------
O    s O    s Buckingham    Buckingham A     22764.300    eV        0.000 12.000
                            Buckingham rho  0.14900000    Ang       
                            Buckingham C     13.190000    eV*Ang^6  
--------------------------------------------------------------------------------
O    s Cl   s Buckingham    Buckingham A     8286.9100    eV        0.000 12.000
                            Buckingham rho  0.25900000    Ang       
                            Buckingham C     62.200000    eV*Ang^6  
--------------------------------------------------------------------------------
Cl   s Cl   s Buckingham    Buckingham A     1227.2000    eV        0.000 12.000
                            Buckingham rho  0.32100000    Ang       
                            Buckingham C     14.530000    eV*Ang^6  
--------------------------------------------------------------------------------
O    s Mg   s Buckingham    Buckingham A     1428.5000    eV        0.000 12.000
                            Buckingham rho  0.29450000    Ang       
                            Buckingham C     0.0000000    eV*Ang^6  
--------------------------------------------------------------------------------
Mg   s Cl   s Buckingham    Buckingham A     4914.5400    eV        0.000 12.000
                            Buckingham rho  0.25700000    Ang       
                            Buckingham C     0.0000000    eV*Ang^6  
--------------------------------------------------------------------------------
O    s Ca   s Buckingham    Buckingham A     1090.4000    eV        0.000 12.000
                            Buckingham rho  0.34370000    Ang       
                            Buckingham C     0.0000000    eV*Ang^6  
--------------------------------------------------------------------------------
Cl   s Ca   s Buckingham    Buckingham A     2302.0000    eV        0.000 12.000
                            Buckingham rho  0.34020000    Ang       
                            Buckingham C     0.0000000    eV*Ang^6  
--------------------------------------------------------------------------------
O    s Sr   s Buckingham    Buckingham A     959.10000    eV        0.000 12.000
                            Buckingham rho  0.37210000    Ang       
                            Buckingham C     0.0000000    eV*Ang^6  
--------------------------------------------------------------------------------
Cl   s Sr   s Buckingham    Buckingham A     2191.0900    eV        0.000 12.000
                            Buckingham rho  0.34570000    Ang       
                            Buckingham C     0.0000000    eV*Ang^6  
--------------------------------------------------------------------------------
O    s Ba   s Buckingham    Buckingham A     905.70000    eV        0.000 12.000
                            Buckingham rho  0.39760000    Ang       
                            Buckingham C     0.0000000    eV*Ang^6  
--------------------------------------------------------------------------------
Cl   s Ba   s Buckingham    Buckingham A     2704.5500    eV        0.000 12.000
                            Buckingham rho  0.35280000    Ang       
                            Buckingham C     0.0000000    eV*Ang^6  
--------------------------------------------------------------------------------

********************************************************************************
*  Output for configuration   1                                                *
********************************************************************************


  Components of energy : 

--------------------------------------------------------------------------------
  Interatomic potentials     =           5.13022605 eV    
  Monopole - monopole (real) =         -10.03624526 eV    
  Monopole - monopole (recip)=         -29.53581274 eV    
  Monopole - monopole (total)=         -39.57205800 eV    
--------------------------------------------------------------------------------
  Total lattice energy       =         -34.44183194 eV    
--------------------------------------------------------------------------------
  Total lattice energy       =           -3323.1103 kJ/(mole unit cells)
--------------------------------------------------------------------------------


  Number of variables =        1

  Maximum number of calculations  =          1000
  Maximum Hessian update interval =            10
  Maximum step size               =   1.000000000
  Maximum parameter tolerance     =   0.000010000
  Maximum function  tolerance     =   0.000010000
  Maximum gradient  tolerance     =   0.001000000
  Maximum gradient  component     =   0.010000000

  Symmetry constrained optimisation

  Symmetry used for second derivatives

  Cell parameters to be optimised using strains

  Newton-Raphson optimiser to be used

  BFGS hessian update to be used

  Lower half triangular hessian to be used

  Start of bulk optimisation :

  Cycle:      0 Energy:       -34.441832  Gnorm:      0.196570  CPU:    0.015
  ** Hessian calculated **
  Cycle:      1 Energy:       -34.441914  Gnorm:      0.000103  CPU:    0.019


  **** Optimisation achieved ****


  Final energy =     -34.44191447 eV
  Final Gnorm  =       0.00000000

  Components of energy : 

--------------------------------------------------------------------------------
  Interatomic potentials     =           5.09689708 eV    
  Monopole - monopole (real) =         -10.02781331 eV    
  Monopole - monopole (recip)=         -29.51099824 eV    
  Monopole - monopole (total)=         -39.53881155 eV    
--------------------------------------------------------------------------------
  Total lattice energy       =         -34.44191447 eV    
--------------------------------------------------------------------------------
  Total lattice energy       =           -3323.1183 kJ/(mole unit cells)
--------------------------------------------------------------------------------

  Final asymmetric unit coordinates :

--------------------------------------------------------------------------------
   No.  Atomic        x           y           z         Radius
        Label       (Frac)      (Frac)      (Frac)       (Angs) 
--------------------------------------------------------------------------------
     1  Cl    c     0.000000    0.000000    0.000000    0.000000
     2  O     c     0.500000    0.500000    0.500000    0.000000
     3  Na    c     0.500000    0.500000    0.000000    0.000000
     4  Cl    s     0.000000    0.000000    0.000000    0.000000
     5  O     s     0.500000    0.500000    0.500000    0.000000
--------------------------------------------------------------------------------

  Final Cartesian lattice vectors (Angstroms) :

        4.507787    0.000000    0.000000
        0.000000    4.507787    0.000000
        0.000000    0.000000    4.507787


  Final cell parameters and derivatives :

--------------------------------------------------------------------------------
       a            4.507787 Angstrom     dE/de1(xx)     0.000000 eV/strain
       b            4.507787 Angstrom     dE/de2(yy)     0.000000 eV/strain
       c            4.507787 Angstrom     dE/de3(zz)     0.000000 eV/strain
       alpha       90.000000 Degrees      dE/de4(yz)     0.000000 eV/strain
       beta        90.000000 Degrees      dE/de5(xz)     0.000000 eV/strain
       gamma       90.000000 Degrees      dE/de6(xy)     0.000000 eV/strain
--------------------------------------------------------------------------------

  Primitive cell volume =            91.598892 Angs**3

  Density of cell =      2.183054 g/cm**3

  Non-primitive cell volume =            91.598892 Angs**3


  Final internal derivatives :

--------------------------------------------------------------------------------
   No.  Atomic          a             b             c           Radius
        Label          (eV)          (eV)          (eV)        (eV/Angs)
--------------------------------------------------------------------------------
      1 Cl    c       0.000000      0.000000      0.000000      0.000000
      2 O     c       0.000000      0.000000      0.000000      0.000000
      3 Na    c       0.000000      0.000000      0.000000      0.000000
      4 Cl    s       0.000000      0.000000      0.000000      0.000000
      5 O     s       0.000000      0.000000      0.000000      0.000000
--------------------------------------------------------------------------------
  Maximum abs         0.000000      0.000000      0.000000      0.000000
--------------------------------------------------------------------------------

  Comparison of initial and final structures : 

--------------------------------------------------------------------------------
  Parameter   Initial value   Final value   Difference    Units      Percent
--------------------------------------------------------------------------------
    Volume        91.368216     91.598892     0.230676    Angs**3      0.25
    a              4.504000      4.507787     0.003787    Angstroms    0.08
    b              4.504000      4.507787     0.003787    Angstroms    0.08
    c              4.504000      4.507787     0.003787    Angstroms    0.08
    alpha         90.000000     90.000000     0.000000    Degrees      0.00
    beta          90.000000     90.000000     0.000000    Degrees      0.00
    gamma         90.000000     90.000000     0.000000    Degrees      0.00
      1 x          0.000000      0.000000     0.000000    Fractional   0.00
      1 y          0.000000      0.000000     0.000000    Fractional   0.00
      1 z          0.000000      0.000000     0.000000    Fractional   0.00
      2 x          0.500000      0.500000     0.000000    Fractional   0.00
      2 y          0.500000      0.500000     0.000000    Fractional   0.00
      2 z          0.500000      0.500000     0.000000    Fractional   0.00
      3 x          0.500000      0.500000     0.000000    Fractional   0.00
      3 y          0.500000      0.500000     0.000000    Fractional   0.00
      3 z          0.000000      0.000000     0.000000    Fractional   0.00
      4 x          0.000000      0.000000     0.000000    Fractional   0.00
      4 y          0.000000      0.000000     0.000000    Fractional   0.00
      4 z          0.000000      0.000000     0.000000    Fractional   0.00
      5 x          0.500000      0.500000     0.000000    Fractional   0.00
      5 y          0.500000      0.500000     0.000000    Fractional   0.00
      5 z          0.500000      0.500000     0.000000    Fractional   0.00
--------------------------------------------------------------------------------


  Born effective charge tensors : 

-------------------------------------------------------------------------------
  Atom             x           y             z
-------------------------------------------------------------------------------
    1 Cl    x      -1.0181     -0.0000      0.0000
            y      -0.0000     -1.0181      0.0000
            z       0.0000      0.0000     -1.0181
-------------------------------------------------------------------------------
    2 O     x      -2.2647      0.0000     -0.0000
            y       0.0000     -2.2647     -0.0000
            z      -0.0000     -0.0000     -2.2647
-------------------------------------------------------------------------------
    3 Na    x       1.2258     -0.0000      0.0000
            y      -0.0000      1.2258     -0.0000
            z       0.0000     -0.0000      0.8313
-------------------------------------------------------------------------------




  Elastic Constant Matrix: (Units=GPa)

-------------------------------------------------------------------------------
  Indices      1         2         3         4         5         6    
-------------------------------------------------------------------------------
       1     95.8177   20.0737   20.0737   -0.0000   -0.0000    0.0000
       2     20.0737   95.8177   20.0737   -0.0000   -0.0000    0.0000
       3     20.0737   20.0737   95.8177   -0.0000   -0.0000    0.0000
       4     -0.0000   -0.0000   -0.0000   20.0737   -0.0000    0.0000
       5     -0.0000   -0.0000   -0.0000   -0.0000   20.0737    0.0000
       6      0.0000    0.0000    0.0000    0.0000    0.0000   20.0737
-------------------------------------------------------------------------------


  Elastic Compliance Matrix: (Units=1/GPa)

-------------------------------------------------------------------------------
  Indices      1         2         3         4         5         6    
-------------------------------------------------------------------------------
       1    0.011253 -0.001949 -0.001949  0.000000  0.000000 -0.000000
       2   -0.001949  0.011253 -0.001949  0.000000  0.000000  0.000000
       3   -0.001949 -0.001949  0.011253  0.000000  0.000000 -0.000000
       4    0.000000  0.000000  0.000000  0.049816  0.000000 -0.000000
       5    0.000000  0.000000  0.000000  0.000000  0.049816 -0.000000
       6   -0.000000  0.000000 -0.000000 -0.000000 -0.000000  0.049816
-------------------------------------------------------------------------------

  Mechanical properties :

-------------------------------------------------------------------------------
  Convention :                    Reuss         Voigt         Hill
-------------------------------------------------------------------------------
  Bulk  Modulus (GPa)     =      45.32174      45.32174      45.32174
  Shear Modulus (GPa)     =      24.72085      27.19304      25.95695
-------------------------------------------------------------------------------
  Velocity S-wave (km/s)  =       3.36511       3.52937       3.44822
  Velocity P-wave (km/s)  =       5.98827       6.11304       6.05098
-------------------------------------------------------------------------------
  Compressibility (1/GPa) =    0.02206447
-------------------------------------------------------------------------------
  Stress axis :                     x             y             z
-------------------------------------------------------------------------------
  Youngs Moduli (GPa)     =      88.86373      88.86373      88.86373
-------------------------------------------------------------------------------
  Poissons Ratio (x)      =                     0.17321       0.17321
  Poissons Ratio (y)      =       0.17321                     0.17321
  Poissons Ratio (z)      =       0.17321       0.17321
-------------------------------------------------------------------------------


  Piezoelectric Strain Matrix: (Units=C/m**2)

-------------------------------------------------------------------------------
  Indices      1         2         3         4         5         6    
-------------------------------------------------------------------------------
       x    -0.00000  -0.00000  -0.00000   0.00000  -0.00000  -0.00000
       y    -0.00000  -0.00000   0.00000  -0.00000   0.00000   0.00000
       z    -0.00000  -0.00000  -0.00000  -0.00000   0.00000   0.00000
-------------------------------------------------------------------------------


  Piezoelectric Stress Matrix: (Units=10**-11 C/N)

-------------------------------------------------------------------------------
  Indices      1         2         3         4         5         6    
-------------------------------------------------------------------------------
       x    -0.00000   0.00000   0.00000   0.00000  -0.00000  -0.00000
       y    -0.00000  -0.00000   0.00000  -0.00000   0.00000   0.00000
       z     0.00000   0.00000  -0.00000  -0.00000   0.00000   0.00000
-------------------------------------------------------------------------------


  Static dielectric constant tensor : 

-------------------------------------------------------------------------------
              x         y         z
-------------------------------------------------------------------------------
       x    22.84729   0.00000   0.00000
       y     0.00000  22.84729  -0.00000
       z     0.00000  -0.00000  22.84729
--------------------------------------------------------------------------------

  High frequency dielectric constant tensor : 

-------------------------------------------------------------------------------
              x         y         z
-------------------------------------------------------------------------------
       x     1.47557   0.00000  -0.00000
       y     0.00000   1.47557  -0.00000
       z    -0.00000  -0.00000   1.47557
-------------------------------------------------------------------------------

  Static refractive indices : 

-------------------------------------------------------------------------------
    1 =    4.77988      2 =    4.77988      3 =    4.77988
-------------------------------------------------------------------------------

  High frequency refractive indices : 

-------------------------------------------------------------------------------
    1 =    1.21473      2 =    1.21473      3 =    1.21473
-------------------------------------------------------------------------------


  Time to end of optimisation =       0.0275 seconds

********************************************************************************
*  Defect calculation for configuration   1 :                                  *
********************************************************************************

  Total number of defects =      3

  Total charge on defect  =  -1.00

  Defect centre is at   0.5000   0.3800   0.1200  Frac

  Region 1 radius =  12.0000      Number of ions =    549

  Number of symmetry inequivalent region 1 ions  =    319

  Region 2 radius =  16.0000      Number of ions =    758

  Number of symmetry inequivalent region 2a ions =    413

  Region 2a mode = 4 : screened electrostatics due to region 1 
                       neglect correction to region 1 forces from 2a
                       region 2a displacements based on defects only

  Region 2a ions will only interact with defects in region 1

  Vacancies:

--------------------------------------------------------------------------------
    Specification type     Symbol/Number         x          y          z
--------------------------------------------------------------------------------
    Fractional                               0.500000   0.500000   0.000000
    Fractional                               0.500000   0.000000   0.500000
--------------------------------------------------------------------------------

  Interstitials:

--------------------------------------------------------------------------------
    Specification type     Symbol/Number         x          y          z
--------------------------------------------------------------------------------
    Atom/Fractional         Na               0.500000   0.380000   0.120000
--------------------------------------------------------------------------------


  Symmetry reduced region 1 (Relative to defect centre) :

--------------------------------------------------------------------------------
   No.   Atomic       x            y             z       Radius  Multiplicity   
         Label      (Angs)       (Angs)        (Angs)    (Angs)     
--------------------------------------------------------------------------------
     1  Na    c      0.0000       0.0000       0.0000    0.0000     1    Defect
     2  O     c      0.0000       0.5409 *     1.7130 *  0.0000     1          
     3  O     c      0.0000       0.5409 *    -2.7948 *  0.0000     1          
     4  Cl    c      2.2539 *    -1.7130 *    -0.5409 *  0.0000     2          
     5  Na    c      2.2539 *     0.5409 *     1.7130 *  0.0000     2          
     6  Na    c      0.0000      -1.7130 *    -2.7948 *  0.0000     1          
     7  Na    c      0.0000       2.7948 *     1.7130 *  0.0000     1          
     8  Na    c      2.2539 *     0.5409 *    -2.7948 *  0.0000     2          
     9  Cl    c      2.2539 *     2.7948 *    -0.5409 *  0.0000     2          
    10  Na    c      0.0000       2.7948 *    -2.7948 *  0.0000     1          
    11  Na    c      0.0000       0.5409 *     3.9669 *  0.0000     1          
    12  Na    c      0.0000      -3.9669 *    -0.5409 *  0.0000     1          
    13  O     c      0.0000      -3.9669 *     1.7130 *  0.0000     1          
    14  Na    c     -4.5078 *     0.5409 *    -0.5409 *  0.0000     2          
    15  O     c      0.0000      -3.9669 *    -2.7948 *  0.0000     1          
    16  O     c     -4.5078 *     0.5409 *     1.7130 *  0.0000     2          
    17  Cl    c      2.2539 *    -1.7130 *     3.9669 *  0.0000     2          
    18  Na    c      2.2539 *    -3.9669 *     1.7130 *  0.0000     2          
    19  Na    c      0.0000       0.5409 *    -5.0487 *  0.0000     1          
    20  Na    c      0.0000       5.0487 *    -0.5409 *  0.0000     1          
    21  Na    c     -4.5078 *    -1.7130 *     1.7130 *  0.0000     2          
    22  O     c     -4.5078 *     0.5409 *    -2.7948 *  0.0000     2          
    23  O     c      0.0000       5.0487 *     1.7130 *  0.0000     1          
    24  Cl    c      2.2539 *     2.7948 *     3.9669 *  0.0000     2          
    25  Na    c      2.2539 *    -3.9669 *    -2.7948 *  0.0000     2          
    26  Na    c     -4.5078 *     2.7948 *     1.7130 *  0.0000     2          
    27  Na    c     -4.5078 *    -1.7130 *    -2.7948 *  0.0000     2          
    28  Na    c      0.0000      -3.9669 *     3.9669 *  0.0000     1          
    29  O     c      0.0000       5.0487 *    -2.7948 *  0.0000     1          
    30  Cl    c      2.2539 *    -1.7130 *    -5.0487 *  0.0000     2          
    31  Na    c      2.2539 *     5.0487 *     1.7130 *  0.0000     2          
    32  Na    c     -4.5078 *     2.7948 *    -2.7948 *  0.0000     2          
    33  Na    c     -4.5078 *     0.5409 *     3.9669 *  0.0000     2          
    34  Na    c     -4.5078 *    -3.9669 *    -0.5409 *  0.0000     2          
    35  Cl    c      2.2539 *     2.7948 *    -5.0487 *  0.0000     2          
    36  Na    c      2.2539 *     5.0487 *    -2.7948 *  0.0000     2          
    37  O     c      0.0000       0.5409 *     6.2207 *  0.0000     1          
    38  O     c     -4.5078 *    -3.9669 *     1.7130 *  0.0000     2          
    39  Na    c      0.0000       5.0487 *     3.9669 *  0.0000     1          
    40  Na    c      0.0000      -3.9669 *    -5.0487 *  0.0000     1          
    41  Na    c      0.0000      -1.7130 *     6.2207 *  0.0000     1          
    42  Na    c      0.0000      -6.2207 *     1.7130 *  0.0000     1          
    43  O     c     -4.5078 *    -3.9669 *    -2.7948 *  0.0000     2          
    44  Cl    c      2.2539 *    -6.2207 *    -0.5409 *  0.0000     2          
    45  Na    c      2.2539 *     0.5409 *     6.2207 *  0.0000     2          
    46  Na    c     -4.5078 *     0.5409 *    -5.0487 *  0.0000     2          
    47  Na    c     -4.5078 *     5.0487 *    -0.5409 *  0.0000     2          
    48  Na    c      0.0000       2.7948 *     6.2207 *  0.0000     1          
    49  Na    c      0.0000      -6.2207 *    -2.7948 *  0.0000     1          
    50  O     c     -4.5078 *     5.0487 *     1.7130 *  0.0000     2          
    51  Cl    c      6.7617 *    -1.7130 *    -0.5409 *  0.0000     2          
    52  Na    c      6.7617 *     0.5409 *     1.7130 *  0.0000     2          
    53  Na    c      0.0000       5.0487 *    -5.0487 *  0.0000     1          
    54  Na    c     -4.5078 *    -3.9669 *     3.9669 *  0.0000     2          
    55  O     c      0.0000       0.5409 *    -7.3026 *  0.0000     1          
    56  O     c     -4.5078 *     5.0487 *    -2.7948 *  0.0000     2          
    57  Cl    c      6.7617 *     2.7948 *    -0.5409 *  0.0000     2          
    58  Na    c      6.7617 *     0.5409 *    -2.7948 *  0.0000     2          
    59  O     c      0.0000      -3.9669 *     6.2207 *  0.0000     1          
    60  Na    c      0.0000       7.3026 *     1.7130 *  0.0000     1          
    61  Na    c      0.0000      -1.7130 *    -7.3026 *  0.0000     1          
    62  Cl    c      2.2539 *     7.3026 *    -0.5409 *  0.0000     2          
    63  Na    c      2.2539 *     0.5409 *    -7.3026 *  0.0000     2          
    64  O     c      4.5078 *     0.5409 *     6.2207 *  0.0000     2          
    65  Cl    c      2.2539 *    -6.2207 *     3.9669 *  0.0000     2          
    66  Na    c      2.2539 *    -3.9669 *     6.2207 *  0.0000     2          
    67  Na    c      0.0000       2.7948 *    -7.3026 *  0.0000     1          
    68  Na    c      0.0000       7.3026 *    -2.7948 *  0.0000     1          
    69  Na    c     -4.5078 *     5.0487 *     3.9669 *  0.0000     2          
    70  Na    c      4.5078 *    -3.9669 *    -5.0487 *  0.0000     2          
    71  Na    c     -4.5078 *    -1.7130 *     6.2207 *  0.0000     2          
    72  Na    c     -4.5078 *    -6.2207 *     1.7130 *  0.0000     2          
    73  O     c      0.0000       5.0487 *     6.2207 *  0.0000     1          
    74  Cl    c      6.7617 *    -1.7130 *     3.9669 *  0.0000     2          
    75  Na    c      6.7617 *    -3.9669 *     1.7130 *  0.0000     2          
    76  Na    c     -4.5078 *     2.7948 *     6.2207 *  0.0000     2          
    77  Na    c     -4.5078 *    -6.2207 *    -2.7948 *  0.0000     2          
    78  O     c      0.0000      -3.9669 *    -7.3026 *  0.0000     1          
    79  Cl    c      2.2539 *    -6.2207 *    -5.0487 *  0.0000     2          
    80  Cl    c      6.7617 *     2.7948 *     3.9669 *  0.0000     2          
    81  Na    c      2.2539 *     5.0487 *     6.2207 *  0.0000     2          
    82  Na    c      6.7617 *    -3.9669 *    -2.7948 *  0.0000     2          
    83  Na    c      4.5078 *     5.0487 *    -5.0487 *  0.0000     2          
    84  Na    c      0.0000       0.5409 *     8.4746 *  0.0000     1          
    85  Na    c      0.0000      -8.4746 *    -0.5409 *  0.0000     1          
    86  O     c     -4.5078 *     0.5409 *    -7.3026 *  0.0000     2          
    87  Cl    c      2.2539 *     7.3026 *     3.9669 *  0.0000     2          
    88  Na    c      2.2539 *    -3.9669 *    -7.3026 *  0.0000     2          
    89  Cl    c      6.7617 *    -1.7130 *    -5.0487 *  0.0000     2          
    90  Na    c      6.7617 *     5.0487 *     1.7130 *  0.0000     2          
    91  O     c     -4.5078 *    -3.9669 *     6.2207 *  0.0000     2          
    92  O     c      0.0000      -8.4746 *     1.7130 *  0.0000     1          
    93  Na    c      4.5078 *     7.3026 *     1.7130 *  0.0000     2          
    94  Na    c      4.5078 *    -1.7130 *    -7.3026 *  0.0000     2          
    95  Na    c      0.0000      -6.2207 *     6.2207 *  0.0000     1          
    96  O     c      0.0000       5.0487 *    -7.3026 *  0.0000     1          
    97  Cl    c      6.7617 *     2.7948 *    -5.0487 *  0.0000     2          
    98  Na    c      6.7617 *     5.0487 *    -2.7948 *  0.0000     2          
    99  O     c      0.0000      -8.4746 *    -2.7948 *  0.0000     1          
   100  Cl    c      2.2539 *    -1.7130 *     8.4746 *  0.0000     2          
   101  Na    c      2.2539 *    -8.4746 *     1.7130 *  0.0000     2          
   102  Na    c      4.5078 *     2.7948 *    -7.3026 *  0.0000     2          
   103  Na    c      4.5078 *     7.3026 *    -2.7948 *  0.0000     2          
   104  Na    c      9.0156 *     0.5409 *    -0.5409 *  0.0000     2          
   105  Cl    c      2.2539 *     7.3026 *    -5.0487 *  0.0000     2          
   106  Na    c      2.2539 *     5.0487 *    -7.3026 *  0.0000     2          
   107  O     c      9.0156 *     0.5409 *     1.7130 *  0.0000     2          
   108  O     c      4.5078 *     5.0487 *     6.2207 *  0.0000     2          
   109  Cl    c      2.2539 *     2.7948 *     8.4746 *  0.0000     2          
   110  Cl    c      6.7617 *    -6.2207 *    -0.5409 *  0.0000     2          
   111  Na    c      2.2539 *    -8.4746 *    -2.7948 *  0.0000     2          
   112  Na    c      6.7617 *     0.5409 *     6.2207 *  0.0000     2          
   113  Na    c      9.0156 *    -1.7130 *     1.7130 *  0.0000     2          
   114  Na    c      0.0000      -3.9669 *     8.4746 *  0.0000     1          
   115  Na    c      0.0000      -8.4746 *     3.9669 *  0.0000     1          
   116  O     c      4.5078 *    -3.9669 *    -7.3026 *  0.0000     2          
   117  O     c      9.0156 *     0.5409 *    -2.7948 *  0.0000     2          
   118  Na    c      0.0000       0.5409 *    -9.5565 *  0.0000     1          
   119  Na    c      0.0000       9.5565 *    -0.5409 *  0.0000     1          
   120  Na    c      0.0000       7.3026 *     6.2207 *  0.0000     1          
   121  Na    c      0.0000      -6.2207 *    -7.3026 *  0.0000     1          
   122  Na    c      9.0156 *     2.7948 *     1.7130 *  0.0000     2          
   123  Na    c      9.0156 *    -1.7130 *    -2.7948 *  0.0000     2          
   124  Na    c      4.5078 *     0.5409 *     8.4746 *  0.0000     2          
   125  Na    c      4.5078 *    -8.4746 *    -0.5409 *  0.0000     2          
   126  O     c      0.0000       9.5565 *     1.7130 *  0.0000     1          
   127  O     c     -4.5078 *    -8.4746 *     1.7130 *  0.0000     2          
   128  Na    c      9.0156 *     2.7948 *    -2.7948 *  0.0000     2          
   129  Na    c      9.0156 *     0.5409 *     3.9669 *  0.0000     2          
   130  Na    c      9.0156 *    -3.9669 *    -0.5409 *  0.0000     2          
   131  Na    c      0.0000       5.0487 *     8.4746 *  0.0000     1          
   132  Na    c      0.0000      -8.4746 *    -5.0487 *  0.0000     1          
   133  Na    c     -4.5078 *    -6.2207 *     6.2207 *  0.0000     2          
   134  O     c      0.0000       9.5565 *    -2.7948 *  0.0000     1          
   135  O     c     -4.5078 *     5.0487 *    -7.3026 *  0.0000     2          
   136  Cl    c      2.2539 *    -1.7130 *    -9.5565 *  0.0000     2          
   137  Na    c      2.2539 *     9.5565 *     1.7130 *  0.0000     2          
   138  Cl    c      6.7617 *     7.3026 *    -0.5409 *  0.0000     2          
   139  Na    c      6.7617 *     0.5409 *    -7.3026 *  0.0000     2          
   140  O     c      9.0156 *    -3.9669 *     1.7130 *  0.0000     2          
   141  O     c     -4.5078 *    -8.4746 *    -2.7948 *  0.0000     2          
   142  Cl    c      6.7617 *    -6.2207 *     3.9669 *  0.0000     2          
   143  Na    c      6.7617 *    -3.9669 *     6.2207 *  0.0000     2          
   144  Cl    c      2.2539 *     2.7948 *    -9.5565 *  0.0000     2          
   145  Na    c      2.2539 *     9.5565 *    -2.7948 *  0.0000     2          
   146  O     c      9.0156 *    -3.9669 *    -2.7948 *  0.0000     2          
   147  Na    c      0.0000       7.3026 *    -7.3026 *  0.0000     1          
   148  Na    c      0.0000       9.5565 *     3.9669 *  0.0000     1          
   149  Na    c      0.0000      -3.9669 *    -9.5565 *  0.0000     1          
   150  Na    c      9.0156 *     0.5409 *    -5.0487 *  0.0000     2          
   151  Na    c      9.0156 *     5.0487 *    -0.5409 *  0.0000     2          
   152  Na    c     -4.5078 *    -3.9669 *     8.4746 *  0.0000     2          
   153  Na    c     -4.5078 *    -8.4746 *     3.9669 *  0.0000     2          
   154  O     c      9.0156 *     5.0487 *     1.7130 *  0.0000     2          
   155  Cl    c      6.7617 *    -6.2207 *    -5.0487 *  0.0000     2          
   156  Na    c      6.7617 *     5.0487 *     6.2207 *  0.0000     2          
   157  O     c      0.0000      -8.4746 *     6.2207 *  0.0000     1          
   158  Na    c      4.5078 *     0.5409 *    -9.5565 *  0.0000     2          
   159  Na    c      4.5078 *     9.5565 *    -0.5409 *  0.0000     2          
   160  Na    c      4.5078 *     7.3026 *     6.2207 *  0.0000     2          
   161  Na    c      4.5078 *    -6.2207 *    -7.3026 *  0.0000     2          
   162  Na    c      9.0156 *    -3.9669 *     3.9669 *  0.0000     2          
   163  O     c     -4.5078 *     9.5565 *     1.7130 *  0.0000     2          
   164  O     c      9.0156 *     5.0487 *    -2.7948 *  0.0000     2          
   165  Cl    c      6.7617 *     7.3026 *     3.9669 *  0.0000     2          
   166  Na    c      6.7617 *    -3.9669 *    -7.3026 *  0.0000     2          
   167  O     c      0.0000       0.5409 *    10.7285 *  0.0000     1          
   168  Cl    c      2.2539 *    -6.2207 *     8.4746 *  0.0000     2          
   169  Na    c      2.2539 *    -8.4746 *     6.2207 *  0.0000     2          
   170  Na    c      0.0000       5.0487 *    -9.5565 *  0.0000     1          
   171  Na    c      0.0000       9.5565 *    -5.0487 *  0.0000     1          
   172  Na    c     -4.5078 *    -8.4746 *    -5.0487 *  0.0000     2          
   173  Na    c      4.5078 *     5.0487 *     8.4746 *  0.0000     2          
   174  Na    c      0.0000      -1.7130 *    10.7285 *  0.0000     1          
   175  Na    c      0.0000     -10.7285 *     1.7130 *  0.0000     1          
   176  O     c     -4.5078 *     9.5565 *    -2.7948 *  0.0000     2          
   177  O     c      9.0156 *     0.5409 *     6.2207 *  0.0000     2          
   178  Cl    c      2.2539 *   -10.7285 *    -0.5409 *  0.0000     2          
   179  Cl    c      6.7617 *    -1.7130 *     8.4746 *  0.0000     2          
   180  Na    c      2.2539 *     0.5409 *    10.7285 *  0.0000     2          
   181  Na    c      6.7617 *    -8.4746 *     1.7130 *  0.0000     2          
   182  Na    c      9.0156 *     5.0487 *     3.9669 *  0.0000     2          
   183  Na    c      9.0156 *    -3.9669 *    -5.0487 *  0.0000     2          
   184  Na    c      0.0000       2.7948 *    10.7285 *  0.0000     1          
   185  Na    c      0.0000     -10.7285 *    -2.7948 *  0.0000     1          
   186  Na    c      9.0156 *    -1.7130 *     6.2207 *  0.0000     2          
   187  Na    c      9.0156 *    -6.2207 *     1.7130 *  0.0000     2          
   188  Cl    c      6.7617 *     7.3026 *    -5.0487 *  0.0000     2          
   189  Na    c      6.7617 *     5.0487 *    -7.3026 *  0.0000     2          
   190  O     c      0.0000      -8.4746 *    -7.3026 *  0.0000     1          
   191  Cl    c      6.7617 *     2.7948 *     8.4746 *  0.0000     2          
   192  Na    c      6.7617 *    -8.4746 *    -2.7948 *  0.0000     2          
   193  Na    c      4.5078 *     7.3026 *    -7.3026 *  0.0000     2          
   194  Na    c     -4.5078 *     9.5565 *     3.9669 *  0.0000     2          
   195  Na    c     -4.5078 *    -3.9669 *    -9.5565 *  0.0000     2          
   196  Na    c      9.0156 *     2.7948 *     6.2207 *  0.0000     2          
   197  Na    c      9.0156 *    -6.2207 *    -2.7948 *  0.0000     2          
   198  O     c      0.0000       9.5565 *     6.2207 *  0.0000     1          
   199  Cl    c     11.2695 *    -1.7130 *    -0.5409 *  0.0000     2          
   200  Na    c     11.2695 *     0.5409 *     1.7130 *  0.0000     2          
   201  Cl    c      2.2539 *     7.3026 *     8.4746 *  0.0000     2          
   202  Na    c      2.2539 *    -8.4746 *    -7.3026 *  0.0000     2          
   203  O     c      0.0000      -3.9669 *    10.7285 *  0.0000     1          
   204  O     c      4.5078 *    -8.4746 *     6.2207 *  0.0000     2          
   205  Na    c      9.0156 *     5.0487 *    -5.0487 *  0.0000     2          
   206  O     c      9.0156 *     0.5409 *    -7.3026 *  0.0000     2          
   207  Cl    c      2.2539 *    -6.2207 *    -9.5565 *  0.0000     2          
   208  Cl    c     11.2695 *     2.7948 *    -0.5409 *  0.0000     2          
   209  Na    c      2.2539 *     9.5565 *     6.2207 *  0.0000     2          
   210  Na    c     11.2695 *     0.5409 *    -2.7948 *  0.0000     2          
   211  O     c      9.0156 *    -3.9669 *     6.2207 *  0.0000     2          
   212  O     c      4.5078 *     0.5409 *    10.7285 *  0.0000     2          
   213  Cl    c      2.2539 *   -10.7285 *     3.9669 *  0.0000     2          
   214  Na    c      2.2539 *    -3.9669 *    10.7285 *  0.0000     2          
   215  Na    c      4.5078 *     5.0487 *    -9.5565 *  0.0000     2          
   216  Na    c      4.5078 *     9.5565 *    -5.0487 *  0.0000     2          
   217  Na    c      9.0156 *     7.3026 *     1.7130 *  0.0000     2          
   218  Na    c      9.0156 *    -1.7130 *    -7.3026 *  0.0000     2          
   219  Na    c      4.5078 *    -1.7130 *    10.7285 *  0.0000     2          
   220  Na    c      4.5078 *   -10.7285 *     1.7130 *  0.0000     2          
   221  O     c      0.0000       0.5409 *   -11.8104 *  0.0000     1          
   222  Cl    c      6.7617 *    -1.7130 *    -9.5565 *  0.0000     2          
   223  Na    c      6.7617 *     9.5565 *     1.7130 *  0.0000     2          
   224  O     c      0.0000       5.0487 *    10.7285 *  0.0000     1          
   225  Na    c      9.0156 *     2.7948 *    -7.3026 *  0.0000     2          
   226  Na    c      0.0000      11.8104 *     1.7130 *  0.0000     1          
   227  Na    c      0.0000      -1.7130 *   -11.8104 *  0.0000     1          
   228  Na    c      9.0156 *     7.3026 *    -2.7948 *  0.0000     2          
   229  Na    c      4.5078 *     2.7948 *    10.7285 *  0.0000     2          
   230  Na    c      4.5078 *   -10.7285 *    -2.7948 *  0.0000     2          
   231  Na    c      0.0000      -8.4746 *     8.4746 *  0.0000     1          
   232  O     s      0.0000       0.5409 *     1.7130 *  0.0000     1          
   233  O     s      0.0000       0.5409 *    -2.7948 *  0.0000     1          
   234  Cl    s      2.2539 *    -1.7130 *    -0.5409 *  0.0000     2          
   235  Cl    s      2.2539 *     2.7948 *    -0.5409 *  0.0000     2          
   236  O     s      0.0000      -3.9669 *     1.7130 *  0.0000     1          
   237  O     s      0.0000      -3.9669 *    -2.7948 *  0.0000     1          
   238  O     s     -4.5078 *     0.5409 *     1.7130 *  0.0000     2          
   239  Cl    s      2.2539 *    -1.7130 *     3.9669 *  0.0000     2          
   240  O     s     -4.5078 *     0.5409 *    -2.7948 *  0.0000     2          
   241  O     s      0.0000       5.0487 *     1.7130 *  0.0000     1          
   242  Cl    s      2.2539 *     2.7948 *     3.9669 *  0.0000     2          
   243  O     s      0.0000       5.0487 *    -2.7948 *  0.0000     1          
   244  Cl    s      2.2539 *    -1.7130 *    -5.0487 *  0.0000     2          
   245  Cl    s      2.2539 *     2.7948 *    -5.0487 *  0.0000     2          
   246  O     s      0.0000       0.5409 *     6.2207 *  0.0000     1          
   247  O     s     -4.5078 *    -3.9669 *     1.7130 *  0.0000     2          
   248  O     s     -4.5078 *    -3.9669 *    -2.7948 *  0.0000     2          
   249  Cl    s      2.2539 *    -6.2207 *    -0.5409 *  0.0000     2          
   250  O     s     -4.5078 *     5.0487 *     1.7130 *  0.0000     2          
   251  Cl    s      6.7617 *    -1.7130 *    -0.5409 *  0.0000     2          
   252  O     s      0.0000       0.5409 *    -7.3026 *  0.0000     1          
   253  O     s     -4.5078 *     5.0487 *    -2.7948 *  0.0000     2          
   254  Cl    s      6.7617 *     2.7948 *    -0.5409 *  0.0000     2          
   255  O     s      0.0000      -3.9669 *     6.2207 *  0.0000     1          
   256  Cl    s      2.2539 *     7.3026 *    -0.5409 *  0.0000     2          
   257  O     s      4.5078 *     0.5409 *     6.2207 *  0.0000     2          
   258  Cl    s      2.2539 *    -6.2207 *     3.9669 *  0.0000     2          
   259  O     s      0.0000       5.0487 *     6.2207 *  0.0000     1          
   260  Cl    s      6.7617 *    -1.7130 *     3.9669 *  0.0000     2          
   261  O     s      0.0000      -3.9669 *    -7.3026 *  0.0000     1          
   262  Cl    s      2.2539 *    -6.2207 *    -5.0487 *  0.0000     2          
   263  Cl    s      6.7617 *     2.7948 *     3.9669 *  0.0000     2          
   264  O     s     -4.5078 *     0.5409 *    -7.3026 *  0.0000     2          
   265  Cl    s      2.2539 *     7.3026 *     3.9669 *  0.0000     2          
   266  Cl    s      6.7617 *    -1.7130 *    -5.0487 *  0.0000     2          
   267  O     s     -4.5078 *    -3.9669 *     6.2207 *  0.0000     2          
   268  O     s      0.0000      -8.4746 *     1.7130 *  0.0000     1          
   269  O     s      0.0000       5.0487 *    -7.3026 *  0.0000     1          
   270  Cl    s      6.7617 *     2.7948 *    -5.0487 *  0.0000     2          
   271  O     s      0.0000      -8.4746 *    -2.7948 *  0.0000     1          
   272  Cl    s      2.2539 *    -1.7130 *     8.4746 *  0.0000     2          
   273  Cl    s      2.2539 *     7.3026 *    -5.0487 *  0.0000     2          
   274  O     s      9.0156 *     0.5409 *     1.7130 *  0.0000     2          
   275  O     s      4.5078 *     5.0487 *     6.2207 *  0.0000     2          
   276  Cl    s      2.2539 *     2.7948 *     8.4746 *  0.0000     2          
   277  Cl    s      6.7617 *    -6.2207 *    -0.5409 *  0.0000     2          
   278  O     s      4.5078 *    -3.9669 *    -7.3026 *  0.0000     2          
   279  O     s      9.0156 *     0.5409 *    -2.7948 *  0.0000     2          
   280  O     s      0.0000       9.5565 *     1.7130 *  0.0000     1          
   281  O     s     -4.5078 *    -8.4746 *     1.7130 *  0.0000     2          
   282  O     s      0.0000       9.5565 *    -2.7948 *  0.0000     1          
   283  O     s     -4.5078 *     5.0487 *    -7.3026 *  0.0000     2          
   284  Cl    s      2.2539 *    -1.7130 *    -9.5565 *  0.0000     2          
   285  Cl    s      6.7617 *     7.3026 *    -0.5409 *  0.0000     2          
   286  O     s      9.0156 *    -3.9669 *     1.7130 *  0.0000     2          
   287  O     s     -4.5078 *    -8.4746 *    -2.7948 *  0.0000     2          
   288  Cl    s      6.7617 *    -6.2207 *     3.9669 *  0.0000     2          
   289  Cl    s      2.2539 *     2.7948 *    -9.5565 *  0.0000     2          
   290  O     s      9.0156 *    -3.9669 *    -2.7948 *  0.0000     2          
   291  O     s      9.0156 *     5.0487 *     1.7130 *  0.0000     2          
   292  Cl    s      6.7617 *    -6.2207 *    -5.0487 *  0.0000     2          
   293  O     s      0.0000      -8.4746 *     6.2207 *  0.0000     1          
   294  O     s     -4.5078 *     9.5565 *     1.7130 *  0.0000     2          
   295  O     s      9.0156 *     5.0487 *    -2.7948 *  0.0000     2          
   296  Cl    s      6.7617 *     7.3026 *     3.9669 *  0.0000     2          
   297  O     s      0.0000       0.5409 *    10.7285 *  0.0000     1          
   298  Cl    s      2.2539 *    -6.2207 *     8.4746 *  0.0000     2          
   299  O     s     -4.5078 *     9.5565 *    -2.7948 *  0.0000     2          
   300  O     s      9.0156 *     0.5409 *     6.2207 *  0.0000     2          
   301  Cl    s      2.2539 *   -10.7285 *    -0.5409 *  0.0000     2          
   302  Cl    s      6.7617 *    -1.7130 *     8.4746 *  0.0000     2          
   303  Cl    s      6.7617 *     7.3026 *    -5.0487 *  0.0000     2          
   304  O     s      0.0000      -8.4746 *    -7.3026 *  0.0000     1          
   305  Cl    s      6.7617 *     2.7948 *     8.4746 *  0.0000     2          
   306  O     s      0.0000       9.5565 *     6.2207 *  0.0000     1          
   307  Cl    s     11.2695 *    -1.7130 *    -0.5409 *  0.0000     2          
   308  Cl    s      2.2539 *     7.3026 *     8.4746 *  0.0000     2          
   309  O     s      0.0000      -3.9669 *    10.7285 *  0.0000     1          
   310  O     s      4.5078 *    -8.4746 *     6.2207 *  0.0000     2          
   311  O     s      9.0156 *     0.5409 *    -7.3026 *  0.0000     2          
   312  Cl    s      2.2539 *    -6.2207 *    -9.5565 *  0.0000     2          
   313  Cl    s     11.2695 *     2.7948 *    -0.5409 *  0.0000     2          
   314  O     s      9.0156 *    -3.9669 *     6.2207 *  0.0000     2          
   315  O     s      4.5078 *     0.5409 *    10.7285 *  0.0000     2          
   316  Cl    s      2.2539 *   -10.7285 *     3.9669 *  0.0000     2          
   317  O     s      0.0000       0.5409 *   -11.8104 *  0.0000     1          
   318  Cl    s      6.7617 *    -1.7130 *    -9.5565 *  0.0000     2          
   319  O     s      0.0000       5.0487 *    10.7285 *  0.0000     1          
--------------------------------------------------------------------------------

  Components of defect energy : 

--------------------------------------------------------------------------------
  Region 1 - region 1                   =     -6.90137732 eV
  Region 1 - region 2a (unrelaxed)      =     15.86564644 eV
  Region 1 - 2a (relaxed - correction)  =     -0.29583585 eV
  Region 1 (Total)                      =      8.66843327 eV
  Region 2a                             =      0.14782883 eV
  Region 2b                             =     -0.43372395 eV
--------------------------------------------------------------------------------
  Total defect energy                   =      8.38253815 eV
--------------------------------------------------------------------------------

  Largest displacement in region 2 =   0.0252 Angstroms


  Number of variables =      866

  Maximum number of calculations  =        1000
  Maximum Hessian update interval =          10
  Maximum step size               =   1.0000000
  Maximum parameter tolerance     =   0.0000100
  Maximum function  tolerance     =   0.0000100
  Maximum gradient  tolerance     =   0.0010000

  Symmetry adapted optimisation

  Symmetry to be used for second derivatives

  Newton-Raphson optimiser to be used

  BFGS hessian update to be used

  Lower half triangular hessian to be used

  Start of defect optimisation :

  Cycle:      0 Defect Energy:   8.382538  Gnorm:     0.019237  CPU:    2.768
  ** Hessian calculated **
  Cycle:      1 Defect Energy:   7.800941  Gnorm:     0.017370  CPU:   12.119
  Cycle:      2 Defect Energy:   7.203000  Gnorm:     0.014769  CPU:   18.064
  ** Hessian calculated **
  Cycle:      3 Defect Energy:   6.174990  Gnorm:     0.005636  CPU:   23.464
  Cycle:      4 Defect Energy:   6.003783  Gnorm:     0.005040  CPU:   27.036
  Cycle:      5 Defect Energy:   5.883907  Gnorm:     0.004188  CPU:   31.422
  Cycle:      6 Defect Energy:   5.837658  Gnorm:     0.003872  CPU:   32.301
  Cycle:      7 Defect Energy:   5.769324  Gnorm:     0.003611  CPU:   33.221
  Cycle:      8 Defect Energy:   5.673632  Gnorm:     0.003374  CPU:   34.135
  Cycle:      9 Defect Energy:   5.555626  Gnorm:     0.003215  CPU:   35.055
  Cycle:     10 Defect Energy:   5.463561  Gnorm:     0.003079  CPU:   36.079
  Cycle:     11 Defect Energy:   5.386706  Gnorm:     0.003052  CPU:   36.990
  Cycle:     12 Defect Energy:   5.311678  Gnorm:     0.002976  CPU:   37.878
  ** Hessian calculated **
  Cycle:     13 Defect Energy:   5.285433  Gnorm:     0.002686  CPU:   40.055
  Cycle:     14 Defect Energy:   5.254954  Gnorm:     0.002580  CPU:   42.522
  Cycle:     15 Defect Energy:   5.218236  Gnorm:     0.002496  CPU:   45.511
  Cycle:     16 Defect Energy:   5.181171  Gnorm:     0.002421  CPU:   46.667
  Cycle:     17 Defect Energy:   5.151528  Gnorm:     0.002305  CPU:   47.798
  Cycle:     18 Defect Energy:   5.124227  Gnorm:     0.002250  CPU:   48.919
  Cycle:     19 Defect Energy:   5.093597  Gnorm:     0.002179  CPU:   50.088
  Cycle:     20 Defect Energy:   5.055284  Gnorm:     0.002107  CPU:   51.155
  Cycle:     21 Defect Energy:   5.015649  Gnorm:     0.001989  CPU:   52.219
  Cycle:     22 Defect Energy:   4.976069  Gnorm:     0.001902  CPU:   53.316
  ** Hessian calculated **
  Cycle:     23 Defect Energy:   4.892508  Gnorm:     0.001610  CPU:   56.095
  Cycle:     24 Defect Energy:   4.795506  Gnorm:     0.001121  CPU:   57.097
  Cycle:     25 Defect Energy:   4.756034  Gnorm:     0.000780  CPU:   58.114
  Cycle:     26 Defect Energy:   4.747949  Gnorm:     0.000589  CPU:   59.120
  ** Hessian calculated **
  Cycle:     27 Defect Energy:   4.731795  Gnorm:     0.000428  CPU:   61.846
  Cycle:     28 Defect Energy:   4.721746  Gnorm:     0.000343  CPU:   62.808
  ** Hessian calculated **
  Cycle:     29 Defect Energy:   4.720895  Gnorm:     0.000251  CPU:   65.380
  Cycle:     30 Defect Energy:   4.720006  Gnorm:     0.000215  CPU:   66.285
  Cycle:     31 Defect Energy:   4.718992  Gnorm:     0.000212  CPU:   67.189
  Cycle:     32 Defect Energy:   4.717765  Gnorm:     0.000226  CPU:   68.113
  Cycle:     33 Defect Energy:   4.716537  Gnorm:     0.000228  CPU:   69.093
  Cycle:     34 Defect Energy:   4.715507  Gnorm:     0.000245  CPU:   70.011
  Cycle:     35 Defect Energy:   4.714348  Gnorm:     0.000255  CPU:   70.914
  Cycle:     36 Defect Energy:   4.713320  Gnorm:     0.000254  CPU:   71.820
  Cycle:     37 Defect Energy:   4.711888  Gnorm:     0.000273  CPU:   72.754
  Cycle:     38 Defect Energy:   4.710254  Gnorm:     0.000289  CPU:   73.658
  ** Hessian calculated **
  Cycle:     39 Defect Energy:   4.708111  Gnorm:     0.000279  CPU:   77.844
  Cycle:     40 Defect Energy:   4.704918  Gnorm:     0.000273  CPU:   80.312
  ** Hessian calculated **
  Cycle:     41 Defect Energy:   4.699155  Gnorm:     0.000289  CPU:   83.250
  Cycle:     42 Defect Energy:   4.698671  Gnorm:     0.000383  CPU:   84.374
  Cycle:     43 Defect Energy:   4.698456  Gnorm:     0.000292  CPU:   85.531
  ** Hessian calculated **
  Cycle:     44 Defect Energy:   4.697884  Gnorm:     0.000181  CPU:   88.254
  Cycle:     45 Defect Energy:   4.697442  Gnorm:     0.000157  CPU:   89.358
  Cycle:     46 Defect Energy:   4.696924  Gnorm:     0.000149  CPU:   90.392
  Cycle:     47 Defect Energy:   4.696457  Gnorm:     0.000152  CPU:   91.412
  Cycle:     48 Defect Energy:   4.695949  Gnorm:     0.000150  CPU:   92.415
  Cycle:     49 Defect Energy:   4.695553  Gnorm:     0.000158  CPU:   93.436
  Cycle:     50 Defect Energy:   4.695033  Gnorm:     0.000161  CPU:   94.554
  Cycle:     51 Defect Energy:   4.694509  Gnorm:     0.000166  CPU:   95.469
  Cycle:     52 Defect Energy:   4.693672  Gnorm:     0.000180  CPU:   96.477
  Cycle:     53 Defect Energy:   4.692575  Gnorm:     0.000203  CPU:   97.447
  ** Hessian calculated **
  Cycle:     54 Defect Energy:   4.692237  Gnorm:     0.000192  CPU:   99.992
  Cycle:     55 Defect Energy:   4.691810  Gnorm:     0.000190  CPU:  100.916
  Cycle:     56 Defect Energy:   4.691174  Gnorm:     0.000188  CPU:  101.823
  Cycle:     57 Defect Energy:   4.690315  Gnorm:     0.000190  CPU:  102.814
  Cycle:     58 Defect Energy:   4.689039  Gnorm:     0.000195  CPU:  103.722
  Cycle:     59 Defect Energy:   4.687326  Gnorm:     0.000212  CPU:  104.585
  Cycle:     60 Defect Energy:   4.684817  Gnorm:     0.000246  CPU:  105.491
  Cycle:     61 Defect Energy:   4.681448  Gnorm:     0.000303  CPU:  106.422
  Cycle:     62 Defect Energy:   4.676624  Gnorm:     0.000404  CPU:  107.387
  Cycle:     63 Defect Energy:   4.670648  Gnorm:     0.000553  CPU:  109.620
  ** Hessian calculated **
  Cycle:     64 Defect Energy:   4.667138  Gnorm:     0.000497  CPU:  114.461
  Cycle:     65 Defect Energy:   4.662533  Gnorm:     0.000479  CPU:  115.572
  Cycle:     66 Defect Energy:   4.656417  Gnorm:     0.000458  CPU:  116.695
  Cycle:     67 Defect Energy:   4.648524  Gnorm:     0.000450  CPU:  117.945
  Cycle:     68 Defect Energy:   4.638721  Gnorm:     0.000468  CPU:  119.002
  Cycle:     69 Defect Energy:   4.628648  Gnorm:     0.000508  CPU:  120.058
  Cycle:     70 Defect Energy:   4.618802  Gnorm:     0.000585  CPU:  121.110
  Cycle:     71 Defect Energy:   4.609423  Gnorm:     0.000657  CPU:  122.242
  Cycle:     72 Defect Energy:   4.602087  Gnorm:     0.000711  CPU:  123.272
  Cycle:     73 Defect Energy:   4.596249  Gnorm:     0.000751  CPU:  124.274
  ** Hessian calculated **
  Cycle:     74 Defect Energy:   4.574132  Gnorm:     0.000715  CPU:  126.880
  Cycle:     75 Defect Energy:   4.543126  Gnorm:     0.000651  CPU:  127.839
  Cycle:     76 Defect Energy:   4.499703  Gnorm:     0.000483  CPU:  128.784
  Cycle:     77 Defect Energy:   4.481580  Gnorm:     0.000304  CPU:  129.783
  Cycle:     78 Defect Energy:   4.474575  Gnorm:     0.000242  CPU:  130.696
  Cycle:     79 Defect Energy:   4.470021  Gnorm:     0.000132  CPU:  131.639
  Cycle:     80 Defect Energy:   4.469685  Gnorm:     0.000132  CPU:  132.560
  ** Hessian calculated **
  Cycle:     81 Defect Energy:   4.467533  Gnorm:     0.000100  CPU:  135.074
  Cycle:     82 Defect Energy:   4.466361  Gnorm:     0.000080  CPU:  135.974
  Cycle:     83 Defect Energy:   4.465717  Gnorm:     0.000059  CPU:  136.906
  Cycle:     84 Defect Energy:   4.465388  Gnorm:     0.000043  CPU:  137.826
  Cycle:     85 Defect Energy:   4.465216  Gnorm:     0.000031  CPU:  138.720
  Cycle:     86 Defect Energy:   4.465132  Gnorm:     0.000022  CPU:  139.688
  Cycle:     87 Defect Energy:   4.465088  Gnorm:     0.000015  CPU:  140.229
  Cycle:     88 Defect Energy:   4.465071  Gnorm:     0.000011  CPU:  143.625
  Cycle:     89 Defect Energy:   4.465059  Gnorm:     0.000007  CPU:  145.562


  **** Optimisation achieved ****


  Final defect energy  =        4.46505866
  Final defect Gnorm   =        0.00000539

  Components of defect energy : 

--------------------------------------------------------------------------------
  Region 1 - region 1                   =     -9.90753341 eV
  Region 1 - region 2a (unrelaxed)      =     14.91779052 eV
  Region 1 - 2a (relaxed - correction)  =     -0.22762546 eV
  Region 1 (Total)                      =      4.78263164 eV
  Region 2a                             =      0.11377404 eV
  Region 2b                             =     -0.43134702 eV
--------------------------------------------------------------------------------
  Total defect energy                   =      4.46505866 eV
--------------------------------------------------------------------------------

  Largest displacement in region 2 =   0.0252 Angstroms

  Final coordinates of region 1 :

--------------------------------------------------------------------------------
   No.  Atomic        x           y           z          Radius      Charge
        Label       (Angs)      (Angs)      (Angs)       (Angs)       (e) 
--------------------------------------------------------------------------------
     1  Na    c     2.253894    1.712959    0.540934    0.000000    1.000000
     2  O     c     2.253894    2.404307    2.558056    0.000000    0.183000
     3  O     c     2.253894    2.206953   -2.093056    0.000000    0.183000
     4  Cl    c     4.607892   -0.011367   -0.029395    0.000000    1.485000
     5  Cl    c    -0.100105   -0.011367   -0.029395    0.000000    1.485000
     6  Na    c     4.480388    2.182067    2.558370    0.000000    1.000000
     7  Na    c     0.027399    2.182067    2.558370    0.000000    1.000000
     8  Na    c     2.253894    0.006311   -2.471476    0.000000    1.000000
     9  Na    c     2.253894    4.576926    2.560403    0.000000    1.000000
    10  Na    c     4.487973    2.137688   -2.048597    0.000000    1.000000
    11  Na    c     0.019814    2.137688   -2.048597    0.000000    1.000000
    12  Cl    c     4.567743    4.633800    0.000983    0.000000    1.485000
    13  Cl    c    -0.059956    4.633800    0.000983    0.000000    1.485000
    14  Na    c     2.253894    4.424796   -1.730117    0.000000    1.000000
    15  Na    c     2.253894    1.594853    4.581006    0.000000    1.000000
    16  Na    c     2.253894   -1.909700    0.097634    0.000000    1.000000
    17  O     c     2.253894   -2.310594    2.284725    0.000000    0.183000
    18  Na    c    -2.135511    2.671424    0.053169    0.000000    1.000000
    19  Na    c     6.643298    2.671424    0.053169    0.000000    1.000000
    20  O     c     2.253894   -2.237072   -2.197369    0.000000    0.183000
    21  O     c    -2.248801    2.264804    2.293745    0.000000    0.183000
    22  O     c     6.756588    2.264804    2.293745    0.000000    0.183000
    23  Cl    c     4.645804    0.000727    4.683477    0.000000    1.485000
    24  Cl    c    -0.138016    0.000727    4.683477    0.000000    1.485000
    25  Na    c     4.431378   -1.853576    2.296458    0.000000    1.000000
    26  Na    c     0.076409   -1.853576    2.296458    0.000000    1.000000
    27  Na    c     2.253894    2.579823   -4.379434    0.000000    1.000000
    28  Na    c     2.253894    6.804272    0.045701    0.000000    1.000000
    29  Na    c    -2.354657    0.030966    1.857974    0.000000    1.000000
    30  Na    c     6.862444    0.030966    1.857974    0.000000    1.000000
    31  O     c    -2.245108    2.264267   -2.199640    0.000000    0.183000
    32  O     c     6.752895    2.264267   -2.199640    0.000000    0.183000
    33  O     c     2.253894    6.825686    2.293476    0.000000    0.183000
    34  Cl    c     4.610974    4.642162    4.591190    0.000000    1.485000
    35  Cl    c    -0.103186    4.642162    4.591190    0.000000    1.485000
    36  Na    c     4.507828   -2.148344   -2.229085    0.000000    1.000000
    37  Na    c    -0.000041   -2.148344   -2.229085    0.000000    1.000000
    38  Na    c    -2.201367    4.511682    2.664605    0.000000    1.000000
    39  Na    c     6.709155    4.511682    2.664605    0.000000    1.000000
    40  Na    c    -2.359158    0.008115   -1.852553    0.000000    1.000000
    41  Na    c     6.866945    0.008115   -1.852553    0.000000    1.000000
    42  Na    c     2.253894   -1.881714    4.459656    0.000000    1.000000
    43  O     c     2.253894    6.699923   -2.200672    0.000000    0.183000
    44  Cl    c     4.500180   -0.015217   -4.481547    0.000000    1.485000
    45  Cl    c     0.007607   -0.015217   -4.481547    0.000000    1.485000
    46  Na    c     4.513121    6.734796    2.221623    0.000000    1.000000
    47  Na    c    -0.005334    6.734796    2.221623    0.000000    1.000000
    48  Na    c    -2.129387    4.493571   -2.619281    0.000000    1.000000
    49  Na    c     6.637174    4.493571   -2.619281    0.000000    1.000000
    50  Na    c    -2.405282    1.870166    4.531153    0.000000    1.000000
    51  Na    c     6.913069    1.870166    4.531153    0.000000    1.000000
    52  Na    c    -2.123004   -2.619449    0.017860    0.000000    1.000000
    53  Na    c     6.630791   -2.619449    0.017860    0.000000    1.000000
    54  Cl    c     4.498782    4.507540   -4.553909    0.000000    1.485000
    55  Cl    c     0.009005    4.507540   -4.553909    0.000000    1.485000
    56  Na    c     4.510735    6.727043   -2.189257    0.000000    1.000000
    57  Na    c    -0.002947    6.727043   -2.189257    0.000000    1.000000
    58  O     c     2.253894    2.236294    6.777956    0.000000    0.183000
    59  O     c    -2.214597   -2.208211    2.253026    0.000000    0.183000
    60  O     c     6.722384   -2.208211    2.253026    0.000000    0.183000
    61  Na    c     2.253894    7.124045    4.531531    0.000000    1.000000
    62  Na    c     2.253894   -2.586543   -4.448418    0.000000    1.000000
    63  Na    c     2.253894   -0.001552    7.231717    0.000000    1.000000
    64  Na    c     2.253894   -4.498432    2.245171    0.000000    1.000000
    65  O     c    -2.256047   -2.244430   -2.232161    0.000000    0.183000
    66  O     c     6.763834   -2.244430   -2.232161    0.000000    0.183000
    67  Cl    c     4.562023   -4.622591   -0.069057    0.000000    1.485000
    68  Cl    c    -0.054236   -4.622591   -0.069057    0.000000    1.485000
    69  Na    c     4.517530    2.307586    6.675244    0.000000    1.000000
    70  Na    c    -0.009743    2.307586    6.675244    0.000000    1.000000
    71  Na    c    -2.268148    1.892604   -4.453826    0.000000    1.000000
    72  Na    c     6.775935    1.892604   -4.453826    0.000000    1.000000
    73  Na    c    -2.277481    6.407911    0.011027    0.000000    1.000000
    74  Na    c     6.785268    6.407911    0.011027    0.000000    1.000000
    75  Na    c     2.253894    4.467319    6.275842    0.000000    1.000000
    76  Na    c     2.253894   -4.481307   -1.870597    0.000000    1.000000
    77  O     c    -2.262021    6.756605    2.267040    0.000000    0.183000
    78  O     c     6.769808    6.756605    2.267040    0.000000    0.183000
    79  Cl    c     9.103892    0.012759    0.015222    0.000000    1.485000
    80  Cl    c    -4.596105    0.012759    0.015222    0.000000    1.485000
    81  Na    c     9.013382    2.380641    2.164364    0.000000    1.000000
    82  Na    c    -4.505595    2.380641    2.164364    0.000000    1.000000
    83  Na    c     2.253894    6.436992   -4.454687    0.000000    1.000000
    84  Na    c    -2.328100   -1.912580    4.508732    0.000000    1.000000
    85  Na    c     6.835887   -1.912580    4.508732    0.000000    1.000000
    86  O     c     2.253894    2.252069   -6.684055    0.000000    0.183000
    87  O     c    -2.265476    6.740448   -2.252122    0.000000    0.183000
    88  O     c     6.773263    6.740448   -2.252122    0.000000    0.183000
    89  Cl    c     9.057781    4.501971    0.023508    0.000000    1.485000
    90  Cl    c    -4.549994    4.501971    0.023508    0.000000    1.485000
    91  Na    c     9.005554    2.398840   -2.141314    0.000000    1.000000
    92  Na    c    -4.497766    2.398840   -2.141314    0.000000    1.000000
    93  O     c     2.253894   -2.227080    6.739775    0.000000    0.183000
    94  Na    c     2.253894    9.052009    2.115391    0.000000    1.000000
    95  Na    c     2.253894   -0.000529   -6.410974    0.000000    1.000000
    96  Cl    c     4.495442    9.038342    0.004051    0.000000    1.485000
    97  Cl    c     0.012345    9.038342    0.004051    0.000000    1.485000
    98  Na    c     4.504468    2.223607   -6.622388    0.000000    1.000000
    99  Na    c     0.003319    2.223607   -6.622388    0.000000    1.000000
   100  O     c     6.779908    2.259342    6.770541    0.000000    0.183000
   101  O     c    -2.272121    2.259342    6.770541    0.000000    0.183000
   102  Cl    c     4.554412   -4.638964    4.628050    0.000000    1.485000
   103  Cl    c    -0.046625   -4.638964    4.628050    0.000000    1.485000
   104  Na    c     4.509305   -2.281498    6.635959    0.000000    1.000000
   105  Na    c    -0.001517   -2.281498    6.635959    0.000000    1.000000
   106  Na    c     2.253894    4.484405   -6.975536    0.000000    1.000000
   107  Na    c     2.253894    8.971669   -2.348431    0.000000    1.000000
   108  Na    c    -2.183659    7.094150    4.508964    0.000000    1.000000
   109  Na    c     6.691447    7.094150    4.508964    0.000000    1.000000
   110  Na    c     6.794578   -1.919014   -4.486373    0.000000    1.000000
   111  Na    c    -2.286791   -1.919014   -4.486373    0.000000    1.000000
   112  Na    c    -2.137869    0.007443    7.086812    0.000000    1.000000
   113  Na    c     6.645656    0.007443    7.086812    0.000000    1.000000
   114  Na    c    -2.043690   -4.453753    2.580537    0.000000    1.000000
   115  Na    c     6.551477   -4.453753    2.580537    0.000000    1.000000
   116  O     c     2.253894    6.722349    6.758929    0.000000    0.183000
   117  Cl    c     9.099577   -0.006246    4.541914    0.000000    1.485000
   118  Cl    c    -4.591790   -0.006246    4.541914    0.000000    1.485000
   119  Na    c     8.984608   -2.374410    2.192340    0.000000    1.000000
   120  Na    c    -4.476821   -2.374410    2.192340    0.000000    1.000000
   121  Na    c    -2.352463    4.512452    6.436696    0.000000    1.000000
   122  Na    c     6.860250    4.512452    6.436696    0.000000    1.000000
   123  Na    c    -2.176089   -4.487096   -2.565457    0.000000    1.000000
   124  Na    c     6.683876   -4.487096   -2.565457    0.000000    1.000000
   125  O     c     2.253894   -2.252063   -6.710030    0.000000    0.183000
   126  Cl    c     4.519458   -4.520624   -4.559791    0.000000    1.485000
   127  Cl    c    -0.011671   -4.520624   -4.559791    0.000000    1.485000
   128  Cl    c     9.080007    4.503551    4.490203    0.000000    1.485000
   129  Cl    c    -4.572220    4.503551    4.490203    0.000000    1.485000
   130  Na    c     4.511908    6.616123    6.776617    0.000000    1.000000
   131  Na    c    -0.004121    6.616123    6.776617    0.000000    1.000000
   132  Na    c     9.007033   -2.359280   -2.185872    0.000000    1.000000
   133  Na    c    -4.499245   -2.359280   -2.185872    0.000000    1.000000
   134  Na    c     6.799701    7.093371   -4.483966    0.000000    1.000000
   135  Na    c    -2.291914    7.093371   -4.483966    0.000000    1.000000
   136  Na    c     2.253894    2.593716    9.004564    0.000000    1.000000
   137  Na    c     2.253894   -6.930713    0.000844    0.000000    1.000000
   138  O     c    -2.250454    2.239394   -6.724006    0.000000    0.183000
   139  O     c     6.758242    2.239394   -6.724006    0.000000    0.183000
   140  Cl    c     4.503859    9.076387    4.518532    0.000000    1.485000
   141  Cl    c     0.003929    9.076387    4.518532    0.000000    1.485000
   142  Na    c     4.509639   -2.209831   -6.669928    0.000000    1.000000
   143  Na    c    -0.001852   -2.209831   -6.669928    0.000000    1.000000
   144  Cl    c     9.057025   -0.006948   -4.523613    0.000000    1.485000
   145  Cl    c    -4.549237   -0.006948   -4.523613    0.000000    1.485000
   146  Na    c     9.016983    6.699750    2.292519    0.000000    1.000000
   147  Na    c    -4.509195    6.699750    2.292519    0.000000    1.000000
   148  O     c    -2.258133   -2.239396    6.766968    0.000000    0.183000
   149  O     c     6.765921   -2.239396    6.766968    0.000000    0.183000
   150  O     c     2.253894   -6.787908    2.238570    0.000000    0.183000
   151  Na    c     6.770122    9.000866    1.976802    0.000000    1.000000
   152  Na    c    -2.262335    9.000866    1.976802    0.000000    1.000000
   153  Na    c     6.819639    0.009020   -7.061316    0.000000    1.000000
   154  Na    c    -2.311852    0.009020   -7.061316    0.000000    1.000000
   155  Na    c     2.253894   -4.486535    6.484676    0.000000    1.000000
   156  O     c     2.253894    6.728957   -6.736415    0.000000    0.183000
   157  Cl    c     9.047814    4.512062   -4.501966    0.000000    1.485000
   158  Cl    c    -4.540027    4.512062   -4.501966    0.000000    1.485000
   159  Na    c     9.018038    6.619066   -2.236028    0.000000    1.000000
   160  Na    c    -4.510250    6.619066   -2.236028    0.000000    1.000000
   161  O     c     2.253894   -6.742820   -2.234859    0.000000    0.183000
   162  Cl    c     4.529555   -0.006787    9.086449    0.000000    1.485000
   163  Cl    c    -0.021768   -0.006787    9.086449    0.000000    1.485000
   164  Na    c     4.500697   -6.766472    2.165411    0.000000    1.000000
   165  Na    c     0.007090   -6.766472    2.165411    0.000000    1.000000
   166  Na    c     6.724699    4.502735   -6.466339    0.000000    1.000000
   167  Na    c    -2.216912    4.502735   -6.466339    0.000000    1.000000
   168  Na    c     6.812209    8.991438   -1.973912    0.000000    1.000000
   169  Na    c    -2.304421    8.991438   -1.973912    0.000000    1.000000
   170  Na    c    11.333497    2.262733    0.004799    0.000000    1.000000
   171  Na    c    -6.825710    2.262733    0.004799    0.000000    1.000000
   172  Cl    c     4.513964    9.048653   -4.516782    0.000000    1.485000
   173  Cl    c    -0.006177    9.048653   -4.516782    0.000000    1.485000
   174  Na    c     4.503576    6.746339   -6.668330    0.000000    1.000000
   175  Na    c     0.004211    6.746339   -6.668330    0.000000    1.000000
   176  O     c    11.269095    2.252805    2.256609    0.000000    0.183000
   177  O     c    -6.761308    2.252805    2.256609    0.000000    0.183000
   178  O     c     6.769664    6.771914    6.754766    0.000000    0.183000
   179  O     c    -2.261877    6.771914    6.754766    0.000000    0.183000
   180  Cl    c     4.526741    4.539330    9.113156    0.000000    1.485000
   181  Cl    c    -0.018954    4.539330    9.113156    0.000000    1.485000
   182  Cl    c     9.070866   -4.486402   -0.011278    0.000000    1.485000
   183  Cl    c    -4.563078   -4.486402   -0.011278    0.000000    1.485000
   184  Na    c     4.508962   -6.713120   -2.212796    0.000000    1.000000
   185  Na    c    -0.001175   -6.713120   -2.212796    0.000000    1.000000
   186  Na    c     9.021585    2.167800    6.863895    0.000000    1.000000
   187  Na    c    -4.513798    2.167800    6.863895    0.000000    1.000000
   188  Na    c    11.154418   -0.006818    2.284170    0.000000    1.000000
   189  Na    c    -6.646631   -0.006818    2.284170    0.000000    1.000000
   190  Na    c     2.253894   -2.520702    8.993769    0.000000    1.000000
   191  Na    c     2.253894   -6.804538    4.494370    0.000000    1.000000
   192  O     c     6.764433   -2.226428   -6.749884    0.000000    0.183000
   193  O     c    -2.256645   -2.226428   -6.749884    0.000000    0.183000
   194  O     c    11.267789    2.249905   -2.249693    0.000000    0.183000
   195  O     c    -6.760002    2.249905   -2.249693    0.000000    0.183000
   196  Na    c     2.253894    2.049414   -8.971837    0.000000    1.000000
   197  Na    c     2.253894   11.309627   -0.010945    0.000000    1.000000
   198  Na    c     2.253894    8.987471    6.992660    0.000000    1.000000
   199  Na    c     2.253894   -4.487874   -6.949172    0.000000    1.000000
   200  Na    c    11.341268    4.501325    2.307563    0.000000    1.000000
   201  Na    c    -6.833481    4.501325    2.307563    0.000000    1.000000
   202  Na    c    11.146442   -0.003674   -2.231889    0.000000    1.000000
   203  Na    c    -6.638655   -0.003674   -2.231889    0.000000    1.000000
   204  Na    c     6.730469    2.535162    9.012565    0.000000    1.000000
   205  Na    c    -2.222682    2.535162    9.012565    0.000000    1.000000
   206  Na    c     6.799607   -6.479785   -0.003184    0.000000    1.000000
   207  Na    c    -2.291820   -6.479785   -0.003184    0.000000    1.000000
   208  O     c     2.253894   11.276809    2.257759    0.000000    0.183000
   209  O     c    -2.237551   -6.716188    2.260622    0.000000    0.183000
   210  O     c     6.745338   -6.716188    2.260622    0.000000    0.183000
   211  Na    c    11.383684    4.494628   -2.340931    0.000000    1.000000
   212  Na    c    -6.875897    4.494628   -2.340931    0.000000    1.000000
   213  Na    c    11.197453    2.240282    4.513706    0.000000    1.000000
[...]
    239 y          0.000000      0.003067     0.003067    Cartesian    0.00
    239 z          4.507787      4.685786     0.177999    Cartesian    3.95
    240 x         -2.253894     -2.245114     0.008779    Cartesian   -0.39
    240 y          2.253894      2.264288     0.010394    Cartesian    0.46
    240 z         -2.253894     -2.199629     0.054265    Cartesian   -2.41
    241 x          2.253894      2.253894     0.000000    Cartesian    0.00
    241 y          6.761681      6.825745     0.064065    Cartesian    0.95
    241 z          2.253894      2.293446     0.039553    Cartesian    1.75
    242 x          4.507787      4.621814     0.114026    Cartesian    2.53
    242 y          4.507787      4.649498     0.141711    Cartesian    3.14
    242 z          4.507787      4.600757     0.092970    Cartesian    2.06
    243 x          2.253894      2.253894     0.000000    Cartesian    0.00
    243 y          6.761681      6.699966    -0.061715    Cartesian   -0.91
    243 z         -2.253894     -2.200599     0.053294    Cartesian   -2.36
    244 x          4.507787      4.500568    -0.007220    Cartesian   -0.16
    244 y          0.000000     -0.017393    -0.017393    Cartesian    0.00
    244 z         -4.507787     -4.485666     0.022121    Cartesian   -0.49
    245 x          4.507787      4.502864    -0.004923    Cartesian   -0.11
    245 y          4.507787      4.509452     0.001665    Cartesian    0.04
    245 z         -4.507787     -4.559958    -0.052171    Cartesian    1.16
    246 x          2.253894      2.253894     0.000000    Cartesian    0.00
    246 y          2.253894      2.236276    -0.017617    Cartesian   -0.78
    246 z          6.761681      6.777964     0.016284    Cartesian    0.24
    247 x         -2.253894     -2.214654     0.039239    Cartesian   -1.74
    247 y         -2.253894     -2.208213     0.045681    Cartesian   -2.03
    247 z          2.253894      2.253010    -0.000884    Cartesian   -0.04
    248 x         -2.253894     -2.256048    -0.002155    Cartesian    0.10
    248 y         -2.253894     -2.244463     0.009431    Cartesian   -0.42
    248 z         -2.253894     -2.232158     0.021735    Cartesian   -0.96
    249 x          4.507787      4.575084     0.067296    Cartesian    1.49
    249 y         -4.507787     -4.633608    -0.125821    Cartesian    2.79
    249 z          0.000000     -0.081208    -0.081208    Cartesian    0.00
    250 x         -2.253894     -2.262013    -0.008119    Cartesian    0.36
    250 y          6.761681      6.756617    -0.005064    Cartesian   -0.07
    250 z          2.253894      2.267068     0.013175    Cartesian    0.58
    251 x          9.015574      9.098682     0.083108    Cartesian    0.92
    251 y          0.000000      0.012887     0.012887    Cartesian    0.00
    251 z          0.000000      0.015270     0.015270    Cartesian    0.00
    252 x          2.253894      2.253894     0.000000    Cartesian    0.00
    252 y          2.253894      2.252094    -0.001799    Cartesian   -0.08
    252 z         -6.761681     -6.684075     0.077606    Cartesian   -1.15
    253 x         -2.253894     -2.265487    -0.011593    Cartesian    0.51
    253 y          6.761681      6.740450    -0.021231    Cartesian   -0.31
    253 z         -2.253894     -2.252153     0.001741    Cartesian   -0.08
    254 x          9.015574      9.051832     0.036257    Cartesian    0.40
    254 y          4.507787      4.500045    -0.007742    Cartesian   -0.17
    254 z          0.000000      0.023418     0.023418    Cartesian    0.00
    255 x          2.253894      2.253894     0.000000    Cartesian    0.00
    255 y         -2.253894     -2.227109     0.026784    Cartesian   -1.19
    255 z          6.761681      6.739815    -0.021866    Cartesian   -0.32
    256 x          4.507787      4.498101    -0.009686    Cartesian   -0.21
    256 y          9.015574      9.039861     0.024287    Cartesian    0.27
    256 z          0.000000      0.006827     0.006827    Cartesian    0.00
    257 x          6.761681      6.779938     0.018257    Cartesian    0.27
    257 y          2.253894      2.259317     0.005423    Cartesian    0.24
    257 z          6.761681      6.770564     0.008883    Cartesian    0.13
    258 x          4.507787      4.566966     0.059179    Cartesian    1.31
    258 y         -4.507787     -4.651475    -0.143688    Cartesian    3.19
    258 z          4.507787      4.641108     0.133321    Cartesian    2.96
    259 x          2.253894      2.253894     0.000000    Cartesian    0.00
    259 y          6.761681      6.722386    -0.039295    Cartesian   -0.58
    259 z          6.761681      6.758906    -0.002775    Cartesian   -0.04
    260 x          9.015574      9.096213     0.080639    Cartesian    0.89
    260 y          0.000000     -0.002915    -0.002915    Cartesian    0.00
    260 z          4.507787      4.544700     0.036913    Cartesian    0.82
    261 x          2.253894      2.253894     0.000000    Cartesian    0.00
    261 y         -2.253894     -2.252104     0.001790    Cartesian   -0.08
    261 z         -6.761681     -6.710018     0.051663    Cartesian   -0.76
    262 x          4.507787      4.522653     0.014866    Cartesian    0.33
    262 y         -4.507787     -4.521389    -0.013602    Cartesian    0.30
    262 z         -4.507787     -4.563214    -0.055427    Cartesian    1.23
    263 x          9.015574      9.076893     0.061318    Cartesian    0.68
    263 y          4.507787      4.503867    -0.003920    Cartesian   -0.09
    263 z          4.507787      4.487889    -0.019898    Cartesian   -0.44
    264 x         -2.253894     -2.250458     0.003435    Cartesian   -0.15
    264 y          2.253894      2.239360    -0.014533    Cartesian   -0.64
    264 z         -6.761681     -6.724038     0.037643    Cartesian   -0.56
    265 x          4.507787      4.503905    -0.003882    Cartesian   -0.09
    265 y          9.015574      9.076487     0.060913    Cartesian    0.68
    265 z          4.507787      4.518277     0.010490    Cartesian    0.23
    266 x          9.015574      9.055423     0.039849    Cartesian    0.44
    266 y          0.000000     -0.007329    -0.007329    Cartesian    0.00
    266 z         -4.507787     -4.526210    -0.018423    Cartesian    0.41
    267 x         -2.253894     -2.258133    -0.004240    Cartesian    0.19
    267 y         -2.253894     -2.239384     0.014510    Cartesian   -0.64
    267 z          6.761681      6.767006     0.005325    Cartesian    0.08
    268 x          2.253894      2.253894     0.000000    Cartesian    0.00
    268 y         -6.761681     -6.787982    -0.026301    Cartesian    0.39
    268 z          2.253894      2.238542    -0.015352    Cartesian   -0.68
    269 x          2.253894      2.253894     0.000000    Cartesian    0.00
    269 y          6.761681      6.728931    -0.032750    Cartesian   -0.48
    269 z         -6.761681     -6.736453     0.025227    Cartesian   -0.37
    270 x          9.015574      9.046896     0.031321    Cartesian    0.35
    270 y          4.507787      4.513505     0.005717    Cartesian    0.13
    270 z         -4.507787     -4.502121     0.005666    Cartesian   -0.13
    271 x          2.253894      2.253894     0.000000    Cartesian    0.00
    271 y         -6.761681     -6.742855     0.018826    Cartesian   -0.28
    271 z         -2.253894     -2.234788     0.019105    Cartesian   -0.85
    272 x          4.507787      4.531355     0.023568    Cartesian    0.52
    272 y          0.000000     -0.007037    -0.007037    Cartesian    0.00
    272 z          9.015574      9.086203     0.070629    Cartesian    0.78
    273 x          4.507787      4.516684     0.008897    Cartesian    0.20
    273 y          9.015574      9.052187     0.036612    Cartesian    0.41
    273 z         -4.507787     -4.519704    -0.011917    Cartesian    0.26
    274 x         11.269468     11.269102    -0.000366    Cartesian   -0.00
    274 y          2.253894      2.252830    -0.001064    Cartesian   -0.05
    274 z          2.253894      2.256606     0.002713    Cartesian    0.12
    275 x          6.761681      6.769677     0.007996    Cartesian    0.12
    275 y          6.761681      6.771957     0.010276    Cartesian    0.15
    275 z          6.761681      6.754767    -0.006914    Cartesian   -0.10
    276 x          4.507787      4.527421     0.019633    Cartesian    0.44
    276 y          4.507787      4.540758     0.032971    Cartesian    0.73
    276 z          9.015574      9.120932     0.105357    Cartesian    1.17
    277 x          9.015574      9.071119     0.055545    Cartesian    0.62
    277 y         -4.507787     -4.482721     0.025067    Cartesian   -0.56
    277 z          0.000000     -0.012206    -0.012206    Cartesian    0.00
    278 x          6.761681      6.764445     0.002764    Cartesian    0.04
    278 y         -2.253894     -2.226398     0.027495    Cartesian   -1.22
    278 z         -6.761681     -6.749923     0.011758    Cartesian   -0.17
    279 x         11.269468     11.267811    -0.001657    Cartesian   -0.01
    279 y          2.253894      2.249913    -0.003980    Cartesian   -0.18
    279 z         -2.253894     -2.249691     0.004202    Cartesian   -0.19
    280 x          2.253894      2.253894     0.000000    Cartesian    0.00
    280 y         11.269468     11.276773     0.007305    Cartesian    0.06
    280 z          2.253894      2.257764     0.003870    Cartesian    0.17
    281 x         -2.253894     -2.237515     0.016378    Cartesian   -0.73
    281 y         -6.761681     -6.716211     0.045470    Cartesian   -0.67
    281 z          2.253894      2.260667     0.006773    Cartesian    0.30
    282 x          2.253894      2.253894     0.000000    Cartesian    0.00
    282 y         11.269468     11.254292    -0.015176    Cartesian   -0.13
    282 z         -2.253894     -2.270005    -0.016112    Cartesian    0.71
    283 x         -2.253894     -2.250925     0.002969    Cartesian   -0.13
    283 y          6.761681      6.766881     0.005200    Cartesian    0.08
    283 z         -6.761681     -6.727699     0.033982    Cartesian   -0.50
    284 x          4.507787      4.504634    -0.003153    Cartesian   -0.07
    284 y          0.000000     -0.001122    -0.001122    Cartesian    0.00
    284 z         -9.015574     -9.048050    -0.032475    Cartesian    0.36
    285 x          9.015574      9.035088     0.019514    Cartesian    0.22
    285 y          9.015574      9.068692     0.053117    Cartesian    0.59
    285 z          0.000000      0.002425     0.002425    Cartesian    0.00
    286 x         11.269468     11.258167    -0.011301    Cartesian   -0.10
    286 y         -2.253894     -2.263211    -0.009317    Cartesian    0.41
    286 z          2.253894      2.251085    -0.002809    Cartesian   -0.12
    287 x         -2.253894     -2.259494    -0.005600    Cartesian    0.25
    287 y         -6.761681     -6.737892     0.023789    Cartesian   -0.35
    287 z         -2.253894     -2.270856    -0.016962    Cartesian    0.75
    288 x          9.015574      9.052490     0.036916    Cartesian    0.41
    288 y         -4.507787     -4.499375     0.008412    Cartesian   -0.19
    288 z          4.507787      4.487275    -0.020512    Cartesian   -0.46
    289 x          4.507787      4.550051     0.042264    Cartesian    0.94
    289 y          4.507787      4.518320     0.010533    Cartesian    0.23
    289 z         -9.015574     -9.068193    -0.052619    Cartesian    0.58
    290 x         11.269468     11.266320    -0.003148    Cartesian   -0.03
    290 y         -2.253894     -2.256699    -0.002805    Cartesian    0.12
    290 z         -2.253894     -2.247762     0.006132    Cartesian   -0.27
    291 x         11.269468     11.275875     0.006407    Cartesian    0.06
    291 y          6.761681      6.753238    -0.008442    Cartesian   -0.12
    291 z          2.253894      2.256637     0.002743    Cartesian    0.12
    292 x          9.015574      9.034231     0.018656    Cartesian    0.21
    292 y         -4.507787     -4.524992    -0.017205    Cartesian    0.38
    292 z         -4.507787     -4.517706    -0.009919    Cartesian    0.22
    293 x          2.253894      2.253894     0.000000    Cartesian    0.00
    293 y         -6.761681     -6.748001     0.013680    Cartesian   -0.20
    293 z          6.761681      6.751183    -0.010498    Cartesian   -0.16
    294 x         -2.253894     -2.256003    -0.002109    Cartesian    0.09
    294 y         11.269468     11.261567    -0.007901    Cartesian   -0.07
    294 z          2.253894      2.236323    -0.017570    Cartesian   -0.78
    295 x         11.269468     11.270256     0.000788    Cartesian    0.01
    295 y          6.761681      6.746515    -0.015165    Cartesian   -0.22
    295 z         -2.253894     -2.254150    -0.000256    Cartesian    0.01
    296 x          9.015574      9.065276     0.049701    Cartesian    0.55
    296 y          9.015574      9.019352     0.003778    Cartesian    0.04
    296 z          4.507787      4.524167     0.016380    Cartesian    0.36
    297 x          2.253894      2.253894     0.000000    Cartesian    0.00
    297 y          2.253894      2.266731     0.012837    Cartesian    0.57
    297 z         11.269468     11.259709    -0.009759    Cartesian   -0.09
    298 x          4.507787      4.504758    -0.003029    Cartesian   -0.07
    298 y         -4.507787     -4.512297    -0.004510    Cartesian    0.10
    298 z          9.015574      9.084004     0.068429    Cartesian    0.76
    299 x         -2.253894     -2.256383    -0.002490    Cartesian    0.11
    299 y         11.269468     11.257403    -0.012065    Cartesian   -0.11
    299 z         -2.253894     -2.229777     0.024116    Cartesian   -1.07
    300 x         11.269468     11.271337     0.001869    Cartesian    0.02
    300 y          2.253894      2.248861    -0.005033    Cartesian   -0.22
    300 z          6.761681      6.769516     0.007835    Cartesian    0.12
    301 x          4.507787      4.523789     0.016002    Cartesian    0.35
    301 y         -9.015574     -9.060071    -0.044497    Cartesian    0.49
    301 z          0.000000      0.006527     0.006527    Cartesian    0.00
    302 x          9.015574      9.065564     0.049990    Cartesian    0.55
    302 y          0.000000      0.010943     0.010943    Cartesian    0.00
    302 z          9.015574      9.020825     0.005250    Cartesian    0.06
    303 x          9.015574      9.046183     0.030608    Cartesian    0.34
    303 y          9.015574      9.027863     0.012288    Cartesian    0.14
    303 z         -4.507787     -4.531630    -0.023843    Cartesian    0.53
    304 x          2.253894      2.253894     0.000000    Cartesian    0.00
    304 y         -6.761681     -6.739904     0.021776    Cartesian   -0.32
    304 z         -6.761681     -6.772093    -0.010413    Cartesian    0.15
    305 x          9.015574      9.026361     0.010787    Cartesian    0.12
    305 y          4.507787      4.508016     0.000228    Cartesian    0.01
    305 z          9.015574      9.055897     0.040322    Cartesian    0.45
    306 x          2.253894      2.253894     0.000000    Cartesian    0.00
    306 y         11.269468     11.256777    -0.012691    Cartesian   -0.11
    306 z          6.761681      6.772483     0.010802    Cartesian    0.16
    307 x         13.523362     13.586532     0.063170    Cartesian    0.47
    307 y          0.000000      0.003011     0.003011    Cartesian    0.00
    307 z          0.000000     -0.008776    -0.008776    Cartesian    0.00
    308 x          4.507787      4.518071     0.010284    Cartesian    0.23
    308 y          9.015574      9.080166     0.064592    Cartesian    0.72
    308 z          9.015574      9.024718     0.009143    Cartesian    0.10
    309 x          2.253894      2.253894     0.000000    Cartesian    0.00
    309 y         -2.253894     -2.258549    -0.004655    Cartesian    0.21
    309 z         11.269468     11.253247    -0.016221    Cartesian   -0.14
    310 x          6.761681      6.772203     0.010523    Cartesian    0.16
    310 y         -6.761681     -6.771720    -0.010039    Cartesian    0.15
    310 z          6.761681      6.757321    -0.004360    Cartesian   -0.06
    311 x         11.269468     11.267675    -0.001793    Cartesian   -0.02
    311 y          2.253894      2.257184     0.003291    Cartesian    0.15
    311 z         -6.761681     -6.760687     0.000994    Cartesian   -0.01
    312 x          4.507787      4.508087     0.000300    Cartesian    0.01
    312 y         -4.507787     -4.518027    -0.010240    Cartesian    0.23
    312 z         -9.015574     -9.056457    -0.040882    Cartesian    0.45
    313 x         13.523362     13.537027     0.013666    Cartesian    0.10
    313 y          4.507787      4.537074     0.029287    Cartesian    0.65
    313 z          0.000000     -0.006493    -0.006493    Cartesian    0.00
    314 x         11.269468     11.275923     0.006455    Cartesian    0.06
    314 y         -2.253894     -2.257976    -0.004083    Cartesian    0.18
    314 z          6.761681      6.768839     0.007158    Cartesian    0.11
    315 x          6.761681      6.763722     0.002041    Cartesian    0.03
    315 y          2.253894      2.271788     0.017894    Cartesian    0.79
    315 z         11.269468     11.265985    -0.003483    Cartesian   -0.03
    316 x          4.507787      4.502213    -0.005574    Cartesian   -0.12
    316 y         -9.015574     -9.060464    -0.044890    Cartesian    0.50
    316 z          4.507787      4.500919    -0.006868    Cartesian   -0.15
    317 x          2.253894      2.253894     0.000000    Cartesian    0.00
    317 y          2.253894      2.239048    -0.014846    Cartesian   -0.66
    317 z        -11.269468    -11.264501     0.004967    Cartesian   -0.04
    318 x          9.015574      9.060568     0.044994    Cartesian    0.50
    318 y          0.000000     -0.005366    -0.005366    Cartesian    0.00
    318 z         -9.015574     -9.018738    -0.003164    Cartesian    0.04
    319 x          2.253894      2.253894     0.000000    Cartesian    0.00
    319 y          6.761681      6.751192    -0.010489    Cartesian   -0.16
    319 z         11.269468     11.283370     0.013902    Cartesian    0.12
--------------------------------------------------------------------------------


  Time to end of optimisation  =      146.6793 seconds


  Peak dynamic memory used =      93.08 MB 


  Timing analysis for GULP :

--------------------------------------------------------------------------------
  Task / Subroutine                                          Time (Seconds)
--------------------------------------------------------------------------------
  Calculation of reciprocal space energy and derivatives          0.0006
  Calculation of reciprocal space energy using symmetry           0.0009
  Calculation of real space energy and derivatives                0.0036
  Calculation of real space energy using symmetry                 0.0087
  Calculation for region 1 energy and derivatives (2-b)          80.8422
  Calculation for region 2a energy                               59.8245
  Calculation for region 2b energy                                0.0242
  Calculation and manipulation of Hessian matrix                  0.2016
  Calculation of matrix inversion                                 5.2713
  Symmetry generation of equivalent positions                     0.0044
--------------------------------------------------------------------------------
  Total CPU time                                                146.6794
--------------------------------------------------------------------------------


  Dump file written as Na3OCl.grs


  Job Finished at 19:35.35 30th November   2020                               

