********************************************************************************
*                       GENERAL UTILITY LATTICE PROGRAM                        *
*                                 Julian Gale                                  *
*                       Curtin Institute for Computation                       *
*                    School of Molecular and Life Sciences                     *
*                    Curtin University, Western Australia                      *
********************************************************************************
* Version = 5.2.0 * Last modified =  10th September 2020                       *
********************************************************************************
*  optimise     - perform optimisation run                                     *
*  conp         - constant pressure calculation                                *
*  property     - calculate properties for final geometry                      *
*  defect       - perform defect calculation after bulk run                    *
*  compare      - compare initial and final structures                         *
********************************************************************************

  Job Started  at 19:34.45 30th November   2020                               

  Number of CPUs =     1


  Total number of configurations input =      1

********************************************************************************
*  Input for Configuration =   1                                               *
********************************************************************************

  Formula = ClONa3                                                      

  Number of irreducible atoms/shells =       5


  Total number atoms/shells =       7

  Dimensionality = 3               :  Bulk   


  Symmetry :

  Crystal family                   :  Cubic       
  Crystal class  (Groth - 1921)    :  Cubic Hexakisoctahedral              

  Space group (centrosymmetric)    :  P M 3 M         

  Patterson group                  :  P m -3 m 

  Cartesian lattice vectors (Angstroms) :

        4.504000    0.000000    0.000000
        0.000000    4.504000    0.000000
        0.000000    0.000000    4.504000

  Cell parameters (Angstroms/Degrees):

  a =       4.5040    alpha =  90.0000
  b =       4.5040    beta  =  90.0000
  c =       4.5040    gamma =  90.0000

  Initial cell volume =          91.368216 Angs**3

  Temperature of configuration =   0.00     K 

  Pressure of configuration =         0.000 GPa 

  Fractional coordinates of asymmetric unit :

--------------------------------------------------------------------------------
   No.  Atomic       x           y          z         Charge      Occupancy
        Label      (Frac)      (Frac)     (Frac)        (e)         (Frac)  
--------------------------------------------------------------------------------
      1 Cl    c    0.000000    0.000000    0.000000     1.48500    1.000000    
      2 O     c    0.500000    0.500000    0.500000     0.18300    1.000000    
      3 Na    c    0.500000    0.500000    0.000000     1.00000    1.000000    
      4 Cl    s    0.000000    0.000000    0.000000    -2.48500    1.000000    
      5 O     s    0.500000    0.500000    0.500000    -2.18300    1.000000    
--------------------------------------------------------------------------------


  Constraints : 

--------------------------------------------------------------------------------
  Constraint no.      Unconstrained     Constrained    Coefficient    Offset
                         Variable         Variable
--------------------------------------------------------------------------------
           1              Strain 1        Strain 2       1.00000      0.0000
           2              Strain 1        Strain 3       1.00000      0.0000
--------------------------------------------------------------------------------


********************************************************************************
*  General input information                                                   *
********************************************************************************

  Species output for all configurations : 

--------------------------------------------------------------------------------
  Species    Type    Atomic    Atomic    Charge       Radii (Angs)     Library
                     Number     Mass       (e)     Cova   Ionic  VDW   Symbol
--------------------------------------------------------------------------------
    Na       Core       11      22.99   1.000000   0.970  0.000  2.300          
    O        Core        8      16.00   0.183000   0.730  0.000  1.360          
    O        Shell       8       0.00  -2.183000   0.730  0.000  1.360          
    Cl       Core       17      35.45   1.485000   0.990  0.000  1.650          
    Cl       Shell      17       0.00  -2.485000   0.990  0.000  1.650          
    Mg       Core       12      24.31   0.415000   1.100  0.000  0.000          
    Mg       Shell      12       0.00   1.585000   1.100  0.000  0.000          
    Ca       Core       20      40.08  -1.135000   0.990  0.000  0.000          
    Ca       Shell      20       0.00   3.135000   0.990  0.000  0.000          
    Sr       Core       38      87.62  -1.251000   1.120  0.000  0.000          
    Sr       Shell      38       0.00   3.251000   1.120  0.000  0.000          
    Ba       Core       56     137.33  -7.203000   1.340  0.000  0.000          
    Ba       Shell      56       0.00   9.203000   1.340  0.000  0.000          
--------------------------------------------------------------------------------


  Lattice summation method               =    Ewald          (3-D)
                                         =    Parry          (2-D)
                                         =    Saunders et al (1-D)
  Accuracy factor for lattice sums       =   12.000


  Analytic derivatives to be used

  Time limit = Infinity

  Maximum range for interatomic potentials =    100000.000000 Angstroms

  General interatomic potentials :

--------------------------------------------------------------------------------
Atom  Types   Potential      Parameter       Value         Units   Cutoffs(Ang)
  1     2                                                            Min /  Max 
--------------------------------------------------------------------------------
O    c O    s Spring (c-s)  Spring k 2       593.71600    eV*Ang^-2 0.000  0.800
                            Spring k 4       0.0000000    eV*Ang^-4 
--------------------------------------------------------------------------------
Cl   c Cl   s Spring (c-s)  Spring k 2       29.380000    eV*Ang^-2 0.000  0.800
                            Spring k 4       0.0000000    eV*Ang^-4 
--------------------------------------------------------------------------------
Mg   c Mg   s Spring (c-s)  Spring k 2       361.60000    eV*Ang^-2 0.000  0.800
                            Spring k 4       0.0000000    eV*Ang^-4 
--------------------------------------------------------------------------------
Ca   c Ca   s Spring (c-s)  Spring k 2       110.20000    eV*Ang^-2 0.000  0.800
                            Spring k 4       0.0000000    eV*Ang^-4 
--------------------------------------------------------------------------------
Sr   c Sr   s Spring (c-s)  Spring k 2       71.700000    eV*Ang^-2 0.000  0.800
                            Spring k 4       0.0000000    eV*Ang^-4 
--------------------------------------------------------------------------------
Ba   c Ba   s Spring (c-s)  Spring k 2       495.20000    eV*Ang^-2 0.000  0.800
                            Spring k 4       0.0000000    eV*Ang^-4 
--------------------------------------------------------------------------------
Na   c Na   c Buckingham    Buckingham A     1788.1900    eV        0.000 12.000
                            Buckingham rho  0.15900000    Ang       
                            Buckingham C     0.0000000    eV*Ang^6  
--------------------------------------------------------------------------------
Na   c O    s Buckingham    Buckingham A     1226.8400    eV        0.000 12.000
                            Buckingham rho  0.30700000    Ang       
                            Buckingham C     0.0000000    eV*Ang^6  
--------------------------------------------------------------------------------
Na   c Cl   s Buckingham    Buckingham A     2314.7000    eV        0.000 12.000
                            Buckingham rho  0.29000000    Ang       
                            Buckingham C     0.0000000    eV*Ang^6  
--------------------------------------------------------------------------------
O    s O    s Buckingham    Buckingham A     22764.300    eV        0.000 12.000
                            Buckingham rho  0.14900000    Ang       
                            Buckingham C     13.190000    eV*Ang^6  
--------------------------------------------------------------------------------
O    s Cl   s Buckingham    Buckingham A     8286.9100    eV        0.000 12.000
                            Buckingham rho  0.25900000    Ang       
                            Buckingham C     62.200000    eV*Ang^6  
--------------------------------------------------------------------------------
Cl   s Cl   s Buckingham    Buckingham A     1227.2000    eV        0.000 12.000
                            Buckingham rho  0.32100000    Ang       
                            Buckingham C     14.530000    eV*Ang^6  
--------------------------------------------------------------------------------
O    s Mg   s Buckingham    Buckingham A     1428.5000    eV        0.000 12.000
                            Buckingham rho  0.29450000    Ang       
                            Buckingham C     0.0000000    eV*Ang^6  
--------------------------------------------------------------------------------
Mg   s Cl   s Buckingham    Buckingham A     4914.5400    eV        0.000 12.000
                            Buckingham rho  0.25700000    Ang       
                            Buckingham C     0.0000000    eV*Ang^6  
--------------------------------------------------------------------------------
O    s Ca   s Buckingham    Buckingham A     1090.4000    eV        0.000 12.000
                            Buckingham rho  0.34370000    Ang       
                            Buckingham C     0.0000000    eV*Ang^6  
--------------------------------------------------------------------------------
Cl   s Ca   s Buckingham    Buckingham A     2302.0000    eV        0.000 12.000
                            Buckingham rho  0.34020000    Ang       
                            Buckingham C     0.0000000    eV*Ang^6  
--------------------------------------------------------------------------------
O    s Sr   s Buckingham    Buckingham A     959.10000    eV        0.000 12.000
                            Buckingham rho  0.37210000    Ang       
                            Buckingham C     0.0000000    eV*Ang^6  
--------------------------------------------------------------------------------
Cl   s Sr   s Buckingham    Buckingham A     2191.0900    eV        0.000 12.000
                            Buckingham rho  0.34570000    Ang       
                            Buckingham C     0.0000000    eV*Ang^6  
--------------------------------------------------------------------------------
O    s Ba   s Buckingham    Buckingham A     905.70000    eV        0.000 12.000
                            Buckingham rho  0.39760000    Ang       
                            Buckingham C     0.0000000    eV*Ang^6  
--------------------------------------------------------------------------------
Cl   s Ba   s Buckingham    Buckingham A     2704.5500    eV        0.000 12.000
                            Buckingham rho  0.35280000    Ang       
                            Buckingham C     0.0000000    eV*Ang^6  
--------------------------------------------------------------------------------

********************************************************************************
*  Output for configuration   1                                                *
********************************************************************************


  Components of energy : 

--------------------------------------------------------------------------------
  Interatomic potentials     =           5.13022605 eV    
  Monopole - monopole (real) =         -10.03624526 eV    
  Monopole - monopole (recip)=         -29.53581274 eV    
  Monopole - monopole (total)=         -39.57205800 eV    
--------------------------------------------------------------------------------
  Total lattice energy       =         -34.44183194 eV    
--------------------------------------------------------------------------------
  Total lattice energy       =           -3323.1103 kJ/(mole unit cells)
--------------------------------------------------------------------------------


  Number of variables =        1

  Maximum number of calculations  =          1000
  Maximum Hessian update interval =            10
  Maximum step size               =   1.000000000
  Maximum parameter tolerance     =   0.000010000
  Maximum function  tolerance     =   0.000010000
  Maximum gradient  tolerance     =   0.001000000
  Maximum gradient  component     =   0.010000000

  Symmetry constrained optimisation

  Symmetry used for second derivatives

  Cell parameters to be optimised using strains

  Newton-Raphson optimiser to be used

  BFGS hessian update to be used

  Lower half triangular hessian to be used

  Start of bulk optimisation :

  Cycle:      0 Energy:       -34.441832  Gnorm:      0.196570  CPU:    0.015
  ** Hessian calculated **
  Cycle:      1 Energy:       -34.441914  Gnorm:      0.000103  CPU:    0.019


  **** Optimisation achieved ****


  Final energy =     -34.44191447 eV
  Final Gnorm  =       0.00000000

  Components of energy : 

--------------------------------------------------------------------------------
  Interatomic potentials     =           5.09689708 eV    
  Monopole - monopole (real) =         -10.02781331 eV    
  Monopole - monopole (recip)=         -29.51099824 eV    
  Monopole - monopole (total)=         -39.53881155 eV    
--------------------------------------------------------------------------------
  Total lattice energy       =         -34.44191447 eV    
--------------------------------------------------------------------------------
  Total lattice energy       =           -3323.1183 kJ/(mole unit cells)
--------------------------------------------------------------------------------

  Final asymmetric unit coordinates :

--------------------------------------------------------------------------------
   No.  Atomic        x           y           z         Radius
        Label       (Frac)      (Frac)      (Frac)       (Angs) 
--------------------------------------------------------------------------------
     1  Cl    c     0.000000    0.000000    0.000000    0.000000
     2  O     c     0.500000    0.500000    0.500000    0.000000
     3  Na    c     0.500000    0.500000    0.000000    0.000000
     4  Cl    s     0.000000    0.000000    0.000000    0.000000
     5  O     s     0.500000    0.500000    0.500000    0.000000
--------------------------------------------------------------------------------

  Final Cartesian lattice vectors (Angstroms) :

        4.507787    0.000000    0.000000
        0.000000    4.507787    0.000000
        0.000000    0.000000    4.507787


  Final cell parameters and derivatives :

--------------------------------------------------------------------------------
       a            4.507787 Angstrom     dE/de1(xx)     0.000000 eV/strain
       b            4.507787 Angstrom     dE/de2(yy)     0.000000 eV/strain
       c            4.507787 Angstrom     dE/de3(zz)     0.000000 eV/strain
       alpha       90.000000 Degrees      dE/de4(yz)     0.000000 eV/strain
       beta        90.000000 Degrees      dE/de5(xz)     0.000000 eV/strain
       gamma       90.000000 Degrees      dE/de6(xy)     0.000000 eV/strain
--------------------------------------------------------------------------------

  Primitive cell volume =            91.598892 Angs**3

  Density of cell =      2.183054 g/cm**3

  Non-primitive cell volume =            91.598892 Angs**3


  Final internal derivatives :

--------------------------------------------------------------------------------
   No.  Atomic          a             b             c           Radius
        Label          (eV)          (eV)          (eV)        (eV/Angs)
--------------------------------------------------------------------------------
      1 Cl    c       0.000000      0.000000      0.000000      0.000000
      2 O     c       0.000000      0.000000      0.000000      0.000000
      3 Na    c       0.000000      0.000000      0.000000      0.000000
      4 Cl    s       0.000000      0.000000      0.000000      0.000000
      5 O     s       0.000000      0.000000      0.000000      0.000000
--------------------------------------------------------------------------------
  Maximum abs         0.000000      0.000000      0.000000      0.000000
--------------------------------------------------------------------------------

  Comparison of initial and final structures : 

--------------------------------------------------------------------------------
  Parameter   Initial value   Final value   Difference    Units      Percent
--------------------------------------------------------------------------------
    Volume        91.368216     91.598892     0.230676    Angs**3      0.25
    a              4.504000      4.507787     0.003787    Angstroms    0.08
    b              4.504000      4.507787     0.003787    Angstroms    0.08
    c              4.504000      4.507787     0.003787    Angstroms    0.08
    alpha         90.000000     90.000000     0.000000    Degrees      0.00
    beta          90.000000     90.000000     0.000000    Degrees      0.00
    gamma         90.000000     90.000000     0.000000    Degrees      0.00
      1 x          0.000000      0.000000     0.000000    Fractional   0.00
      1 y          0.000000      0.000000     0.000000    Fractional   0.00
      1 z          0.000000      0.000000     0.000000    Fractional   0.00
      2 x          0.500000      0.500000     0.000000    Fractional   0.00
      2 y          0.500000      0.500000     0.000000    Fractional   0.00
      2 z          0.500000      0.500000     0.000000    Fractional   0.00
      3 x          0.500000      0.500000     0.000000    Fractional   0.00
      3 y          0.500000      0.500000     0.000000    Fractional   0.00
      3 z          0.000000      0.000000     0.000000    Fractional   0.00
      4 x          0.000000      0.000000     0.000000    Fractional   0.00
      4 y          0.000000      0.000000     0.000000    Fractional   0.00
      4 z          0.000000      0.000000     0.000000    Fractional   0.00
      5 x          0.500000      0.500000     0.000000    Fractional   0.00
      5 y          0.500000      0.500000     0.000000    Fractional   0.00
      5 z          0.500000      0.500000     0.000000    Fractional   0.00
--------------------------------------------------------------------------------


  Born effective charge tensors : 

-------------------------------------------------------------------------------
  Atom             x           y             z
-------------------------------------------------------------------------------
    1 Cl    x      -1.0181     -0.0000      0.0000
            y      -0.0000     -1.0181      0.0000
            z       0.0000      0.0000     -1.0181
-------------------------------------------------------------------------------
    2 O     x      -2.2647      0.0000     -0.0000
            y       0.0000     -2.2647     -0.0000
            z      -0.0000     -0.0000     -2.2647
-------------------------------------------------------------------------------
    3 Na    x       1.2258     -0.0000      0.0000
            y      -0.0000      1.2258     -0.0000
            z       0.0000     -0.0000      0.8313
-------------------------------------------------------------------------------




  Elastic Constant Matrix: (Units=GPa)

-------------------------------------------------------------------------------
  Indices      1         2         3         4         5         6    
-------------------------------------------------------------------------------
       1     95.8177   20.0737   20.0737   -0.0000   -0.0000    0.0000
       2     20.0737   95.8177   20.0737   -0.0000   -0.0000    0.0000
       3     20.0737   20.0737   95.8177   -0.0000   -0.0000    0.0000
       4     -0.0000   -0.0000   -0.0000   20.0737   -0.0000    0.0000
       5     -0.0000   -0.0000   -0.0000   -0.0000   20.0737    0.0000
       6      0.0000    0.0000    0.0000    0.0000    0.0000   20.0737
-------------------------------------------------------------------------------


  Elastic Compliance Matrix: (Units=1/GPa)

-------------------------------------------------------------------------------
  Indices      1         2         3         4         5         6    
-------------------------------------------------------------------------------
       1    0.011253 -0.001949 -0.001949  0.000000  0.000000 -0.000000
       2   -0.001949  0.011253 -0.001949  0.000000  0.000000  0.000000
       3   -0.001949 -0.001949  0.011253  0.000000  0.000000 -0.000000
       4    0.000000  0.000000  0.000000  0.049816  0.000000 -0.000000
       5    0.000000  0.000000  0.000000  0.000000  0.049816 -0.000000
       6   -0.000000  0.000000 -0.000000 -0.000000 -0.000000  0.049816
-------------------------------------------------------------------------------

  Mechanical properties :

-------------------------------------------------------------------------------
  Convention :                    Reuss         Voigt         Hill
-------------------------------------------------------------------------------
  Bulk  Modulus (GPa)     =      45.32174      45.32174      45.32174
  Shear Modulus (GPa)     =      24.72085      27.19304      25.95695
-------------------------------------------------------------------------------
  Velocity S-wave (km/s)  =       3.36511       3.52937       3.44822
  Velocity P-wave (km/s)  =       5.98827       6.11304       6.05098
-------------------------------------------------------------------------------
  Compressibility (1/GPa) =    0.02206447
-------------------------------------------------------------------------------
  Stress axis :                     x             y             z
-------------------------------------------------------------------------------
  Youngs Moduli (GPa)     =      88.86373      88.86373      88.86373
-------------------------------------------------------------------------------
  Poissons Ratio (x)      =                     0.17321       0.17321
  Poissons Ratio (y)      =       0.17321                     0.17321
  Poissons Ratio (z)      =       0.17321       0.17321
-------------------------------------------------------------------------------


  Piezoelectric Strain Matrix: (Units=C/m**2)

-------------------------------------------------------------------------------
  Indices      1         2         3         4         5         6    
-------------------------------------------------------------------------------
       x    -0.00000  -0.00000  -0.00000   0.00000  -0.00000  -0.00000
       y    -0.00000  -0.00000   0.00000  -0.00000   0.00000   0.00000
       z    -0.00000  -0.00000  -0.00000  -0.00000   0.00000   0.00000
-------------------------------------------------------------------------------


  Piezoelectric Stress Matrix: (Units=10**-11 C/N)

-------------------------------------------------------------------------------
  Indices      1         2         3         4         5         6    
-------------------------------------------------------------------------------
       x    -0.00000   0.00000   0.00000   0.00000  -0.00000  -0.00000
       y    -0.00000  -0.00000   0.00000  -0.00000   0.00000   0.00000
       z     0.00000   0.00000  -0.00000  -0.00000   0.00000   0.00000
-------------------------------------------------------------------------------


  Static dielectric constant tensor : 

-------------------------------------------------------------------------------
              x         y         z
-------------------------------------------------------------------------------
       x    22.84729   0.00000   0.00000
       y     0.00000  22.84729  -0.00000
       z     0.00000  -0.00000  22.84729
--------------------------------------------------------------------------------

  High frequency dielectric constant tensor : 

-------------------------------------------------------------------------------
              x         y         z
-------------------------------------------------------------------------------
       x     1.47557   0.00000  -0.00000
       y     0.00000   1.47557  -0.00000
       z    -0.00000  -0.00000   1.47557
-------------------------------------------------------------------------------

  Static refractive indices : 

-------------------------------------------------------------------------------
    1 =    4.77988      2 =    4.77988      3 =    4.77988
-------------------------------------------------------------------------------

  High frequency refractive indices : 

-------------------------------------------------------------------------------
    1 =    1.21473      2 =    1.21473      3 =    1.21473
-------------------------------------------------------------------------------


  Time to end of optimisation =       0.0279 seconds

********************************************************************************
*  Defect calculation for configuration   1 :                                  *
********************************************************************************

  Total number of defects =      3

  Total charge on defect  =  -1.00

  Defect centre is at   0.5000   0.4300   0.0700  Frac

  Region 1 radius =  12.0000      Number of ions =    562

  Number of symmetry inequivalent region 1 ions  =    327

  Region 2 radius =  16.0000      Number of ions =    743

  Number of symmetry inequivalent region 2a ions =    403

  Region 2a mode = 4 : screened electrostatics due to region 1 
                       neglect correction to region 1 forces from 2a
                       region 2a displacements based on defects only

  Region 2a ions will only interact with defects in region 1

  Vacancies:

--------------------------------------------------------------------------------
    Specification type     Symbol/Number         x          y          z
--------------------------------------------------------------------------------
    Fractional                               0.500000   0.500000   0.000000
    Fractional                               0.500000   0.000000   0.500000
--------------------------------------------------------------------------------

  Interstitials:

--------------------------------------------------------------------------------
    Specification type     Symbol/Number         x          y          z
--------------------------------------------------------------------------------
    Atom/Fractional         Na               0.500000   0.430000   0.070000
--------------------------------------------------------------------------------


  Symmetry reduced region 1 (Relative to defect centre) :

--------------------------------------------------------------------------------
   No.   Atomic       x            y             z       Radius  Multiplicity   
         Label      (Angs)       (Angs)        (Angs)    (Angs)     
--------------------------------------------------------------------------------
     1  Na    c      0.0000       0.0000       0.0000    0.0000     1    Defect
     2  O     c      0.0000       0.3155 *     1.9383 *  0.0000     1          
     3  O     c      0.0000       0.3155 *    -2.5694 *  0.0000     1          
     4  Na    c      2.2539 *     0.3155 *     1.9383 *  0.0000     2          
     5  Cl    c      2.2539 *    -1.9383 *    -0.3155 *  0.0000     2          
     6  Na    c      0.0000       2.5694 *     1.9383 *  0.0000     1          
     7  Na    c      0.0000      -1.9383 *    -2.5694 *  0.0000     1          
     8  Cl    c      2.2539 *     2.5694 *    -0.3155 *  0.0000     2          
     9  Na    c      2.2539 *     0.3155 *    -2.5694 *  0.0000     2          
    10  Na    c      0.0000       2.5694 *    -2.5694 *  0.0000     1          
    11  Na    c      0.0000       0.3155 *     4.1922 *  0.0000     1          
    12  Na    c      0.0000      -4.1922 *    -0.3155 *  0.0000     1          
    13  Na    c     -4.5078 *     0.3155 *    -0.3155 *  0.0000     2          
    14  O     c      0.0000      -4.1922 *     1.9383 *  0.0000     1          
    15  Na    c      0.0000       0.3155 *    -4.8233 *  0.0000     1          
    16  Na    c      0.0000       4.8233 *    -0.3155 *  0.0000     1          
    17  O     c     -4.5078 *     0.3155 *     1.9383 *  0.0000     2          
    18  O     c      0.0000      -4.1922 *    -2.5694 *  0.0000     1          
    19  Na    c      2.2539 *    -4.1922 *     1.9383 *  0.0000     2          
    20  Cl    c      2.2539 *    -1.9383 *     4.1922 *  0.0000     2          
    21  O     c      0.0000       4.8233 *     1.9383 *  0.0000     1          
    22  O     c     -4.5078 *     0.3155 *    -2.5694 *  0.0000     2          
    23  Na    c     -4.5078 *    -1.9383 *     1.9383 *  0.0000     2          
    24  Cl    c      2.2539 *     2.5694 *     4.1922 *  0.0000     2          
    25  Na    c      2.2539 *    -4.1922 *    -2.5694 *  0.0000     2          
    26  O     c      0.0000       4.8233 *    -2.5694 *  0.0000     1          
    27  Na    c     -4.5078 *     2.5694 *     1.9383 *  0.0000     2          
    28  Na    c     -4.5078 *    -1.9383 *    -2.5694 *  0.0000     2          
    29  Na    c      2.2539 *     4.8233 *     1.9383 *  0.0000     2          
    30  Cl    c      2.2539 *    -1.9383 *    -4.8233 *  0.0000     2          
    31  Na    c      4.5078 *     2.5694 *    -2.5694 *  0.0000     2          
    32  Cl    c      2.2539 *     2.5694 *    -4.8233 *  0.0000     2          
    33  Na    c      2.2539 *     4.8233 *    -2.5694 *  0.0000     2          
    34  Na    c      0.0000      -4.1922 *     4.1922 *  0.0000     1          
    35  Na    c     -4.5078 *     0.3155 *     4.1922 *  0.0000     2          
    36  Na    c     -4.5078 *    -4.1922 *    -0.3155 *  0.0000     2          
    37  Na    c      0.0000       4.8233 *     4.1922 *  0.0000     1          
    38  Na    c      0.0000      -4.1922 *    -4.8233 *  0.0000     1          
    39  O     c      0.0000       0.3155 *     6.4461 *  0.0000     1          
    40  O     c     -4.5078 *    -4.1922 *     1.9383 *  0.0000     2          
    41  Na    c     -4.5078 *     0.3155 *    -4.8233 *  0.0000     2          
    42  Na    c     -4.5078 *     4.8233 *    -0.3155 *  0.0000     2          
    43  O     c      4.5078 *    -4.1922 *    -2.5694 *  0.0000     2          
    44  Na    c      0.0000      -1.9383 *     6.4461 *  0.0000     1          
    45  Na    c      0.0000      -6.4461 *     1.9383 *  0.0000     1          
    46  Na    c      0.0000       4.8233 *    -4.8233 *  0.0000     1          
    47  Cl    c      2.2539 *    -6.4461 *    -0.3155 *  0.0000     2          
    48  Na    c      2.2539 *     0.3155 *     6.4461 *  0.0000     2          
    49  O     c     -4.5078 *     4.8233 *     1.9383 *  0.0000     2          
    50  Na    c      0.0000       2.5694 *     6.4461 *  0.0000     1          
    51  Na    c      0.0000      -6.4461 *    -2.5694 *  0.0000     1          
    52  Cl    c      6.7617 *    -1.9383 *    -0.3155 *  0.0000     2          
    53  Na    c      6.7617 *     0.3155 *     1.9383 *  0.0000     2          
    54  O     c      0.0000       0.3155 *    -7.0772 *  0.0000     1          
    55  O     c      4.5078 *     4.8233 *    -2.5694 *  0.0000     2          
    56  Cl    c      6.7617 *     2.5694 *    -0.3155 *  0.0000     2          
    57  Na    c      6.7617 *     0.3155 *    -2.5694 *  0.0000     2          
    58  Na    c      0.0000       7.0772 *     1.9383 *  0.0000     1          
    59  Na    c      0.0000      -1.9383 *    -7.0772 *  0.0000     1          
    60  Cl    c      2.2539 *     7.0772 *    -0.3155 *  0.0000     2          
    61  Na    c      2.2539 *     0.3155 *    -7.0772 *  0.0000     2          
    62  Na    c      4.5078 *    -4.1922 *     4.1922 *  0.0000     2          
    63  Na    c      0.0000       7.0772 *    -2.5694 *  0.0000     1          
    64  Na    c      0.0000       2.5694 *    -7.0772 *  0.0000     1          
    65  O     c      0.0000      -4.1922 *     6.4461 *  0.0000     1          
    66  Na    c      4.5078 *     4.8233 *     4.1922 *  0.0000     2          
    67  Na    c      4.5078 *    -4.1922 *    -4.8233 *  0.0000     2          
    68  O     c     -4.5078 *     0.3155 *     6.4461 *  0.0000     2          
    69  Cl    c      2.2539 *    -6.4461 *     4.1922 *  0.0000     2          
    70  Na    c      2.2539 *    -4.1922 *     6.4461 *  0.0000     2          
    71  O     c      0.0000       4.8233 *     6.4461 *  0.0000     1          
    72  Na    c      4.5078 *    -6.4461 *     1.9383 *  0.0000     2          
    73  Na    c      4.5078 *    -1.9383 *     6.4461 *  0.0000     2          
    74  Na    c      4.5078 *     4.8233 *    -4.8233 *  0.0000     2          
    75  Cl    c      6.7617 *    -1.9383 *     4.1922 *  0.0000     2          
    76  Na    c      6.7617 *    -4.1922 *     1.9383 *  0.0000     2          
    77  O     c      0.0000      -4.1922 *    -7.0772 *  0.0000     1          
    78  Na    c      4.5078 *     2.5694 *     6.4461 *  0.0000     2          
    79  Na    c      4.5078 *    -6.4461 *    -2.5694 *  0.0000     2          
    80  Cl    c      2.2539 *    -6.4461 *    -4.8233 *  0.0000     2          
    81  Na    c      2.2539 *     4.8233 *     6.4461 *  0.0000     2          
    82  Cl    c      6.7617 *     2.5694 *     4.1922 *  0.0000     2          
    83  Na    c      6.7617 *    -4.1922 *    -2.5694 *  0.0000     2          
    84  O     c     -4.5078 *     0.3155 *    -7.0772 *  0.0000     2          
    85  Cl    c      2.2539 *     7.0772 *     4.1922 *  0.0000     2          
    86  Cl    c      6.7617 *    -1.9383 *    -4.8233 *  0.0000     2          
    87  Na    c      2.2539 *    -4.1922 *    -7.0772 *  0.0000     2          
    88  Na    c      6.7617 *     4.8233 *     1.9383 *  0.0000     2          
    89  O     c      0.0000       4.8233 *    -7.0772 *  0.0000     1          
    90  Na    c      4.5078 *     7.0772 *     1.9383 *  0.0000     2          
    91  Na    c     -4.5078 *    -1.9383 *    -7.0772 *  0.0000     2          
    92  Cl    c      6.7617 *     2.5694 *    -4.8233 *  0.0000     2          
    93  Na    c      6.7617 *     4.8233 *    -2.5694 *  0.0000     2          
    94  Na    c      0.0000       0.3155 *     8.7000 *  0.0000     1          
    95  Na    c      0.0000      -8.7000 *    -0.3155 *  0.0000     1          
    96  Na    c      4.5078 *     7.0772 *    -2.5694 *  0.0000     2          
    97  Na    c     -4.5078 *     2.5694 *    -7.0772 *  0.0000     2          
    98  Cl    c      2.2539 *     7.0772 *    -4.8233 *  0.0000     2          
    99  Na    c      2.2539 *     4.8233 *    -7.0772 *  0.0000     2          
   100  O     c     -4.5078 *    -4.1922 *     6.4461 *  0.0000     2          
   101  O     c      0.0000      -8.7000 *     1.9383 *  0.0000     1          
   102  Na    c      9.0156 *     0.3155 *    -0.3155 *  0.0000     2          
   103  O     c      0.0000      -8.7000 *    -2.5694 *  0.0000     1          
   104  Na    c      0.0000      -6.4461 *     6.4461 *  0.0000     1          
   105  Na    c      2.2539 *    -8.7000 *     1.9383 *  0.0000     2          
   106  Cl    c      2.2539 *    -1.9383 *     8.7000 *  0.0000     2          
   107  O     c     -4.5078 *     4.8233 *     6.4461 *  0.0000     2          
   108  O     c      9.0156 *     0.3155 *     1.9383 *  0.0000     2          
   109  Na    c      0.0000       0.3155 *    -9.3311 *  0.0000     1          
   110  Na    c      0.0000       9.3311 *    -0.3155 *  0.0000     1          
   111  Cl    c      6.7617 *    -6.4461 *    -0.3155 *  0.0000     2          
   112  Na    c      6.7617 *     0.3155 *     6.4461 *  0.0000     2          
   113  Cl    c      2.2539 *     2.5694 *     8.7000 *  0.0000     2          
   114  Na    c      2.2539 *    -8.7000 *    -2.5694 *  0.0000     2          
   115  O     c      4.5078 *    -4.1922 *    -7.0772 *  0.0000     2          
   116  O     c      9.0156 *     0.3155 *    -2.5694 *  0.0000     2          
   117  Na    c      9.0156 *    -1.9383 *     1.9383 *  0.0000     2          
   118  O     c      0.0000       9.3311 *     1.9383 *  0.0000     1          
   119  Na    c      0.0000       7.0772 *     6.4461 *  0.0000     1          
   120  Na    c      0.0000      -6.4461 *    -7.0772 *  0.0000     1          
   121  Na    c      9.0156 *     2.5694 *     1.9383 *  0.0000     2          
   122  Na    c      9.0156 *    -1.9383 *    -2.5694 *  0.0000     2          
   123  Na    c      0.0000      -4.1922 *     8.7000 *  0.0000     1          
   124  Na    c      0.0000      -8.7000 *     4.1922 *  0.0000     1          
   125  O     c      0.0000       9.3311 *    -2.5694 *  0.0000     1          
   126  O     c      4.5078 *     4.8233 *    -7.0772 *  0.0000     2          
   127  Na    c      9.0156 *     2.5694 *    -2.5694 *  0.0000     2          
   128  Na    c      2.2539 *     9.3311 *     1.9383 *  0.0000     2          
   129  Cl    c      2.2539 *    -1.9383 *    -9.3311 *  0.0000     2          
   130  Cl    c      6.7617 *     7.0772 *    -0.3155 *  0.0000     2          
   131  Na    c      6.7617 *     0.3155 *    -7.0772 *  0.0000     2          
   132  Na    c      4.5078 *     0.3155 *     8.7000 *  0.0000     2          
   133  Na    c     -4.5078 *    -8.7000 *    -0.3155 *  0.0000     2          
   134  Cl    c      2.2539 *     2.5694 *    -9.3311 *  0.0000     2          
   135  Na    c      2.2539 *     9.3311 *    -2.5694 *  0.0000     2          
   136  Na    c      0.0000       4.8233 *     8.7000 *  0.0000     1          
   137  Na    c      0.0000      -8.7000 *    -4.8233 *  0.0000     1          
   138  Na    c      9.0156 *     0.3155 *     4.1922 *  0.0000     2          
   139  Na    c      9.0156 *    -4.1922 *    -0.3155 *  0.0000     2          
   140  O     c     -4.5078 *    -8.7000 *     1.9383 *  0.0000     2          
   141  Na    c      0.0000       7.0772 *    -7.0772 *  0.0000     1          
   142  O     c      9.0156 *    -4.1922 *     1.9383 *  0.0000     2          
   143  O     c     -4.5078 *    -8.7000 *    -2.5694 *  0.0000     2          
   144  Na    c      4.5078 *    -6.4461 *     6.4461 *  0.0000     2          
   145  Na    c      0.0000       9.3311 *     4.1922 *  0.0000     1          
   146  Na    c      0.0000      -4.1922 *    -9.3311 *  0.0000     1          
   147  Na    c      9.0156 *     0.3155 *    -4.8233 *  0.0000     2          
   148  Na    c      9.0156 *     4.8233 *    -0.3155 *  0.0000     2          
   149  Cl    c      6.7617 *    -6.4461 *     4.1922 *  0.0000     2          
   150  Na    c      6.7617 *    -4.1922 *     6.4461 *  0.0000     2          
   151  O     c      9.0156 *    -4.1922 *    -2.5694 *  0.0000     2          
   152  Na    c      4.5078 *     0.3155 *    -9.3311 *  0.0000     2          
   153  Na    c     -4.5078 *     9.3311 *    -0.3155 *  0.0000     2          
   154  O     c      9.0156 *     4.8233 *     1.9383 *  0.0000     2          
   155  Na    c      0.0000       4.8233 *    -9.3311 *  0.0000     1          
   156  Na    c      0.0000       9.3311 *    -4.8233 *  0.0000     1          
   157  Cl    c      6.7617 *    -6.4461 *    -4.8233 *  0.0000     2          
   158  Na    c      6.7617 *     4.8233 *     6.4461 *  0.0000     2          
   159  O     c     -4.5078 *     9.3311 *     1.9383 *  0.0000     2          
   160  O     c      9.0156 *     4.8233 *    -2.5694 *  0.0000     2          
   161  Na    c      4.5078 *     7.0772 *     6.4461 *  0.0000     2          
   162  Na    c      4.5078 *    -6.4461 *    -7.0772 *  0.0000     2          
   163  Cl    c      6.7617 *     7.0772 *     4.1922 *  0.0000     2          
   164  Na    c      6.7617 *    -4.1922 *    -7.0772 *  0.0000     2          
   165  Na    c     -4.5078 *    -4.1922 *     8.7000 *  0.0000     2          
   166  Na    c     -4.5078 *    -8.7000 *     4.1922 *  0.0000     2          
   167  O     c     -4.5078 *     9.3311 *    -2.5694 *  0.0000     2          
   168  Na    c      9.0156 *    -4.1922 *     4.1922 *  0.0000     2          
   169  O     c      0.0000      -8.7000 *     6.4461 *  0.0000     1          
   170  Cl    c      6.7617 *     7.0772 *    -4.8233 *  0.0000     2          
   171  Na    c      6.7617 *     4.8233 *    -7.0772 *  0.0000     2          
   172  Na    c     -4.5078 *     4.8233 *     8.7000 *  0.0000     2          
   173  Na    c     -4.5078 *    -8.7000 *    -4.8233 *  0.0000     2          
   174  O     c      0.0000       0.3155 *    10.9539 *  0.0000     1          
   175  Na    c      4.5078 *     7.0772 *    -7.0772 *  0.0000     2          
   176  Na    c      9.0156 *     4.8233 *     4.1922 *  0.0000     2          
   177  Na    c      9.0156 *    -4.1922 *    -4.8233 *  0.0000     2          
   178  Cl    c      2.2539 *    -6.4461 *     8.7000 *  0.0000     2          
   179  Na    c      2.2539 *    -8.7000 *     6.4461 *  0.0000     2          
   180  O     c      9.0156 *     0.3155 *     6.4461 *  0.0000     2          
   181  Na    c      0.0000     -10.9539 *     1.9383 *  0.0000     1          
   182  Na    c      0.0000      -1.9383 *    10.9539 *  0.0000     1          
   183  Na    c     -4.5078 *     9.3311 *     4.1922 *  0.0000     2          
   184  Na    c     -4.5078 *    -4.1922 *    -9.3311 *  0.0000     2          
   185  Cl    c      2.2539 *   -10.9539 *    -0.3155 *  0.0000     2          
   186  Na    c      2.2539 *     0.3155 *    10.9539 *  0.0000     2          
   187  Cl    c      6.7617 *    -1.9383 *     8.7000 *  0.0000     2          
   188  Na    c      6.7617 *    -8.7000 *     1.9383 *  0.0000     2          
   189  O     c      0.0000      -8.7000 *    -7.0772 *  0.0000     1          
   190  Na    c      0.0000       2.5694 *    10.9539 *  0.0000     1          
   191  Na    c      0.0000     -10.9539 *    -2.5694 *  0.0000     1          
   192  Na    c      9.0156 *    -6.4461 *     1.9383 *  0.0000     2          
   193  Na    c      9.0156 *    -1.9383 *     6.4461 *  0.0000     2          
   194  Na    c      9.0156 *     4.8233 *    -4.8233 *  0.0000     2          
   195  Cl    c      6.7617 *     2.5694 *     8.7000 *  0.0000     2          
   196  Na    c      6.7617 *    -8.7000 *    -2.5694 *  0.0000     2          
   197  O     c      0.0000       9.3311 *     6.4461 *  0.0000     1          
   198  Na    c      9.0156 *     2.5694 *     6.4461 *  0.0000     2          
   199  Na    c      9.0156 *    -6.4461 *    -2.5694 *  0.0000     2          
   200  Na    c     -4.5078 *     9.3311 *    -4.8233 *  0.0000     2          
   201  Na    c      4.5078 *     4.8233 *    -9.3311 *  0.0000     2          
   202  Cl    c     11.2695 *    -1.9383 *    -0.3155 *  0.0000     2          
   203  Na    c     11.2695 *     0.3155 *     1.9383 *  0.0000     2          
   204  Cl    c      2.2539 *     7.0772 *     8.7000 *  0.0000     2          
   205  Na    c      2.2539 *    -8.7000 *    -7.0772 *  0.0000     2          
   206  O     c      9.0156 *     0.3155 *    -7.0772 *  0.0000     2          
   207  Cl    c      2.2539 *    -6.4461 *    -9.3311 *  0.0000     2          
   208  Cl    c     11.2695 *     2.5694 *    -0.3155 *  0.0000     2          
   209  Na    c      2.2539 *     9.3311 *     6.4461 *  0.0000     2          
   210  Na    c     11.2695 *     0.3155 *    -2.5694 *  0.0000     2          
   211  O     c      0.0000       0.3155 *   -11.5850 *  0.0000     1          
   212  Na    c      9.0156 *     7.0772 *     1.9383 *  0.0000     2          
   213  Na    c      9.0156 *    -1.9383 *    -7.0772 *  0.0000     2          
   214  Cl    c      6.7617 *    -1.9383 *    -9.3311 *  0.0000     2          
   215  Na    c      6.7617 *     9.3311 *     1.9383 *  0.0000     2          
   216  O     c      0.0000       9.3311 *    -7.0772 *  0.0000     1          
   217  O     c      0.0000      -4.1922 *    10.9539 *  0.0000     1          
   218  O     c      4.5078 *    -8.7000 *     6.4461 *  0.0000     2          
   219  Na    c      9.0156 *     7.0772 *    -2.5694 *  0.0000     2          
   220  Na    c      0.0000      11.5850 *     1.9383 *  0.0000     1          
   221  Na    c      0.0000      -1.9383 *   -11.5850 *  0.0000     1          
   222  Na    c      9.0156 *     2.5694 *    -7.0772 *  0.0000     2          
   223  Cl    c      6.7617 *     2.5694 *    -9.3311 *  0.0000     2          
   224  Na    c      6.7617 *     9.3311 *    -2.5694 *  0.0000     2          
   225  Cl    c      2.2539 *    11.5850 *    -0.3155 *  0.0000     2          
   226  Na    c      2.2539 *     0.3155 *   -11.5850 *  0.0000     2          
   227  O     c      4.5078 *     0.3155 *    10.9539 *  0.0000     2          
   228  O     c      9.0156 *    -4.1922 *     6.4461 *  0.0000     2          
   229  Na    c      0.0000       2.5694 *   -11.5850 *  0.0000     1          
   230  Na    c      0.0000      11.5850 *    -2.5694 *  0.0000     1          
   231  Cl    c      2.2539 *     7.0772 *    -9.3311 *  0.0000     2          
   232  Na    c      2.2539 *     9.3311 *    -7.0772 *  0.0000     2          
   233  Cl    c      2.2539 *   -10.9539 *     4.1922 *  0.0000     2          
   234  Na    c      2.2539 *    -4.1922 *    10.9539 *  0.0000     2          
   235  O     c      0.0000       4.8233 *    10.9539 *  0.0000     1          
   236  O     s      0.0000       0.3155 *     1.9383 *  0.0000     1          
   237  O     s      0.0000       0.3155 *    -2.5694 *  0.0000     1          
   238  Cl    s      2.2539 *    -1.9383 *    -0.3155 *  0.0000     2          
   239  Cl    s      2.2539 *     2.5694 *    -0.3155 *  0.0000     2          
   240  O     s      0.0000      -4.1922 *     1.9383 *  0.0000     1          
   241  O     s     -4.5078 *     0.3155 *     1.9383 *  0.0000     2          
   242  O     s      0.0000      -4.1922 *    -2.5694 *  0.0000     1          
   243  Cl    s      2.2539 *    -1.9383 *     4.1922 *  0.0000     2          
   244  O     s      0.0000       4.8233 *     1.9383 *  0.0000     1          
   245  O     s     -4.5078 *     0.3155 *    -2.5694 *  0.0000     2          
   246  Cl    s      2.2539 *     2.5694 *     4.1922 *  0.0000     2          
   247  O     s      0.0000       4.8233 *    -2.5694 *  0.0000     1          
   248  Cl    s      2.2539 *    -1.9383 *    -4.8233 *  0.0000     2          
   249  Cl    s      2.2539 *     2.5694 *    -4.8233 *  0.0000     2          
   250  O     s      0.0000       0.3155 *     6.4461 *  0.0000     1          
   251  O     s     -4.5078 *    -4.1922 *     1.9383 *  0.0000     2          
   252  O     s      4.5078 *    -4.1922 *    -2.5694 *  0.0000     2          
   253  Cl    s      2.2539 *    -6.4461 *    -0.3155 *  0.0000     2          
   254  O     s     -4.5078 *     4.8233 *     1.9383 *  0.0000     2          
   255  Cl    s      6.7617 *    -1.9383 *    -0.3155 *  0.0000     2          
   256  O     s      0.0000       0.3155 *    -7.0772 *  0.0000     1          
   257  O     s      4.5078 *     4.8233 *    -2.5694 *  0.0000     2          
   258  Cl    s      6.7617 *     2.5694 *    -0.3155 *  0.0000     2          
   259  Cl    s      2.2539 *     7.0772 *    -0.3155 *  0.0000     2          
   260  O     s      0.0000      -4.1922 *     6.4461 *  0.0000     1          
   261  O     s     -4.5078 *     0.3155 *     6.4461 *  0.0000     2          
   262  Cl    s      2.2539 *    -6.4461 *     4.1922 *  0.0000     2          
   263  O     s      0.0000       4.8233 *     6.4461 *  0.0000     1          
   264  Cl    s      6.7617 *    -1.9383 *     4.1922 *  0.0000     2          
   265  O     s      0.0000      -4.1922 *    -7.0772 *  0.0000     1          
   266  Cl    s      2.2539 *    -6.4461 *    -4.8233 *  0.0000     2          
   267  Cl    s      6.7617 *     2.5694 *     4.1922 *  0.0000     2          
   268  O     s     -4.5078 *     0.3155 *    -7.0772 *  0.0000     2          
   269  Cl    s      2.2539 *     7.0772 *     4.1922 *  0.0000     2          
   270  Cl    s      6.7617 *    -1.9383 *    -4.8233 *  0.0000     2          
   271  O     s      0.0000       4.8233 *    -7.0772 *  0.0000     1          
   272  Cl    s      6.7617 *     2.5694 *    -4.8233 *  0.0000     2          
   273  Cl    s      2.2539 *     7.0772 *    -4.8233 *  0.0000     2          
   274  O     s     -4.5078 *    -4.1922 *     6.4461 *  0.0000     2          
   275  O     s      0.0000      -8.7000 *     1.9383 *  0.0000     1          
   276  O     s      0.0000      -8.7000 *    -2.5694 *  0.0000     1          
   277  Cl    s      2.2539 *    -1.9383 *     8.7000 *  0.0000     2          
   278  O     s     -4.5078 *     4.8233 *     6.4461 *  0.0000     2          
   279  O     s      9.0156 *     0.3155 *     1.9383 *  0.0000     2          
   280  Cl    s      6.7617 *    -6.4461 *    -0.3155 *  0.0000     2          
   281  Cl    s      2.2539 *     2.5694 *     8.7000 *  0.0000     2          
   282  O     s      4.5078 *    -4.1922 *    -7.0772 *  0.0000     2          
   283  O     s      9.0156 *     0.3155 *    -2.5694 *  0.0000     2          
   284  O     s      0.0000       9.3311 *     1.9383 *  0.0000     1          
   285  O     s      0.0000       9.3311 *    -2.5694 *  0.0000     1          
   286  O     s      4.5078 *     4.8233 *    -7.0772 *  0.0000     2          
   287  Cl    s      2.2539 *    -1.9383 *    -9.3311 *  0.0000     2          
   288  Cl    s      6.7617 *     7.0772 *    -0.3155 *  0.0000     2          
   289  Cl    s      2.2539 *     2.5694 *    -9.3311 *  0.0000     2          
   290  O     s     -4.5078 *    -8.7000 *     1.9383 *  0.0000     2          
   291  O     s      9.0156 *    -4.1922 *     1.9383 *  0.0000     2          
   292  O     s     -4.5078 *    -8.7000 *    -2.5694 *  0.0000     2          
   293  Cl    s      6.7617 *    -6.4461 *     4.1922 *  0.0000     2          
   294  O     s      9.0156 *    -4.1922 *    -2.5694 *  0.0000     2          
   295  O     s      9.0156 *     4.8233 *     1.9383 *  0.0000     2          
   296  Cl    s      6.7617 *    -6.4461 *    -4.8233 *  0.0000     2          
   297  O     s     -4.5078 *     9.3311 *     1.9383 *  0.0000     2          
   298  O     s      9.0156 *     4.8233 *    -2.5694 *  0.0000     2          
   299  Cl    s      6.7617 *     7.0772 *     4.1922 *  0.0000     2          
   300  O     s     -4.5078 *     9.3311 *    -2.5694 *  0.0000     2          
   301  O     s      0.0000      -8.7000 *     6.4461 *  0.0000     1          
   302  Cl    s      6.7617 *     7.0772 *    -4.8233 *  0.0000     2          
   303  O     s      0.0000       0.3155 *    10.9539 *  0.0000     1          
   304  Cl    s      2.2539 *    -6.4461 *     8.7000 *  0.0000     2          
   305  O     s      9.0156 *     0.3155 *     6.4461 *  0.0000     2          
   306  Cl    s      2.2539 *   -10.9539 *    -0.3155 *  0.0000     2          
   307  Cl    s      6.7617 *    -1.9383 *     8.7000 *  0.0000     2          
   308  O     s      0.0000      -8.7000 *    -7.0772 *  0.0000     1          
   309  Cl    s      6.7617 *     2.5694 *     8.7000 *  0.0000     2          
   310  O     s      0.0000       9.3311 *     6.4461 *  0.0000     1          
   311  Cl    s     11.2695 *    -1.9383 *    -0.3155 *  0.0000     2          
   312  Cl    s      2.2539 *     7.0772 *     8.7000 *  0.0000     2          
   313  O     s      9.0156 *     0.3155 *    -7.0772 *  0.0000     2          
   314  Cl    s      2.2539 *    -6.4461 *    -9.3311 *  0.0000     2          
   315  Cl    s     11.2695 *     2.5694 *    -0.3155 *  0.0000     2          
   316  O     s      0.0000       0.3155 *   -11.5850 *  0.0000     1          
   317  Cl    s      6.7617 *    -1.9383 *    -9.3311 *  0.0000     2          
   318  O     s      0.0000       9.3311 *    -7.0772 *  0.0000     1          
   319  O     s      0.0000      -4.1922 *    10.9539 *  0.0000     1          
   320  O     s      4.5078 *    -8.7000 *     6.4461 *  0.0000     2          
   321  Cl    s      6.7617 *     2.5694 *    -9.3311 *  0.0000     2          
   322  Cl    s      2.2539 *    11.5850 *    -0.3155 *  0.0000     2          
   323  O     s      4.5078 *     0.3155 *    10.9539 *  0.0000     2          
   324  O     s      9.0156 *    -4.1922 *     6.4461 *  0.0000     2          
   325  Cl    s      2.2539 *     7.0772 *    -9.3311 *  0.0000     2          
   326  Cl    s      2.2539 *   -10.9539 *     4.1922 *  0.0000     2          
   327  O     s      0.0000       4.8233 *    10.9539 *  0.0000     1          
--------------------------------------------------------------------------------

  Components of defect energy : 

--------------------------------------------------------------------------------
  Region 1 - region 1                   =      4.93670532 eV
  Region 1 - region 2a (unrelaxed)      =      3.49940100 eV
  Region 1 - 2a (relaxed - correction)  =     -0.29129009 eV
  Region 1 (Total)                      =      8.14481622 eV
  Region 2a                             =      0.14556267 eV
  Region 2b                             =     -0.43666388 eV
--------------------------------------------------------------------------------
  Total defect energy                   =      7.85371502 eV
--------------------------------------------------------------------------------

  Largest displacement in region 2 =   0.0261 Angstroms


  Number of variables =      887

  Maximum number of calculations  =        1000
  Maximum Hessian update interval =          10
  Maximum step size               =   1.0000000
  Maximum parameter tolerance     =   0.0000100
  Maximum function  tolerance     =   0.0000100
  Maximum gradient  tolerance     =   0.0010000

  Symmetry adapted optimisation

  Symmetry to be used for second derivatives

  Newton-Raphson optimiser to be used

  BFGS hessian update to be used

  Lower half triangular hessian to be used

  Start of defect optimisation :

  Cycle:      0 Defect Energy:   7.853715  Gnorm:     0.018426  CPU:    2.889
  ** Hessian calculated **
  Cycle:      1 Defect Energy:   6.971330  Gnorm:     0.015166  CPU:   13.128
  Cycle:      2 Defect Energy:   6.620070  Gnorm:     0.013422  CPU:   19.332
  ** Hessian calculated **
  Cycle:      3 Defect Energy:   5.618054  Gnorm:     0.004283  CPU:   24.958
  Cycle:      4 Defect Energy:   5.534048  Gnorm:     0.002896  CPU:   25.957
  Cycle:      5 Defect Energy:   5.443889  Gnorm:     0.002372  CPU:   26.967
  Cycle:      6 Defect Energy:   5.347579  Gnorm:     0.002009  CPU:   27.979
  Cycle:      7 Defect Energy:   5.268919  Gnorm:     0.001883  CPU:   29.060
  Cycle:      8 Defect Energy:   5.209625  Gnorm:     0.001859  CPU:   30.054
  Cycle:      9 Defect Energy:   5.162220  Gnorm:     0.001919  CPU:   31.042
  Cycle:     10 Defect Energy:   5.117277  Gnorm:     0.002126  CPU:   31.915
  Cycle:     11 Defect Energy:   5.068158  Gnorm:     0.002074  CPU:   32.688
  Cycle:     12 Defect Energy:   5.016115  Gnorm:     0.002140  CPU:   33.726
  ** Hessian calculated **
  Cycle:     13 Defect Energy:   4.995290  Gnorm:     0.001847  CPU:   36.221
  Cycle:     14 Defect Energy:   4.971155  Gnorm:     0.001760  CPU:   37.163
  Cycle:     15 Defect Energy:   4.942525  Gnorm:     0.001651  CPU:   38.172
  Cycle:     16 Defect Energy:   4.910339  Gnorm:     0.001616  CPU:   38.734
  Cycle:     17 Defect Energy:   4.880326  Gnorm:     0.001614  CPU:   42.862
  Cycle:     18 Defect Energy:   4.851916  Gnorm:     0.001620  CPU:   44.498
  Cycle:     19 Defect Energy:   4.824099  Gnorm:     0.001669  CPU:   45.622
  Cycle:     20 Defect Energy:   4.795456  Gnorm:     0.001683  CPU:   46.794
  Cycle:     21 Defect Energy:   4.768578  Gnorm:     0.001666  CPU:   48.000
  Cycle:     22 Defect Energy:   4.741496  Gnorm:     0.001633  CPU:   49.267
  ** Hessian calculated **
  Cycle:     23 Defect Energy:   4.729168  Gnorm:     0.001502  CPU:   52.241
  Cycle:     24 Defect Energy:   4.714034  Gnorm:     0.001474  CPU:   53.417
  Cycle:     25 Defect Energy:   4.694795  Gnorm:     0.001393  CPU:   54.511
  Cycle:     26 Defect Energy:   4.677026  Gnorm:     0.001372  CPU:   55.593
  Cycle:     27 Defect Energy:   4.661928  Gnorm:     0.001357  CPU:   56.684
  Cycle:     28 Defect Energy:   4.646940  Gnorm:     0.001362  CPU:   57.753
  Cycle:     29 Defect Energy:   4.629254  Gnorm:     0.001403  CPU:   58.780
  Cycle:     30 Defect Energy:   4.607762  Gnorm:     0.001436  CPU:   59.894
  Cycle:     31 Defect Energy:   4.583686  Gnorm:     0.001470  CPU:   60.897
  Cycle:     32 Defect Energy:   4.561269  Gnorm:     0.001521  CPU:   61.908
  ** Hessian calculated **
  Cycle:     33 Defect Energy:   4.547445  Gnorm:     0.001412  CPU:   64.526
  Cycle:     34 Defect Energy:   4.530600  Gnorm:     0.001371  CPU:   65.521
  Cycle:     35 Defect Energy:   4.509455  Gnorm:     0.001283  CPU:   66.516
  Cycle:     36 Defect Energy:   4.489072  Gnorm:     0.001233  CPU:   67.601
  Cycle:     37 Defect Energy:   4.474496  Gnorm:     0.001215  CPU:   68.552
  Cycle:     38 Defect Energy:   4.461820  Gnorm:     0.001214  CPU:   69.509
  Cycle:     39 Defect Energy:   4.449524  Gnorm:     0.001235  CPU:   70.456
  Cycle:     40 Defect Energy:   4.437095  Gnorm:     0.001245  CPU:   71.420
  Cycle:     41 Defect Energy:   4.425011  Gnorm:     0.001277  CPU:   72.382
  Cycle:     42 Defect Energy:   4.413505  Gnorm:     0.001282  CPU:   73.411
  ** Hessian calculated **
  Cycle:     43 Defect Energy:   4.354890  Gnorm:     0.001064  CPU:   78.927
  Cycle:     44 Defect Energy:   4.293343  Gnorm:     0.000747  CPU:   80.121
  Cycle:     45 Defect Energy:   4.266216  Gnorm:     0.000519  CPU:   81.329
  Cycle:     46 Defect Energy:   4.255179  Gnorm:     0.000404  CPU:   82.518
  ** Hessian calculated **
  Cycle:     47 Defect Energy:   4.248195  Gnorm:     0.000284  CPU:   85.608
  Cycle:     48 Defect Energy:   4.244740  Gnorm:     0.000204  CPU:   86.736
  Cycle:     49 Defect Energy:   4.242933  Gnorm:     0.000150  CPU:   87.860
  Cycle:     50 Defect Energy:   4.241939  Gnorm:     0.000094  CPU:   89.042
  Cycle:     51 Defect Energy:   4.241690  Gnorm:     0.000088  CPU:   90.153
  Cycle:     52 Defect Energy:   4.241325  Gnorm:     0.000048  CPU:   91.251
  Cycle:     53 Defect Energy:   4.241245  Gnorm:     0.000037  CPU:   92.333
  Cycle:     54 Defect Energy:   4.241211  Gnorm:     0.000024  CPU:   93.482


  **** Optimisation achieved ****


  Final defect energy  =        4.24120574
  Final defect Gnorm   =        0.00001825

  Components of defect energy : 

--------------------------------------------------------------------------------
  Region 1 - region 1                   =      0.60053163 eV
  Region 1 - region 2a (unrelaxed)      =      4.17872199 eV
  Region 1 - 2a (relaxed - correction)  =     -0.21448723 eV
  Region 1 (Total)                      =      4.56476639 eV
  Region 2a                             =      0.10713583 eV
  Region 2b                             =     -0.43069648 eV
--------------------------------------------------------------------------------
  Total defect energy                   =      4.24120574 eV
--------------------------------------------------------------------------------

  Largest displacement in region 2 =   0.0261 Angstroms

  Final coordinates of region 1 :

--------------------------------------------------------------------------------
   No.  Atomic        x           y           z          Radius      Charge
        Label       (Angs)      (Angs)      (Angs)       (Angs)       (e) 
--------------------------------------------------------------------------------
     1  Na    c     2.253894    1.938349    0.315545    0.000000    1.000000
     2  O     c     2.253894    2.371918    2.430343    0.000000    0.183000
     3  O     c     2.253894    2.243672   -2.115856    0.000000    0.183000
     4  Na    c     4.450334    1.959277    2.399562    0.000000    1.000000
     5  Na    c     0.057453    1.959277    2.399562    0.000000    1.000000
     6  Cl    c     4.624785    0.024616   -0.036029    0.000000    1.485000
     7  Cl    c    -0.116997    0.024616   -0.036029    0.000000    1.485000
     8  Na    c     2.253894    4.551342    2.474827    0.000000    1.000000
     9  Na    c     2.253894    0.023396   -2.505333    0.000000    1.000000
    10  Cl    c     4.585894    4.621794   -0.044895    0.000000    1.485000
    11  Cl    c    -0.078107    4.621794   -0.044895    0.000000    1.485000
    12  Na    c     4.498865    2.165906   -2.110882    0.000000    1.000000
    13  Na    c     0.008922    2.165906   -2.110882    0.000000    1.000000
    14  Na    c     2.253894    4.475978   -1.766568    0.000000    1.000000
    15  Na    c     2.253894    1.704352    4.521304    0.000000    1.000000
    16  Na    c     2.253894   -1.797530    0.102559    0.000000    1.000000
    17  Na    c    -2.156164    2.634835    0.030579    0.000000    1.000000
    18  Na    c     6.663951    2.634835    0.030579    0.000000    1.000000
    19  O     c     2.253894   -2.317468    2.268732    0.000000    0.183000
    20  Na    c     2.253894    2.606638   -4.407610    0.000000    1.000000
    21  Na    c     2.253894    6.967110    0.016597    0.000000    1.000000
    22  O     c    -2.232558    2.243410    2.272671    0.000000    0.183000
    23  O     c     6.740345    2.243410    2.272671    0.000000    0.183000
    24  O     c     2.253894   -2.221077   -2.193424    0.000000    0.183000
    25  Na    c     4.434681   -1.877531    2.304244    0.000000    1.000000
    26  Na    c     0.073106   -1.877531    2.304244    0.000000    1.000000
    27  Cl    c     4.626421   -0.008335    4.661790    0.000000    1.485000
    28  Cl    c    -0.118634   -0.008335    4.661790    0.000000    1.485000
    29  O     c     2.253894    6.815685    2.264835    0.000000    0.183000
    30  O     c    -2.252855    2.264416   -2.225968    0.000000    0.183000
    31  O     c     6.760642    2.264416   -2.225968    0.000000    0.183000
    32  Na    c    -2.418337    0.010680    1.870443    0.000000    1.000000
    33  Na    c     6.926124    0.010680    1.870443    0.000000    1.000000
    34  Cl    c     4.571960    4.669361    4.623260    0.000000    1.485000
    35  Cl    c    -0.064173    4.669361    4.623260    0.000000    1.485000
    36  Na    c     4.508283   -2.152471   -2.270232    0.000000    1.000000
    37  Na    c    -0.000496   -2.152471   -2.270232    0.000000    1.000000
    38  O     c     2.253894    6.728027   -2.227693    0.000000    0.183000
    39  Na    c    -2.052430    4.482017    2.620001    0.000000    1.000000
    40  Na    c     6.560217    4.482017    2.620001    0.000000    1.000000
    41  Na    c    -2.331140    0.007691   -1.878986    0.000000    1.000000
    42  Na    c     6.838927    0.007691   -1.878986    0.000000    1.000000
    43  Na    c     4.506323    6.777854    2.125305    0.000000    1.000000
    44  Na    c     0.001464    6.777854    2.125305    0.000000    1.000000
    45  Cl    c     4.505457   -0.005671   -4.471147    0.000000    1.485000
    46  Cl    c     0.002331   -0.005671   -4.471147    0.000000    1.485000
    47  Na    c     6.647781    4.498679   -2.608821    0.000000    1.000000
    48  Na    c    -2.139993    4.498679   -2.608821    0.000000    1.000000
    49  Cl    c     4.512562    4.509910   -4.560593    0.000000    1.485000
    50  Cl    c    -0.004775    4.509910   -4.560593    0.000000    1.485000
    51  Na    c     4.514561    6.734772   -2.150222    0.000000    1.000000
    52  Na    c    -0.006774    6.734772   -2.150222    0.000000    1.000000
    53  Na    c     2.253894   -1.872153    4.444454    0.000000    1.000000
    54  Na    c    -2.334927    1.888786    4.513578    0.000000    1.000000
    55  Na    c     6.842715    1.888786    4.513578    0.000000    1.000000
    56  Na    c    -2.077351   -2.607432    0.014410    0.000000    1.000000
    57  Na    c     6.585138   -2.607432    0.014410    0.000000    1.000000
    58  Na    c     2.253894    6.958654    4.526407    0.000000    1.000000
    59  Na    c     2.253894   -2.619033   -4.438223    0.000000    1.000000
    60  O     c     2.253894    2.242715    6.753594    0.000000    0.183000
    61  O     c    -2.218872   -2.224434    2.241746    0.000000    0.183000
    62  O     c     6.726659   -2.224434    2.241746    0.000000    0.183000
    63  Na    c    -2.245375    1.890193   -4.469075    0.000000    1.000000
    64  Na    c     6.753162    1.890193   -4.469075    0.000000    1.000000
    65  Na    c    -2.354735    6.407277    0.001330    0.000000    1.000000
    66  Na    c     6.862522    6.407277    0.001330    0.000000    1.000000
    67  O     c     6.765877   -2.247637   -2.226479    0.000000    0.183000
    68  O     c    -2.258090   -2.247637   -2.226479    0.000000    0.183000
    69  Na    c     2.253894   -0.002501    7.149830    0.000000    1.000000
    70  Na    c     2.253894   -4.501769    2.194313    0.000000    1.000000
    71  Na    c     2.253894    6.407415   -4.480536    0.000000    1.000000
    72  Cl    c     4.591070   -4.646258   -0.057503    0.000000    1.485000
    73  Cl    c    -0.083283   -4.646258   -0.057503    0.000000    1.485000
    74  Na    c     4.513663    2.345495    6.680698    0.000000    1.000000
    75  Na    c    -0.005876    2.345495    6.680698    0.000000    1.000000
    76  O     c    -2.250275    6.731623    2.260173    0.000000    0.183000
    77  O     c     6.758062    6.731623    2.260173    0.000000    0.183000
    78  Na    c     2.253894    4.476725    6.355208    0.000000    1.000000
    79  Na    c     2.253894   -4.468221   -1.805214    0.000000    1.000000
    80  Cl    c     9.077437   -0.028093   -0.010920    0.000000    1.485000
    81  Cl    c    -4.569650   -0.028093   -0.010920    0.000000    1.485000
    82  Na    c     9.003271    2.435320    2.215469    0.000000    1.000000
    83  Na    c    -4.495484    2.435320    2.215469    0.000000    1.000000
    84  O     c     2.253894    2.261498   -6.696630    0.000000    0.183000
    85  O     c     6.775111    6.746762   -2.262197    0.000000    0.183000
    86  O     c    -2.267323    6.746762   -2.262197    0.000000    0.183000
    87  Cl    c     9.060349    4.487941    0.004191    0.000000    1.485000
    88  Cl    c    -4.552562    4.487941    0.004191    0.000000    1.485000
    89  Na    c     9.012055    2.368740   -2.178191    0.000000    1.000000
    90  Na    c    -4.504268    2.368740   -2.178191    0.000000    1.000000
    91  Na    c     2.253894    9.046294    2.342905    0.000000    1.000000
    92  Na    c     2.253894    0.001209   -6.387310    0.000000    1.000000
    93  Cl    c     4.495158    9.029030    0.009669    0.000000    1.485000
    94  Cl    c     0.012629    9.029030    0.009669    0.000000    1.485000
    95  Na    c     4.507838    2.323016   -6.656840    0.000000    1.000000
    96  Na    c    -0.000051    2.323016   -6.656840    0.000000    1.000000
    97  Na    c     6.852012   -1.959547    4.499229    0.000000    1.000000
    98  Na    c    -2.344225   -1.959547    4.499229    0.000000    1.000000
    99  Na    c     2.253894    8.977764   -2.506490    0.000000    1.000000
   100  Na    c     2.253894    4.485324   -7.071731    0.000000    1.000000
   101  O     c     2.253894   -2.239546    6.725640    0.000000    0.183000
   102  Na    c     6.588314    7.025065    4.503807    0.000000    1.000000
   103  Na    c    -2.080527    7.025065    4.503807    0.000000    1.000000
   104  Na    c     6.855672   -1.975757   -4.486215    0.000000    1.000000
   105  Na    c    -2.347885   -1.975757   -4.486215    0.000000    1.000000
   106  O     c    -2.266385    2.247765    6.757418    0.000000    0.183000
   107  O     c     6.774173    2.247765    6.757418    0.000000    0.183000
   108  Cl    c     4.570671   -4.642967    4.634511    0.000000    1.485000
   109  Cl    c    -0.062884   -4.642967    4.634511    0.000000    1.485000
   110  Na    c     4.508672   -2.327317    6.622575    0.000000    1.000000
   111  Na    c    -0.000885   -2.327317    6.622575    0.000000    1.000000
   112  O     c     2.253894    6.726092    6.775242    0.000000    0.183000
   113  Na    c     6.549780   -4.474947    2.528378    0.000000    1.000000
   114  Na    c    -2.041993   -4.474947    2.528378    0.000000    1.000000
   115  Na    c     6.584390   -0.000986    7.030058    0.000000    1.000000
   116  Na    c    -2.076603   -0.000986    7.030058    0.000000    1.000000
   117  Na    c     6.702919    7.104442   -4.488973    0.000000    1.000000
   118  Na    c    -2.195132    7.104442   -4.488973    0.000000    1.000000
   119  Cl    c     9.057571   -0.003795    4.557476    0.000000    1.485000
   120  Cl    c    -4.549784   -0.003795    4.557476    0.000000    1.485000
   121  Na    c     8.990780   -2.393072    2.137379    0.000000    1.000000
   122  Na    c    -4.482993   -2.393072    2.137379    0.000000    1.000000
   123  O     c     2.253894   -2.259320   -6.696868    0.000000    0.183000
   124  Na    c     6.887793    4.507803    6.490618    0.000000    1.000000
   125  Na    c    -2.380006    4.507803    6.490618    0.000000    1.000000
   126  Na    c     6.708292   -4.496472   -2.498116    0.000000    1.000000
   127  Na    c    -2.200505   -4.496472   -2.498116    0.000000    1.000000
   128  Cl    c     4.540006   -4.507666   -4.559713    0.000000    1.485000
   129  Cl    c    -0.032219   -4.507666   -4.559713    0.000000    1.485000
   130  Na    c     4.511700    6.605215    6.829642    0.000000    1.000000
   131  Na    c    -0.003913    6.605215    6.829642    0.000000    1.000000
   132  Cl    c     9.061004    4.516462    4.506585    0.000000    1.485000
   133  Cl    c    -4.553217    4.516462    4.506585    0.000000    1.485000
   134  Na    c     9.012684   -2.300890   -2.083562    0.000000    1.000000
   135  Na    c    -4.504897   -2.300890   -2.083562    0.000000    1.000000
   136  O     c    -2.255285    2.238029   -6.729556    0.000000    0.183000
   137  O     c     6.763072    2.238029   -6.729556    0.000000    0.183000
   138  Cl    c     4.466328    9.079192    4.497355    0.000000    1.485000
   139  Cl    c     0.041459    9.079192    4.497355    0.000000    1.485000
   140  Cl    c     9.041679   -0.001715   -4.556740    0.000000    1.485000
   141  Cl    c    -4.533892   -0.001715   -4.556740    0.000000    1.485000
   142  Na    c     4.507313   -2.272216   -6.632350    0.000000    1.000000
   143  Na    c     0.000474   -2.272216   -6.632350    0.000000    1.000000
   144  Na    c     9.007817    6.602442    2.387128    0.000000    1.000000
   145  Na    c    -4.500029    6.602442    2.387128    0.000000    1.000000
   146  O     c     2.253894    6.725514   -6.757536    0.000000    0.183000
   147  Na    c     6.832641    8.987474    2.007374    0.000000    1.000000
   148  Na    c    -2.324854    8.987474    2.007374    0.000000    1.000000
   149  Na    c    -2.169933    0.005824   -7.053787    0.000000    1.000000
   150  Na    c     6.677720    0.005824   -7.053787    0.000000    1.000000
   151  Cl    c     9.058805    4.536603   -4.523116    0.000000    1.485000
   152  Cl    c    -4.551018    4.536603   -4.523116    0.000000    1.485000
   153  Na    c     9.022153    6.631710   -2.347791    0.000000    1.000000
   154  Na    c    -4.514366    6.631710   -2.347791    0.000000    1.000000
   155  Na    c     2.253894    2.531816    8.997807    0.000000    1.000000
   156  Na    c     2.253894   -6.986441    0.001730    0.000000    1.000000
   157  Na    c     6.825227    8.992494   -1.962004    0.000000    1.000000
   158  Na    c    -2.317440    8.992494   -1.962004    0.000000    1.000000
   159  Na    c    -2.334954    4.502936   -6.472834    0.000000    1.000000
   160  Na    c     6.842742    4.502936   -6.472834    0.000000    1.000000
   161  Cl    c     4.504060    9.065620   -4.529221    0.000000    1.485000
   162  Cl    c     0.003727    9.065620   -4.529221    0.000000    1.485000
   163  Na    c     4.507495    6.662292   -6.729069    0.000000    1.000000
   164  Na    c     0.000292    6.662292   -6.729069    0.000000    1.000000
   165  O     c    -2.256619   -2.239601    6.762330    0.000000    0.183000
   166  O     c     6.764406   -2.239601    6.762330    0.000000    0.183000
   167  O     c     2.253894   -6.788474    2.239060    0.000000    0.183000
   168  Na    c    11.267605    1.866652    0.004158    0.000000    1.000000
   169  Na    c    -6.759818    1.866652    0.004158    0.000000    1.000000
   170  O     c     2.253894   -6.729053   -2.228246    0.000000    0.183000
   171  Na    c     2.253894   -4.495036    6.506316    0.000000    1.000000
   172  Na    c     4.500242   -6.779228    2.144350    0.000000    1.000000
   173  Na    c     0.007545   -6.779228    2.144350    0.000000    1.000000
   174  Cl    c     4.516484    0.007605    9.074851    0.000000    1.485000
   175  Cl    c    -0.008696    0.007605    9.074851    0.000000    1.485000
   176  O     c    -2.262286    6.778622    6.751587    0.000000    0.183000
   177  O     c     6.770074    6.778622    6.751587    0.000000    0.183000
   178  O     c    11.260816    2.249755    2.240316    0.000000    0.183000
   179  O     c    -6.753029    2.249755    2.240316    0.000000    0.183000
   180  Na    c     2.253894    1.955297   -8.963758    0.000000    1.000000
   181  Na    c     2.253894   11.105862   -0.009807    0.000000    1.000000
   182  Cl    c     9.076057   -4.509139   -0.017345    0.000000    1.485000
   183  Cl    c    -4.568269   -4.509139   -0.017345    0.000000    1.485000
   184  Na    c     9.020123    2.071277    6.786121    0.000000    1.000000
   185  Na    c    -4.512336    2.071277    6.786121    0.000000    1.000000
   186  Cl    c     4.528318    4.527609    9.089285    0.000000    1.485000
   187  Cl    c    -0.020530    4.527609    9.089285    0.000000    1.485000
   188  Na    c     4.510165   -6.713902   -2.187550    0.000000    1.000000
   189  Na    c    -0.002378   -6.713902   -2.187550    0.000000    1.000000
   190  O     c     6.758576   -2.225044   -6.756415    0.000000    0.183000
   191  O     c    -2.250789   -2.225044   -6.756415    0.000000    0.183000
   192  O     c    11.270347    2.251036   -2.235717    0.000000    0.183000
   193  O     c    -6.762560    2.251036   -2.235717    0.000000    0.183000
   194  Na    c    11.156436    0.002342    2.573250    0.000000    1.000000
   195  Na    c    -6.648649    0.002342    2.573250    0.000000    1.000000
   196  O     c     2.253894   11.275385    2.254834    0.000000    0.183000
   197  Na    c     2.253894    8.993796    6.891918    0.000000    1.000000
   198  Na    c     2.253894   -4.490995   -6.975537    0.000000    1.000000
   199  Na    c    11.360118    4.497791    1.927806    0.000000    1.000000
   200  Na    c    -6.852331    4.497791    1.927806    0.000000    1.000000
   201  Na    c    11.199198    0.008536   -2.584361    0.000000    1.000000
   202  Na    c    -6.691411    0.008536   -2.584361    0.000000    1.000000
   203  Na    c     2.253894   -2.484879    8.984978    0.000000    1.000000
   204  Na    c     2.253894   -6.775028    4.492276    0.000000    1.000000
   205  O     c     2.253894   11.246809   -2.270402    0.000000    0.183000
   206  O     c     6.761676    6.774161   -6.730384    0.000000    0.183000
   207  O     c    -2.253889    6.774161   -6.730384    0.000000    0.183000
   208  Na    c    11.347927    4.499714   -1.916939    0.000000    1.000000
   209  Na    c    -6.840139    4.499714   -1.916939    0.000000    1.000000
   210  Na    c     4.512795   11.233970    2.337113    0.000000    1.000000
   211  Na    c    -0.005008   11.233970    2.337113    0.000000    1.000000
   212  Cl    c     4.498679   -0.011531   -9.050736    0.000000    1.485000
   213  Cl    c     0.009109   -0.011531   -9.050736    0.000000    1.485000
   214  Cl    c     9.030883    9.069766   -0.006830    0.000000    1.485000
   215  Cl    c    -4.523096    9.069766   -0.006830    0.000000    1.485000
   216  Na    c     9.015895    2.123783   -6.706233    0.000000    1.000000
   217  Na    c    -4.508108    2.123783   -6.706233    0.000000    1.000000
   218  Na    c     6.755570    2.411646    9.008008    0.000000    1.000000
   219  Na    c    -2.247783    2.411646    9.008008    0.000000    1.000000
   220  Na    c    -2.309723   -6.611853   -0.001132    0.000000    1.000000
   221  Na    c     6.817510   -6.611853   -0.001132    0.000000    1.000000
   222  Cl    c     4.534696    4.516598   -9.031389    0.000000    1.485000
   223  Cl    c    -0.026909    4.516598   -9.031389    0.000000    1.485000
   224  Na    c     4.510719   11.199094   -2.316284    0.000000    1.000000
   225  Na    c    -0.002932   11.199094   -2.316284    0.000000    1.000000
   226  Na    c     2.253894    6.566514    9.022128    0.000000    1.000000
   227  Na    c     2.253894   -6.563916   -4.489033    0.000000    1.000000
   228  Na    c    11.253414    2.517900    4.497721    0.000000    1.000000
   229  Na    c    -6.745627    2.517900    4.497721    0.000000    1.000000
   230  Na    c    11.327553   -1.985512    0.002546    0.000000    1.000000
   231  Na    c    -6.819766   -1.985512    0.002546    0.000000    1.000000
   232  O     c    -2.236091   -6.740331    2.272934    0.000000    0.183000
   233  O     c     6.743878   -6.740331    2.272934    0.000000    0.183000
   234  Na    c     2.253894    8.993807   -6.548544    0.000000    1.000000
   235  O     c    11.257641   -2.243412    2.253585    0.000000    0.183000
   236  O     c    -6.749854   -2.243412    2.253585    0.000000    0.183000
   237  O     c    -2.261931   -6.754580   -2.281785    0.000000    0.183000
   238  O     c     6.769718   -6.754580   -2.281785    0.000000    0.183000
   239  Na    c     6.838952   -4.498319    6.589628    0.000000    1.000000
   240  Na    c    -2.331164   -4.498319    6.589628    0.000000    1.000000
   241  Na    c     2.253894   11.269803    4.521857    0.000000    1.000000
   242  Na    c     2.253894   -2.066489   -8.978519    0.000000    1.000000
   243  Na    c    11.270875    2.534866   -4.487836    0.000000    1.000000
[...]
    247 y          6.761681      6.728060    -0.033621    Cartesian   -0.50
    247 z         -2.253894     -2.227619     0.026275    Cartesian   -1.17
    248 x          4.507787      4.504074    -0.003713    Cartesian   -0.08
    248 y          0.000000     -0.005633    -0.005633    Cartesian    0.00
    248 z         -4.507787     -4.471299     0.036488    Cartesian   -0.81
    249 x          4.507787      4.513241     0.005454    Cartesian    0.12
    249 y          4.507787      4.510515     0.002728    Cartesian    0.06
    249 z         -4.507787     -4.565902    -0.058115    Cartesian    1.29
    250 x          2.253894      2.253894     0.000000    Cartesian    0.00
    250 y          2.253894      2.242731    -0.011162    Cartesian   -0.50
    250 z          6.761681      6.753612    -0.008069    Cartesian   -0.12
    251 x         -2.253894     -2.218926     0.034968    Cartesian   -1.55
    251 y         -2.253894     -2.224437     0.029457    Cartesian   -1.31
    251 z          2.253894      2.241711    -0.012182    Cartesian   -0.54
    252 x          6.761681      6.765874     0.004193    Cartesian    0.06
    252 y         -2.253894     -2.247667     0.006227    Cartesian   -0.28
    252 z         -2.253894     -2.226453     0.027441    Cartesian   -1.22
    253 x          4.507787      4.603171     0.095384    Cartesian    2.12
    253 y         -4.507787     -4.655148    -0.147360    Cartesian    3.27
    253 z          0.000000     -0.068909    -0.068909    Cartesian    0.00
    254 x         -2.253894     -2.250243     0.003650    Cartesian   -0.16
    254 y          6.761681      6.731627    -0.030054    Cartesian   -0.44
    254 z          2.253894      2.260205     0.006311    Cartesian    0.28
    255 x          9.015574      9.074724     0.059150    Cartesian    0.66
    255 y          0.000000     -0.029274    -0.029274    Cartesian    0.00
    255 z          0.000000     -0.010991    -0.010991    Cartesian    0.00
    256 x          2.253894      2.253894     0.000000    Cartesian    0.00
    256 y          2.253894      2.261550     0.007657    Cartesian    0.34
    256 z         -6.761681     -6.696663     0.065018    Cartesian   -0.96
    257 x          6.761681      6.775115     0.013434    Cartesian    0.20
    257 y          6.761681      6.746765    -0.014915    Cartesian   -0.22
    257 z         -2.253894     -2.262239    -0.008345    Cartesian    0.37
    258 x          9.015574      9.059968     0.044393    Cartesian    0.49
    258 y          4.507787      4.485900    -0.021887    Cartesian   -0.49
    258 z          0.000000      0.004607     0.004607    Cartesian    0.00
    259 x          4.507787      4.494217    -0.013570    Cartesian   -0.30
    259 y          9.015574      9.027709     0.012135    Cartesian    0.13
    259 z          0.000000      0.011472     0.011472    Cartesian    0.00
    260 x          2.253894      2.253894     0.000000    Cartesian    0.00
    260 y         -2.253894     -2.239582     0.014312    Cartesian   -0.63
    260 z          6.761681      6.725681    -0.036000    Cartesian   -0.53
    261 x         -2.253894     -2.266394    -0.012500    Cartesian    0.55
    261 y          2.253894      2.247714    -0.006180    Cartesian   -0.27
    261 z          6.761681      6.757437    -0.004244    Cartesian   -0.06
    262 x          4.507787      4.583173     0.075385    Cartesian    1.67
    262 y         -4.507787     -4.656266    -0.148479    Cartesian    3.29
    262 z          4.507787      4.649251     0.141464    Cartesian    3.14
    263 x          2.253894      2.253894     0.000000    Cartesian    0.00
    263 y          6.761681      6.726088    -0.035593    Cartesian   -0.53
    263 z          6.761681      6.775226     0.013546    Cartesian    0.20
    264 x          9.015574      9.056297     0.040722    Cartesian    0.45
    264 y          0.000000     -0.002121    -0.002121    Cartesian    0.00
    264 z          4.507787      4.559392     0.051605    Cartesian    1.14
    265 x          2.253894      2.253894     0.000000    Cartesian    0.00
    265 y         -2.253894     -2.259393    -0.005499    Cartesian    0.24
    265 z         -6.761681     -6.696845     0.064836    Cartesian   -0.96
    266 x          4.507787      4.541012     0.033224    Cartesian    0.74
    266 y         -4.507787     -4.505681     0.002106    Cartesian   -0.05
    266 z         -4.507787     -4.565063    -0.057275    Cartesian    1.27
    267 x          9.015574      9.064185     0.048611    Cartesian    0.54
    267 y          4.507787      4.518756     0.010969    Cartesian    0.24
    267 z          4.507787      4.505649    -0.002138    Cartesian   -0.05
    268 x         -2.253894     -2.255285    -0.001392    Cartesian    0.06
    268 y          2.253894      2.237971    -0.015923    Cartesian   -0.71
    268 z         -6.761681     -6.729576     0.032105    Cartesian   -0.47
    269 x          4.507787      4.464821    -0.042966    Cartesian   -0.95
    269 y          9.015574      9.080606     0.065032    Cartesian    0.72
    269 z          4.507787      4.493093    -0.014694    Cartesian   -0.33
    270 x          9.015574      9.041054     0.025479    Cartesian    0.28
    270 y          0.000000     -0.001639    -0.001639    Cartesian    0.00
    270 z         -4.507787     -4.560735    -0.052948    Cartesian    1.17
    271 x          2.253894      2.253894     0.000000    Cartesian    0.00
    271 y          6.761681      6.725466    -0.036215    Cartesian   -0.54
    271 z         -6.761681     -6.757594     0.004087    Cartesian   -0.06
    272 x          9.015574      9.061012     0.045437    Cartesian    0.50
    272 y          4.507787      4.540278     0.032491    Cartesian    0.72
    272 z         -4.507787     -4.525624    -0.017837    Cartesian    0.40
    273 x          4.507787      4.504858    -0.002929    Cartesian   -0.06
    273 y          9.015574      9.069279     0.053705    Cartesian    0.60
    273 z         -4.507787     -4.530818    -0.023031    Cartesian    0.51
    274 x         -2.253894     -2.256614    -0.002721    Cartesian    0.12
    274 y         -2.253894     -2.239578     0.014315    Cartesian   -0.64
    274 z          6.761681      6.762369     0.000688    Cartesian    0.01
    275 x          2.253894      2.253894     0.000000    Cartesian    0.00
    275 y         -6.761681     -6.788553    -0.026872    Cartesian    0.40
    275 z          2.253894      2.239023    -0.014871    Cartesian   -0.66
    276 x          2.253894      2.253894     0.000000    Cartesian    0.00
    276 y         -6.761681     -6.729106     0.032575    Cartesian   -0.48
    276 z         -2.253894     -2.228164     0.025729    Cartesian   -1.14
    277 x          4.507787      4.518495     0.010707    Cartesian    0.24
    277 y          0.000000      0.007883     0.007883    Cartesian    0.00
    277 z          9.015574      9.072691     0.057116    Cartesian    0.63
    278 x         -2.253894     -2.262290    -0.008396    Cartesian    0.37
    278 y          6.761681      6.778678     0.016997    Cartesian    0.25
    278 z          6.761681      6.751590    -0.010091    Cartesian   -0.15
    279 x         11.269468     11.260830    -0.008638    Cartesian   -0.08
    279 y          2.253894      2.249760    -0.004133    Cartesian   -0.18
    279 z          2.253894      2.240315    -0.013578    Cartesian   -0.60
    280 x          9.015574      9.081609     0.066034    Cartesian    0.73
    280 y         -4.507787     -4.505966     0.001821    Cartesian   -0.04
    280 z          0.000000     -0.019082    -0.019082    Cartesian    0.00
    281 x          4.507787      4.527100     0.019313    Cartesian    0.43
    281 y          4.507787      4.529720     0.021933    Cartesian    0.49
    281 z          9.015574      9.095157     0.079582    Cartesian    0.88
    282 x          6.761681      6.758576    -0.003105    Cartesian   -0.05
    282 y         -2.253894     -2.225011     0.028883    Cartesian   -1.28
    282 z         -6.761681     -6.756464     0.005217    Cartesian   -0.08
    283 x         11.269468     11.270363     0.000895    Cartesian    0.01
    283 y          2.253894      2.251031    -0.002863    Cartesian   -0.13
    283 z         -2.253894     -2.235719     0.018175    Cartesian   -0.81
    284 x          2.253894      2.253894     0.000000    Cartesian    0.00
    284 y         11.269468     11.275328     0.005860    Cartesian    0.05
    284 z          2.253894      2.254880     0.000986    Cartesian    0.04
    285 x          2.253894      2.253894     0.000000    Cartesian    0.00
    285 y         11.269468     11.246823    -0.022645    Cartesian   -0.20
    285 z         -2.253894     -2.270465    -0.016572    Cartesian    0.74
    286 x          6.761681      6.761676    -0.000005    Cartesian   -0.00
    286 y          6.761681      6.774227     0.012546    Cartesian    0.19
    286 z         -6.761681     -6.730369     0.031311    Cartesian   -0.46
    287 x          4.507787      4.497354    -0.010433    Cartesian   -0.23
    287 y          0.000000     -0.010762    -0.010762    Cartesian    0.00
    287 z         -9.015574     -9.052247    -0.036673    Cartesian    0.41
    288 x          9.015574      9.028450     0.012876    Cartesian    0.14
    288 y          9.015574      9.072757     0.057183    Cartesian    0.63
    288 z          0.000000     -0.008771    -0.008771    Cartesian    0.00
    289 x          4.507787      4.535659     0.027872    Cartesian    0.62
    289 y          4.507787      4.517912     0.010125    Cartesian    0.22
    289 z         -9.015574     -9.032482    -0.016907    Cartesian    0.19
    290 x         -2.253894     -2.236050     0.017843    Cartesian   -0.79
    290 y         -6.761681     -6.740350     0.021331    Cartesian   -0.32
    290 z          2.253894      2.272990     0.019096    Cartesian    0.85
    291 x         11.269468     11.257642    -0.011826    Cartesian   -0.10
    291 y         -2.253894     -2.243443     0.010451    Cartesian   -0.46
    291 z          2.253894      2.253610    -0.000284    Cartesian   -0.01
    292 x         -2.253894     -2.261941    -0.008047    Cartesian    0.36
    292 y         -6.761681     -6.754580     0.007101    Cartesian   -0.11
    292 z         -2.253894     -2.281859    -0.027966    Cartesian    1.24
    293 x          9.015574      9.062397     0.046823    Cartesian    0.52
    293 y         -4.507787     -4.501924     0.005863    Cartesian   -0.13
    293 z          4.507787      4.489895    -0.017893    Cartesian   -0.40
    294 x         11.269468     11.267019    -0.002450    Cartesian   -0.02
    294 y         -2.253894     -2.235543     0.018351    Cartesian   -0.81
    294 z         -2.253894     -2.256282    -0.002388    Cartesian    0.11
    295 x         11.269468     11.268679    -0.000789    Cartesian   -0.01
    295 y          6.761681      6.746570    -0.015110    Cartesian   -0.22
    295 z          2.253894      2.243773    -0.010121    Cartesian   -0.45
    296 x          9.015574      9.041794     0.026220    Cartesian    0.29
    296 y         -4.507787     -4.527931    -0.020144    Cartesian    0.45
    296 z         -4.507787     -4.530866    -0.023078    Cartesian    0.51
    297 x         -2.253894     -2.256703    -0.002809    Cartesian    0.12
    297 y         11.269468     11.257832    -0.011636    Cartesian   -0.10
    297 z          2.253894      2.233686    -0.020208    Cartesian   -0.90
    298 x         11.269468     11.272038     0.002570    Cartesian    0.02
    298 y          6.761681      6.750919    -0.010762    Cartesian   -0.16
    298 z         -2.253894     -2.235359     0.018534    Cartesian   -0.82
    299 x          9.015574      9.045877     0.030303    Cartesian    0.34
    299 y          9.015574      9.045394     0.029819    Cartesian    0.33
    299 z          4.507787      4.510261     0.002474    Cartesian    0.05
    300 x         -2.253894     -2.253630     0.000263    Cartesian   -0.01
    300 y         11.269468     11.254259    -0.015209    Cartesian   -0.13
    300 z         -2.253894     -2.227546     0.026348    Cartesian   -1.17
    301 x          2.253894      2.253894     0.000000    Cartesian    0.00
    301 y         -6.761681     -6.755613     0.006067    Cartesian   -0.09
    301 z          6.761681      6.756249    -0.005432    Cartesian   -0.08
    302 x          9.015574      9.035667     0.020092    Cartesian    0.22
    302 y          9.015574      9.030799     0.015224    Cartesian    0.17
    302 z         -4.507787     -4.525951    -0.018164    Cartesian    0.40
    303 x          2.253894      2.253894     0.000000    Cartesian    0.00
    303 y          2.253894      2.272844     0.018950    Cartesian    0.84
    303 z         11.269468     11.258925    -0.010543    Cartesian   -0.09
    304 x          4.507787      4.507021    -0.000766    Cartesian   -0.02
    304 y         -4.507787     -4.507397     0.000390    Cartesian   -0.01
    304 z          9.015574      9.082579     0.067004    Cartesian    0.74
    305 x         11.269468     11.270347     0.000879    Cartesian    0.01
    305 y          2.253894      2.268480     0.014586    Cartesian    0.65
    305 z          6.761681      6.757018    -0.004663    Cartesian   -0.07
    306 x          4.507787      4.474300    -0.033487    Cartesian   -0.74
    306 y         -9.015574     -9.041055    -0.025481    Cartesian    0.28
    306 z          0.000000      0.007807     0.007807    Cartesian    0.00
    307 x          9.015574      9.042887     0.027312    Cartesian    0.30
    307 y          0.000000      0.010718     0.010718    Cartesian    0.00
    307 z          9.015574      9.011829    -0.003746    Cartesian   -0.04
    308 x          2.253894      2.253894     0.000000    Cartesian    0.00
    308 y         -6.761681     -6.736473     0.025208    Cartesian   -0.37
    308 z         -6.761681     -6.770176    -0.008495    Cartesian    0.13
    309 x          9.015574      9.051540     0.035966    Cartesian    0.40
    309 y          4.507787      4.514203     0.006416    Cartesian    0.14
    309 z          9.015574      9.087236     0.071662    Cartesian    0.79
    310 x          2.253894      2.253894     0.000000    Cartesian    0.00
    310 y         11.269468     11.269700     0.000232    Cartesian    0.00
    310 z          6.761681      6.769425     0.007744    Cartesian    0.11
    311 x         13.523362     13.598867     0.075505    Cartesian    0.56
    311 y          0.000000     -0.004271    -0.004271    Cartesian    0.00
    311 z          0.000000     -0.001714    -0.001714    Cartesian    0.00
    312 x          4.507787      4.535253     0.027466    Cartesian    0.61
    312 y          9.015574      9.074569     0.058994    Cartesian    0.65
    312 z          9.015574      9.018510     0.002936    Cartesian    0.03
    313 x         11.269468     11.270012     0.000544    Cartesian    0.00
    313 y          2.253894      2.274140     0.020247    Cartesian    0.90
    313 z         -6.761681     -6.750951     0.010730    Cartesian   -0.16
    314 x          4.507787      4.503396    -0.004391    Cartesian   -0.10
    314 y         -4.507787     -4.523603    -0.015816    Cartesian    0.35
    314 z         -9.015574     -9.052640    -0.037065    Cartesian    0.41
    315 x         13.523362     13.586571     0.063209    Cartesian    0.47
    315 y          4.507787      4.512155     0.004367    Cartesian    0.10
    315 z          0.000000     -0.001267    -0.001267    Cartesian    0.00
    316 x          2.253894      2.253894     0.000000    Cartesian    0.00
    316 y          2.253894      2.224690    -0.029203    Cartesian   -1.30
    316 z        -11.269468    -11.242144     0.027324    Cartesian   -0.24
    317 x          9.015574      9.007579    -0.007995    Cartesian   -0.09
    317 y          0.000000      0.004971     0.004971    Cartesian    0.00
    317 z         -9.015574     -9.012174     0.003400    Cartesian   -0.04
    318 x          2.253894      2.253894     0.000000    Cartesian    0.00
    318 y         11.269468     11.273422     0.003954    Cartesian    0.04
    318 z         -6.761681     -6.746789     0.014892    Cartesian   -0.22
    319 x          2.253894      2.253894     0.000000    Cartesian    0.00
    319 y         -2.253894     -2.258947    -0.005054    Cartesian    0.22
    319 z         11.269468     11.250674    -0.018794    Cartesian   -0.17
    320 x          6.761681      6.772510     0.010829    Cartesian    0.16
    320 y         -6.761681     -6.769421    -0.007741    Cartesian    0.11
    320 z          6.761681      6.765868     0.004187    Cartesian    0.06
    321 x          9.015574      9.041857     0.026283    Cartesian    0.29
    321 y          4.507787      4.512462     0.004675    Cartesian    0.10
    321 z         -9.015574     -9.082011    -0.066437    Cartesian    0.74
    322 x          4.507787      4.555082     0.047295    Cartesian    1.05
    322 y         13.523362     13.582756     0.059394    Cartesian    0.44
    322 z          0.000000     -0.012203    -0.012203    Cartesian    0.00
    323 x          6.761681      6.766664     0.004983    Cartesian    0.07
    323 y          2.253894      2.261180     0.007287    Cartesian    0.32
    323 z         11.269468     11.269786     0.000318    Cartesian    0.00
    324 x         11.269468     11.276736     0.007268    Cartesian    0.06
    324 y         -2.253894     -2.257698    -0.003804    Cartesian    0.17
    324 z          6.761681      6.757768    -0.003912    Cartesian   -0.06
    325 x          4.507787      4.523981     0.016194    Cartesian    0.36
    325 y          9.015574      9.032910     0.017335    Cartesian    0.19
    325 z         -9.015574     -9.051616    -0.036041    Cartesian    0.40
    326 x          4.507787      4.527795     0.020008    Cartesian    0.44
    326 y         -9.015574     -9.083465    -0.067890    Cartesian    0.75
    326 z          4.507787      4.491178    -0.016609    Cartesian   -0.37
    327 x          2.253894      2.253894     0.000000    Cartesian    0.00
    327 y          6.761681      6.757536    -0.004144    Cartesian   -0.06
    327 z         11.269468     11.282284     0.012816    Cartesian    0.11
--------------------------------------------------------------------------------


  Time to end of optimisation  =       94.5476 seconds


  Peak dynamic memory used =      97.44 MB 


  Timing analysis for GULP :

--------------------------------------------------------------------------------
  Task / Subroutine                                          Time (Seconds)
--------------------------------------------------------------------------------
  Calculation of reciprocal space energy and derivatives          0.0006
  Calculation of reciprocal space energy using symmetry           0.0009
  Calculation of real space energy and derivatives                0.0036
  Calculation of real space energy using symmetry                 0.0088
  Calculation for region 1 energy and derivatives (2-b)          51.3691
  Calculation for region 2a energy                               38.1616
  Calculation for region 2b energy                                0.0142
  Calculation and manipulation of Hessian matrix                  0.1777
  Calculation of matrix inversion                                 4.4553
  Symmetry generation of equivalent positions                     0.0045
--------------------------------------------------------------------------------
  Total CPU time                                                 94.5477
--------------------------------------------------------------------------------


  Dump file written as Na3OCl.grs


  Job Finished at 19:36.27 30th November   2020                               

