********************************************************************************
*                       GENERAL UTILITY LATTICE PROGRAM                        *
*                                 Julian Gale                                  *
*                       Curtin Institute for Computation                       *
*                    School of Molecular and Life Sciences                     *
*                    Curtin University, Western Australia                      *
********************************************************************************
* Version = 5.2.0 * Last modified =  10th September 2020                       *
********************************************************************************
*  optimise     - perform optimisation run                                     *
*  conp         - constant pressure calculation                                *
*  property     - calculate properties for final geometry                      *
*  defect       - perform defect calculation after bulk run                    *
*  compare      - compare initial and final structures                         *
********************************************************************************

  Job Started  at 19:35.48 30th November   2020                               

  Number of CPUs =     1


  Total number of configurations input =      1

********************************************************************************
*  Input for Configuration =   1                                               *
********************************************************************************

  Formula = ClONa3                                                      

  Number of irreducible atoms/shells =       5


  Total number atoms/shells =       7

  Dimensionality = 3               :  Bulk   


  Symmetry :

  Crystal family                   :  Cubic       
  Crystal class  (Groth - 1921)    :  Cubic Hexakisoctahedral              

  Space group (centrosymmetric)    :  P M 3 M         

  Patterson group                  :  P m -3 m 

  Cartesian lattice vectors (Angstroms) :

        4.504000    0.000000    0.000000
        0.000000    4.504000    0.000000
        0.000000    0.000000    4.504000

  Cell parameters (Angstroms/Degrees):

  a =       4.5040    alpha =  90.0000
  b =       4.5040    beta  =  90.0000
  c =       4.5040    gamma =  90.0000

  Initial cell volume =          91.368216 Angs**3

  Temperature of configuration =   0.00     K 

  Pressure of configuration =         0.000 GPa 

  Fractional coordinates of asymmetric unit :

--------------------------------------------------------------------------------
   No.  Atomic       x           y          z         Charge      Occupancy
        Label      (Frac)      (Frac)     (Frac)        (e)         (Frac)  
--------------------------------------------------------------------------------
      1 Cl    c    0.000000    0.000000    0.000000     1.48500    1.000000    
      2 O     c    0.500000    0.500000    0.500000     0.18300    1.000000    
      3 Na    c    0.500000    0.500000    0.000000     1.00000    1.000000    
      4 Cl    s    0.000000    0.000000    0.000000    -2.48500    1.000000    
      5 O     s    0.500000    0.500000    0.500000    -2.18300    1.000000    
--------------------------------------------------------------------------------


  Constraints : 

--------------------------------------------------------------------------------
  Constraint no.      Unconstrained     Constrained    Coefficient    Offset
                         Variable         Variable
--------------------------------------------------------------------------------
           1              Strain 1        Strain 2       1.00000      0.0000
           2              Strain 1        Strain 3       1.00000      0.0000
--------------------------------------------------------------------------------


********************************************************************************
*  General input information                                                   *
********************************************************************************

  Species output for all configurations : 

--------------------------------------------------------------------------------
  Species    Type    Atomic    Atomic    Charge       Radii (Angs)     Library
                     Number     Mass       (e)     Cova   Ionic  VDW   Symbol
--------------------------------------------------------------------------------
    Na       Core       11      22.99   1.000000   0.970  0.000  2.300          
    O        Core        8      16.00   0.183000   0.730  0.000  1.360          
    O        Shell       8       0.00  -2.183000   0.730  0.000  1.360          
    Cl       Core       17      35.45   1.485000   0.990  0.000  1.650          
    Cl       Shell      17       0.00  -2.485000   0.990  0.000  1.650          
    Mg       Core       12      24.31   0.415000   1.100  0.000  0.000          
    Mg       Shell      12       0.00   1.585000   1.100  0.000  0.000          
    Ca       Core       20      40.08  -1.135000   0.990  0.000  0.000          
    Ca       Shell      20       0.00   3.135000   0.990  0.000  0.000          
    Sr       Core       38      87.62  -1.251000   1.120  0.000  0.000          
    Sr       Shell      38       0.00   3.251000   1.120  0.000  0.000          
    Ba       Core       56     137.33  -7.203000   1.340  0.000  0.000          
    Ba       Shell      56       0.00   9.203000   1.340  0.000  0.000          
--------------------------------------------------------------------------------


  Lattice summation method               =    Ewald          (3-D)
                                         =    Parry          (2-D)
                                         =    Saunders et al (1-D)
  Accuracy factor for lattice sums       =   12.000


  Analytic derivatives to be used

  Time limit = Infinity

  Maximum range for interatomic potentials =    100000.000000 Angstroms

  General interatomic potentials :

--------------------------------------------------------------------------------
Atom  Types   Potential      Parameter       Value         Units   Cutoffs(Ang)
  1     2                                                            Min /  Max 
--------------------------------------------------------------------------------
O    c O    s Spring (c-s)  Spring k 2       593.71600    eV*Ang^-2 0.000  0.800
                            Spring k 4       0.0000000    eV*Ang^-4 
--------------------------------------------------------------------------------
Cl   c Cl   s Spring (c-s)  Spring k 2       29.380000    eV*Ang^-2 0.000  0.800
                            Spring k 4       0.0000000    eV*Ang^-4 
--------------------------------------------------------------------------------
Mg   c Mg   s Spring (c-s)  Spring k 2       361.60000    eV*Ang^-2 0.000  0.800
                            Spring k 4       0.0000000    eV*Ang^-4 
--------------------------------------------------------------------------------
Ca   c Ca   s Spring (c-s)  Spring k 2       110.20000    eV*Ang^-2 0.000  0.800
                            Spring k 4       0.0000000    eV*Ang^-4 
--------------------------------------------------------------------------------
Sr   c Sr   s Spring (c-s)  Spring k 2       71.700000    eV*Ang^-2 0.000  0.800
                            Spring k 4       0.0000000    eV*Ang^-4 
--------------------------------------------------------------------------------
Ba   c Ba   s Spring (c-s)  Spring k 2       495.20000    eV*Ang^-2 0.000  0.800
                            Spring k 4       0.0000000    eV*Ang^-4 
--------------------------------------------------------------------------------
Na   c Na   c Buckingham    Buckingham A     1788.1900    eV        0.000 12.000
                            Buckingham rho  0.15900000    Ang       
                            Buckingham C     0.0000000    eV*Ang^6  
--------------------------------------------------------------------------------
Na   c O    s Buckingham    Buckingham A     1226.8400    eV        0.000 12.000
                            Buckingham rho  0.30700000    Ang       
                            Buckingham C     0.0000000    eV*Ang^6  
--------------------------------------------------------------------------------
Na   c Cl   s Buckingham    Buckingham A     2314.7000    eV        0.000 12.000
                            Buckingham rho  0.29000000    Ang       
                            Buckingham C     0.0000000    eV*Ang^6  
--------------------------------------------------------------------------------
O    s O    s Buckingham    Buckingham A     22764.300    eV        0.000 12.000
                            Buckingham rho  0.14900000    Ang       
                            Buckingham C     13.190000    eV*Ang^6  
--------------------------------------------------------------------------------
O    s Cl   s Buckingham    Buckingham A     8286.9100    eV        0.000 12.000
                            Buckingham rho  0.25900000    Ang       
                            Buckingham C     62.200000    eV*Ang^6  
--------------------------------------------------------------------------------
Cl   s Cl   s Buckingham    Buckingham A     1227.2000    eV        0.000 12.000
                            Buckingham rho  0.32100000    Ang       
                            Buckingham C     14.530000    eV*Ang^6  
--------------------------------------------------------------------------------
O    s Mg   s Buckingham    Buckingham A     1428.5000    eV        0.000 12.000
                            Buckingham rho  0.29450000    Ang       
                            Buckingham C     0.0000000    eV*Ang^6  
--------------------------------------------------------------------------------
Mg   s Cl   s Buckingham    Buckingham A     4914.5400    eV        0.000 12.000
                            Buckingham rho  0.25700000    Ang       
                            Buckingham C     0.0000000    eV*Ang^6  
--------------------------------------------------------------------------------
O    s Ca   s Buckingham    Buckingham A     1090.4000    eV        0.000 12.000
                            Buckingham rho  0.34370000    Ang       
                            Buckingham C     0.0000000    eV*Ang^6  
--------------------------------------------------------------------------------
Cl   s Ca   s Buckingham    Buckingham A     2302.0000    eV        0.000 12.000
                            Buckingham rho  0.34020000    Ang       
                            Buckingham C     0.0000000    eV*Ang^6  
--------------------------------------------------------------------------------
O    s Sr   s Buckingham    Buckingham A     959.10000    eV        0.000 12.000
                            Buckingham rho  0.37210000    Ang       
                            Buckingham C     0.0000000    eV*Ang^6  
--------------------------------------------------------------------------------
Cl   s Sr   s Buckingham    Buckingham A     2191.0900    eV        0.000 12.000
                            Buckingham rho  0.34570000    Ang       
                            Buckingham C     0.0000000    eV*Ang^6  
--------------------------------------------------------------------------------
O    s Ba   s Buckingham    Buckingham A     905.70000    eV        0.000 12.000
                            Buckingham rho  0.39760000    Ang       
                            Buckingham C     0.0000000    eV*Ang^6  
--------------------------------------------------------------------------------
Cl   s Ba   s Buckingham    Buckingham A     2704.5500    eV        0.000 12.000
                            Buckingham rho  0.35280000    Ang       
                            Buckingham C     0.0000000    eV*Ang^6  
--------------------------------------------------------------------------------

********************************************************************************
*  Output for configuration   1                                                *
********************************************************************************


  Components of energy : 

--------------------------------------------------------------------------------
  Interatomic potentials     =           5.13022605 eV    
  Monopole - monopole (real) =         -10.03624526 eV    
  Monopole - monopole (recip)=         -29.53581274 eV    
  Monopole - monopole (total)=         -39.57205800 eV    
--------------------------------------------------------------------------------
  Total lattice energy       =         -34.44183194 eV    
--------------------------------------------------------------------------------
  Total lattice energy       =           -3323.1103 kJ/(mole unit cells)
--------------------------------------------------------------------------------


  Number of variables =        1

  Maximum number of calculations  =          1000
  Maximum Hessian update interval =            10
  Maximum step size               =   1.000000000
  Maximum parameter tolerance     =   0.000010000
  Maximum function  tolerance     =   0.000010000
  Maximum gradient  tolerance     =   0.001000000
  Maximum gradient  component     =   0.010000000

  Symmetry constrained optimisation

  Symmetry used for second derivatives

  Cell parameters to be optimised using strains

  Newton-Raphson optimiser to be used

  BFGS hessian update to be used

  Lower half triangular hessian to be used

  Start of bulk optimisation :

  Cycle:      0 Energy:       -34.441832  Gnorm:      0.196570  CPU:    0.018
  ** Hessian calculated **
  Cycle:      1 Energy:       -34.441914  Gnorm:      0.000103  CPU:    0.022


  **** Optimisation achieved ****


  Final energy =     -34.44191447 eV
  Final Gnorm  =       0.00000000

  Components of energy : 

--------------------------------------------------------------------------------
  Interatomic potentials     =           5.09689708 eV    
  Monopole - monopole (real) =         -10.02781331 eV    
  Monopole - monopole (recip)=         -29.51099824 eV    
  Monopole - monopole (total)=         -39.53881155 eV    
--------------------------------------------------------------------------------
  Total lattice energy       =         -34.44191447 eV    
--------------------------------------------------------------------------------
  Total lattice energy       =           -3323.1183 kJ/(mole unit cells)
--------------------------------------------------------------------------------

  Final asymmetric unit coordinates :

--------------------------------------------------------------------------------
   No.  Atomic        x           y           z         Radius
        Label       (Frac)      (Frac)      (Frac)       (Angs) 
--------------------------------------------------------------------------------
     1  Cl    c     0.000000    0.000000    0.000000    0.000000
     2  O     c     0.500000    0.500000    0.500000    0.000000
     3  Na    c     0.500000    0.500000    0.000000    0.000000
     4  Cl    s     0.000000    0.000000    0.000000    0.000000
     5  O     s     0.500000    0.500000    0.500000    0.000000
--------------------------------------------------------------------------------

  Final Cartesian lattice vectors (Angstroms) :

        4.507787    0.000000    0.000000
        0.000000    4.507787    0.000000
        0.000000    0.000000    4.507787


  Final cell parameters and derivatives :

--------------------------------------------------------------------------------
       a            4.507787 Angstrom     dE/de1(xx)     0.000000 eV/strain
       b            4.507787 Angstrom     dE/de2(yy)     0.000000 eV/strain
       c            4.507787 Angstrom     dE/de3(zz)     0.000000 eV/strain
       alpha       90.000000 Degrees      dE/de4(yz)     0.000000 eV/strain
       beta        90.000000 Degrees      dE/de5(xz)     0.000000 eV/strain
       gamma       90.000000 Degrees      dE/de6(xy)     0.000000 eV/strain
--------------------------------------------------------------------------------

  Primitive cell volume =            91.598892 Angs**3

  Density of cell =      2.183054 g/cm**3

  Non-primitive cell volume =            91.598892 Angs**3


  Final internal derivatives :

--------------------------------------------------------------------------------
   No.  Atomic          a             b             c           Radius
        Label          (eV)          (eV)          (eV)        (eV/Angs)
--------------------------------------------------------------------------------
      1 Cl    c       0.000000      0.000000      0.000000      0.000000
      2 O     c       0.000000      0.000000      0.000000      0.000000
      3 Na    c       0.000000      0.000000      0.000000      0.000000
      4 Cl    s       0.000000      0.000000      0.000000      0.000000
      5 O     s       0.000000      0.000000      0.000000      0.000000
--------------------------------------------------------------------------------
  Maximum abs         0.000000      0.000000      0.000000      0.000000
--------------------------------------------------------------------------------

  Comparison of initial and final structures : 

--------------------------------------------------------------------------------
  Parameter   Initial value   Final value   Difference    Units      Percent
--------------------------------------------------------------------------------
    Volume        91.368216     91.598892     0.230676    Angs**3      0.25
    a              4.504000      4.507787     0.003787    Angstroms    0.08
    b              4.504000      4.507787     0.003787    Angstroms    0.08
    c              4.504000      4.507787     0.003787    Angstroms    0.08
    alpha         90.000000     90.000000     0.000000    Degrees      0.00
    beta          90.000000     90.000000     0.000000    Degrees      0.00
    gamma         90.000000     90.000000     0.000000    Degrees      0.00
      1 x          0.000000      0.000000     0.000000    Fractional   0.00
      1 y          0.000000      0.000000     0.000000    Fractional   0.00
      1 z          0.000000      0.000000     0.000000    Fractional   0.00
      2 x          0.500000      0.500000     0.000000    Fractional   0.00
      2 y          0.500000      0.500000     0.000000    Fractional   0.00
      2 z          0.500000      0.500000     0.000000    Fractional   0.00
      3 x          0.500000      0.500000     0.000000    Fractional   0.00
      3 y          0.500000      0.500000     0.000000    Fractional   0.00
      3 z          0.000000      0.000000     0.000000    Fractional   0.00
      4 x          0.000000      0.000000     0.000000    Fractional   0.00
      4 y          0.000000      0.000000     0.000000    Fractional   0.00
      4 z          0.000000      0.000000     0.000000    Fractional   0.00
      5 x          0.500000      0.500000     0.000000    Fractional   0.00
      5 y          0.500000      0.500000     0.000000    Fractional   0.00
      5 z          0.500000      0.500000     0.000000    Fractional   0.00
--------------------------------------------------------------------------------


  Born effective charge tensors : 

-------------------------------------------------------------------------------
  Atom             x           y             z
-------------------------------------------------------------------------------
    1 Cl    x      -1.0181     -0.0000      0.0000
            y      -0.0000     -1.0181      0.0000
            z       0.0000      0.0000     -1.0181
-------------------------------------------------------------------------------
    2 O     x      -2.2647      0.0000     -0.0000
            y       0.0000     -2.2647     -0.0000
            z      -0.0000     -0.0000     -2.2647
-------------------------------------------------------------------------------
    3 Na    x       1.2258     -0.0000      0.0000
            y      -0.0000      1.2258     -0.0000
            z       0.0000     -0.0000      0.8313
-------------------------------------------------------------------------------




  Elastic Constant Matrix: (Units=GPa)

-------------------------------------------------------------------------------
  Indices      1         2         3         4         5         6    
-------------------------------------------------------------------------------
       1     95.8177   20.0737   20.0737   -0.0000   -0.0000    0.0000
       2     20.0737   95.8177   20.0737   -0.0000   -0.0000    0.0000
       3     20.0737   20.0737   95.8177   -0.0000   -0.0000    0.0000
       4     -0.0000   -0.0000   -0.0000   20.0737   -0.0000    0.0000
       5     -0.0000   -0.0000   -0.0000   -0.0000   20.0737    0.0000
       6      0.0000    0.0000    0.0000    0.0000    0.0000   20.0737
-------------------------------------------------------------------------------


  Elastic Compliance Matrix: (Units=1/GPa)

-------------------------------------------------------------------------------
  Indices      1         2         3         4         5         6    
-------------------------------------------------------------------------------
       1    0.011253 -0.001949 -0.001949  0.000000  0.000000 -0.000000
       2   -0.001949  0.011253 -0.001949  0.000000  0.000000  0.000000
       3   -0.001949 -0.001949  0.011253  0.000000  0.000000 -0.000000
       4    0.000000  0.000000  0.000000  0.049816  0.000000 -0.000000
       5    0.000000  0.000000  0.000000  0.000000  0.049816 -0.000000
       6   -0.000000  0.000000 -0.000000 -0.000000 -0.000000  0.049816
-------------------------------------------------------------------------------

  Mechanical properties :

-------------------------------------------------------------------------------
  Convention :                    Reuss         Voigt         Hill
-------------------------------------------------------------------------------
  Bulk  Modulus (GPa)     =      45.32174      45.32174      45.32174
  Shear Modulus (GPa)     =      24.72085      27.19304      25.95695
-------------------------------------------------------------------------------
  Velocity S-wave (km/s)  =       3.36511       3.52937       3.44822
  Velocity P-wave (km/s)  =       5.98827       6.11304       6.05098
-------------------------------------------------------------------------------
  Compressibility (1/GPa) =    0.02206447
-------------------------------------------------------------------------------
  Stress axis :                     x             y             z
-------------------------------------------------------------------------------
  Youngs Moduli (GPa)     =      88.86373      88.86373      88.86373
-------------------------------------------------------------------------------
  Poissons Ratio (x)      =                     0.17321       0.17321
  Poissons Ratio (y)      =       0.17321                     0.17321
  Poissons Ratio (z)      =       0.17321       0.17321
-------------------------------------------------------------------------------


  Piezoelectric Strain Matrix: (Units=C/m**2)

-------------------------------------------------------------------------------
  Indices      1         2         3         4         5         6    
-------------------------------------------------------------------------------
       x    -0.00000  -0.00000  -0.00000   0.00000  -0.00000  -0.00000
       y    -0.00000  -0.00000   0.00000  -0.00000   0.00000   0.00000
       z    -0.00000  -0.00000  -0.00000  -0.00000   0.00000   0.00000
-------------------------------------------------------------------------------


  Piezoelectric Stress Matrix: (Units=10**-11 C/N)

-------------------------------------------------------------------------------
  Indices      1         2         3         4         5         6    
-------------------------------------------------------------------------------
       x    -0.00000   0.00000   0.00000   0.00000  -0.00000  -0.00000
       y    -0.00000  -0.00000   0.00000  -0.00000   0.00000   0.00000
       z     0.00000   0.00000  -0.00000  -0.00000   0.00000   0.00000
-------------------------------------------------------------------------------


  Static dielectric constant tensor : 

-------------------------------------------------------------------------------
              x         y         z
-------------------------------------------------------------------------------
       x    22.84729   0.00000   0.00000
       y     0.00000  22.84729  -0.00000
       z     0.00000  -0.00000  22.84729
--------------------------------------------------------------------------------

  High frequency dielectric constant tensor : 

-------------------------------------------------------------------------------
              x         y         z
-------------------------------------------------------------------------------
       x     1.47557   0.00000  -0.00000
       y     0.00000   1.47557  -0.00000
       z    -0.00000  -0.00000   1.47557
-------------------------------------------------------------------------------

  Static refractive indices : 

-------------------------------------------------------------------------------
    1 =    4.77988      2 =    4.77988      3 =    4.77988
-------------------------------------------------------------------------------

  High frequency refractive indices : 

-------------------------------------------------------------------------------
    1 =    1.21473      2 =    1.21473      3 =    1.21473
-------------------------------------------------------------------------------


  Time to end of optimisation =       0.0325 seconds

********************************************************************************
*  Defect calculation for configuration   1 :                                  *
********************************************************************************

  Total number of defects =      3

  Total charge on defect  =  -1.00

  Defect centre is at   0.5000   0.4800   0.0200  Frac

  Region 1 radius =  12.0000      Number of ions =    540

  Number of symmetry inequivalent region 1 ions  =    314

  Region 2 radius =  16.0000      Number of ions =    773

  Number of symmetry inequivalent region 2a ions =    420

  Region 2a mode = 4 : screened electrostatics due to region 1 
                       neglect correction to region 1 forces from 2a
                       region 2a displacements based on defects only

  Region 2a ions will only interact with defects in region 1

  Vacancies:

--------------------------------------------------------------------------------
    Specification type     Symbol/Number         x          y          z
--------------------------------------------------------------------------------
    Fractional                               0.500000   0.500000   0.000000
    Fractional                               0.500000   0.000000   0.500000
--------------------------------------------------------------------------------

  Interstitials:

--------------------------------------------------------------------------------
    Specification type     Symbol/Number         x          y          z
--------------------------------------------------------------------------------
    Atom/Fractional         Na               0.500000   0.480000   0.020000
--------------------------------------------------------------------------------


  Symmetry reduced region 1 (Relative to defect centre) :

--------------------------------------------------------------------------------
   No.   Atomic       x            y             z       Radius  Multiplicity   
         Label      (Angs)       (Angs)        (Angs)    (Angs)     
--------------------------------------------------------------------------------
     1  Na    c      0.0000       0.0000       0.0000    0.0000     1    Defect
     2  O     c      0.0000       0.0902 *     2.1637 *  0.0000     1          
     3  O     c      0.0000       0.0902 *    -2.3440 *  0.0000     1          
     4  Na    c      2.2539 *     0.0902 *     2.1637 *  0.0000     2          
     5  Cl    c      2.2539 *    -2.1637 *    -0.0902 *  0.0000     2          
     6  Na    c      0.0000       2.3440 *     2.1637 *  0.0000     1          
     7  Na    c      0.0000      -2.1637 *    -2.3440 *  0.0000     1          
     8  Cl    c      2.2539 *     2.3440 *    -0.0902 *  0.0000     2          
     9  Na    c      2.2539 *     0.0902 *    -2.3440 *  0.0000     2          
    10  Na    c      0.0000       2.3440 *    -2.3440 *  0.0000     1          
    11  Na    c      0.0000       0.0902 *     4.4176 *  0.0000     1          
    12  Na    c      0.0000      -4.4176 *    -0.0902 *  0.0000     1          
    13  Na    c     -4.5078 *     0.0902 *    -0.0902 *  0.0000     2          
    14  Na    c      0.0000       4.5979 *    -0.0902 *  0.0000     1          
    15  Na    c      0.0000       0.0902 *    -4.5979 *  0.0000     1          
    16  O     c      0.0000      -4.4176 *     2.1637 *  0.0000     1          
    17  O     c     -4.5078 *     0.0902 *     2.1637 *  0.0000     2          
    18  O     c      0.0000      -4.4176 *    -2.3440 *  0.0000     1          
    19  O     c      0.0000       4.5979 *     2.1637 *  0.0000     1          
    20  O     c     -4.5078 *     0.0902 *    -2.3440 *  0.0000     2          
    21  O     c      0.0000       4.5979 *    -2.3440 *  0.0000     1          
    22  Cl    c      2.2539 *    -2.1637 *     4.4176 *  0.0000     2          
    23  Na    c      2.2539 *    -4.4176 *     2.1637 *  0.0000     2          
    24  Na    c     -4.5078 *    -2.1637 *     2.1637 *  0.0000     2          
    25  Cl    c      2.2539 *     2.3440 *     4.4176 *  0.0000     2          
    26  Na    c      2.2539 *    -4.4176 *    -2.3440 *  0.0000     2          
    27  Na    c     -4.5078 *     2.3440 *     2.1637 *  0.0000     2          
    28  Na    c     -4.5078 *    -2.1637 *    -2.3440 *  0.0000     2          
    29  Na    c      2.2539 *     4.5979 *     2.1637 *  0.0000     2          
    30  Cl    c      2.2539 *    -2.1637 *    -4.5979 *  0.0000     2          
    31  Na    c     -4.5078 *     2.3440 *    -2.3440 *  0.0000     2          
    32  Na    c      2.2539 *     4.5979 *    -2.3440 *  0.0000     2          
    33  Cl    c      2.2539 *     2.3440 *    -4.5979 *  0.0000     2          
    34  Na    c      0.0000      -4.4176 *     4.4176 *  0.0000     1          
    35  Na    c     -4.5078 *     0.0902 *     4.4176 *  0.0000     2          
    36  Na    c     -4.5078 *    -4.4176 *    -0.0902 *  0.0000     2          
    37  Na    c      0.0000       4.5979 *     4.4176 *  0.0000     1          
    38  Na    c      0.0000      -4.4176 *    -4.5979 *  0.0000     1          
    39  Na    c     -4.5078 *     4.5979 *    -0.0902 *  0.0000     2          
    40  Na    c     -4.5078 *     0.0902 *    -4.5979 *  0.0000     2          
    41  Na    c      0.0000       4.5979 *    -4.5979 *  0.0000     1          
    42  O     c      0.0000       0.0902 *     6.6715 *  0.0000     1          
    43  O     c     -4.5078 *    -4.4176 *     2.1637 *  0.0000     2          
    44  O     c     -4.5078 *    -4.4176 *    -2.3440 *  0.0000     2          
    45  O     c     -4.5078 *     4.5979 *     2.1637 *  0.0000     2          
    46  O     c     -4.5078 *     4.5979 *    -2.3440 *  0.0000     2          
    47  O     c      0.0000       0.0902 *    -6.8518 *  0.0000     1          
    48  Na    c      0.0000      -2.1637 *     6.6715 *  0.0000     1          
    49  Na    c      0.0000      -6.6715 *     2.1637 *  0.0000     1          
    50  Cl    c      2.2539 *    -6.6715 *    -0.0902 *  0.0000     2          
    51  Na    c      2.2539 *     0.0902 *     6.6715 *  0.0000     2          
    52  Na    c      0.0000       2.3440 *     6.6715 *  0.0000     1          
    53  Na    c      0.0000      -6.6715 *    -2.3440 *  0.0000     1          
    54  Na    c      6.7617 *     0.0902 *     2.1637 *  0.0000     2          
    55  Cl    c      6.7617 *    -2.1637 *    -0.0902 *  0.0000     2          
    56  Cl    c      6.7617 *     2.3440 *    -0.0902 *  0.0000     2          
    57  Na    c      6.7617 *     0.0902 *    -2.3440 *  0.0000     2          
    58  Na    c      0.0000       6.8518 *     2.1637 *  0.0000     1          
    59  Na    c      0.0000      -2.1637 *    -6.8518 *  0.0000     1          
    60  Cl    c      2.2539 *     6.8518 *    -0.0902 *  0.0000     2          
    61  Na    c      2.2539 *     0.0902 *    -6.8518 *  0.0000     2          
    62  Na    c      0.0000       6.8518 *    -2.3440 *  0.0000     1          
    63  Na    c      0.0000       2.3440 *    -6.8518 *  0.0000     1          
    64  Na    c     -4.5078 *    -4.4176 *     4.4176 *  0.0000     2          
    65  Na    c     -4.5078 *     4.5979 *     4.4176 *  0.0000     2          
    66  Na    c     -4.5078 *    -4.4176 *    -4.5979 *  0.0000     2          
    67  Na    c     -4.5078 *     4.5979 *    -4.5979 *  0.0000     2          
    68  O     c      0.0000      -4.4176 *     6.6715 *  0.0000     1          
    69  O     c      4.5078 *     0.0902 *     6.6715 *  0.0000     2          
    70  O     c      0.0000       4.5979 *     6.6715 *  0.0000     1          
    71  O     c      0.0000      -4.4176 *    -6.8518 *  0.0000     1          
    72  O     c      4.5078 *     0.0902 *    -6.8518 *  0.0000     2          
    73  O     c      0.0000       4.5979 *    -6.8518 *  0.0000     1          
    74  Cl    c      2.2539 *    -6.6715 *     4.4176 *  0.0000     2          
    75  Na    c      2.2539 *    -4.4176 *     6.6715 *  0.0000     2          
    76  Na    c      4.5078 *    -2.1637 *     6.6715 *  0.0000     2          
    77  Na    c      4.5078 *    -6.6715 *     2.1637 *  0.0000     2          
    78  Cl    c      6.7617 *    -2.1637 *     4.4176 *  0.0000     2          
    79  Na    c      6.7617 *    -4.4176 *     2.1637 *  0.0000     2          
    80  Na    c     -4.5078 *     2.3440 *     6.6715 *  0.0000     2          
    81  Na    c      4.5078 *    -6.6715 *    -2.3440 *  0.0000     2          
    82  Na    c      2.2539 *     4.5979 *     6.6715 *  0.0000     2          
    83  Cl    c      2.2539 *    -6.6715 *    -4.5979 *  0.0000     2          
    84  Cl    c      6.7617 *     2.3440 *     4.4176 *  0.0000     2          
    85  Na    c      6.7617 *    -4.4176 *    -2.3440 *  0.0000     2          
    86  Cl    c      2.2539 *     6.8518 *     4.4176 *  0.0000     2          
    87  Cl    c      6.7617 *    -2.1637 *    -4.5979 *  0.0000     2          
    88  Na    c      2.2539 *    -4.4176 *    -6.8518 *  0.0000     2          
    89  Na    c      6.7617 *     4.5979 *     2.1637 *  0.0000     2          
    90  Na    c      4.5078 *     6.8518 *     2.1637 *  0.0000     2          
    91  Na    c     -4.5078 *    -2.1637 *    -6.8518 *  0.0000     2          
    92  Cl    c      6.7617 *     2.3440 *    -4.5979 *  0.0000     2          
    93  Na    c      6.7617 *     4.5979 *    -2.3440 *  0.0000     2          
    94  Na    c      4.5078 *     6.8518 *    -2.3440 *  0.0000     2          
    95  Na    c     -4.5078 *     2.3440 *    -6.8518 *  0.0000     2          
    96  Cl    c      2.2539 *     6.8518 *    -4.5979 *  0.0000     2          
    97  Na    c      2.2539 *     4.5979 *    -6.8518 *  0.0000     2          
    98  Na    c      0.0000       0.0902 *     8.9254 *  0.0000     1          
    99  Na    c      0.0000      -8.9254 *    -0.0902 *  0.0000     1          
   100  Na    c      9.0156 *     0.0902 *    -0.0902 *  0.0000     2          
   101  Na    c      0.0000       9.1057 *    -0.0902 *  0.0000     1          
   102  Na    c      0.0000       0.0902 *    -9.1057 *  0.0000     1          
   103  O     c     -4.5078 *    -4.4176 *     6.6715 *  0.0000     2          
   104  O     c      0.0000      -8.9254 *     2.1637 *  0.0000     1          
   105  O     c      0.0000      -8.9254 *    -2.3440 *  0.0000     1          
   106  O     c      4.5078 *     4.5979 *     6.6715 *  0.0000     2          
   107  O     c      9.0156 *     0.0902 *     2.1637 *  0.0000     2          
   108  O     c      9.0156 *     0.0902 *    -2.3440 *  0.0000     2          
   109  O     c      4.5078 *    -4.4176 *    -6.8518 *  0.0000     2          
   110  O     c      0.0000       9.1057 *     2.1637 *  0.0000     1          
   111  O     c      0.0000       9.1057 *    -2.3440 *  0.0000     1          
   112  O     c     -4.5078 *     4.5979 *    -6.8518 *  0.0000     2          
   113  Na    c      0.0000      -6.6715 *     6.6715 *  0.0000     1          
   114  Cl    c      2.2539 *    -2.1637 *     8.9254 *  0.0000     2          
   115  Na    c      2.2539 *    -8.9254 *     2.1637 *  0.0000     2          
   116  Cl    c      2.2539 *     2.3440 *     8.9254 *  0.0000     2          
   117  Cl    c      6.7617 *    -6.6715 *    -0.0902 *  0.0000     2          
   118  Na    c      6.7617 *     0.0902 *     6.6715 *  0.0000     2          
   119  Na    c      2.2539 *    -8.9254 *    -2.3440 *  0.0000     2          
   120  Na    c      9.0156 *    -2.1637 *     2.1637 *  0.0000     2          
   121  Na    c      0.0000       6.8518 *     6.6715 *  0.0000     1          
   122  Na    c      0.0000      -6.6715 *    -6.8518 *  0.0000     1          
   123  Na    c      9.0156 *     2.3440 *     2.1637 *  0.0000     2          
   124  Na    c      9.0156 *    -2.1637 *    -2.3440 *  0.0000     2          
   125  Na    c      9.0156 *     2.3440 *    -2.3440 *  0.0000     2          
   126  Na    c      2.2539 *     9.1057 *     2.1637 *  0.0000     2          
   127  Cl    c      6.7617 *     6.8518 *    -0.0902 *  0.0000     2          
   128  Cl    c      2.2539 *    -2.1637 *    -9.1057 *  0.0000     2          
   129  Na    c      6.7617 *     0.0902 *    -6.8518 *  0.0000     2          
   130  Na    c      2.2539 *     9.1057 *    -2.3440 *  0.0000     2          
   131  Cl    c      2.2539 *     2.3440 *    -9.1057 *  0.0000     2          
   132  Na    c      0.0000       6.8518 *    -6.8518 *  0.0000     1          
   133  Na    c      0.0000      -4.4176 *     8.9254 *  0.0000     1          
   134  Na    c      0.0000      -8.9254 *     4.4176 *  0.0000     1          
   135  Na    c     -4.5078 *     0.0902 *     8.9254 *  0.0000     2          
   136  Na    c     -4.5078 *    -8.9254 *    -0.0902 *  0.0000     2          
   137  Na    c      0.0000       4.5979 *     8.9254 *  0.0000     1          
   138  Na    c      9.0156 *     0.0902 *     4.4176 *  0.0000     2          
   139  Na    c      9.0156 *    -4.4176 *    -0.0902 *  0.0000     2          
   140  Na    c      0.0000      -8.9254 *    -4.5979 *  0.0000     1          
   141  Na    c      0.0000       9.1057 *     4.4176 *  0.0000     1          
   142  Na    c      9.0156 *     0.0902 *    -4.5979 *  0.0000     2          
   143  Na    c      9.0156 *     4.5979 *    -0.0902 *  0.0000     2          
   144  Na    c      0.0000      -4.4176 *    -9.1057 *  0.0000     1          
   145  Na    c     -4.5078 *     9.1057 *    -0.0902 *  0.0000     2          
   146  Na    c     -4.5078 *     0.0902 *    -9.1057 *  0.0000     2          
   147  Na    c      0.0000       9.1057 *    -4.5979 *  0.0000     1          
   148  Na    c      0.0000       4.5979 *    -9.1057 *  0.0000     1          
   149  O     c     -4.5078 *    -8.9254 *     2.1637 *  0.0000     2          
   150  O     c      9.0156 *    -4.4176 *     2.1637 *  0.0000     2          
   151  O     c     -4.5078 *    -8.9254 *    -2.3440 *  0.0000     2          
   152  O     c      9.0156 *    -4.4176 *    -2.3440 *  0.0000     2          
   153  O     c      9.0156 *     4.5979 *     2.1637 *  0.0000     2          
   154  O     c     -4.5078 *     9.1057 *     2.1637 *  0.0000     2          
   155  O     c      9.0156 *     4.5979 *    -2.3440 *  0.0000     2          
   156  O     c     -4.5078 *     9.1057 *    -2.3440 *  0.0000     2          
   157  Na    c      4.5078 *    -6.6715 *     6.6715 *  0.0000     2          
   158  Cl    c      6.7617 *    -6.6715 *     4.4176 *  0.0000     2          
   159  Na    c      6.7617 *    -4.4176 *     6.6715 *  0.0000     2          
   160  Cl    c      6.7617 *    -6.6715 *    -4.5979 *  0.0000     2          
   161  Na    c      6.7617 *     4.5979 *     6.6715 *  0.0000     2          
   162  Na    c      4.5078 *     6.8518 *     6.6715 *  0.0000     2          
   163  Na    c      4.5078 *    -6.6715 *    -6.8518 *  0.0000     2          
   164  Cl    c      6.7617 *     6.8518 *     4.4176 *  0.0000     2          
   165  Na    c      6.7617 *    -4.4176 *    -6.8518 *  0.0000     2          
   166  Cl    c      6.7617 *     6.8518 *    -4.5979 *  0.0000     2          
   167  Na    c      6.7617 *     4.5979 *    -6.8518 *  0.0000     2          
   168  Na    c      4.5078 *     6.8518 *    -6.8518 *  0.0000     2          
   169  Na    c     -4.5078 *    -4.4176 *     8.9254 *  0.0000     2          
   170  Na    c     -4.5078 *    -8.9254 *     4.4176 *  0.0000     2          
   171  Na    c      9.0156 *    -4.4176 *     4.4176 *  0.0000     2          
   172  Na    c      4.5078 *     4.5979 *     8.9254 *  0.0000     2          
   173  Na    c     -4.5078 *    -8.9254 *    -4.5979 *  0.0000     2          
   174  Na    c      9.0156 *     4.5979 *     4.4176 *  0.0000     2          
   175  Na    c      9.0156 *    -4.4176 *    -4.5979 *  0.0000     2          
   176  Na    c     -4.5078 *     9.1057 *     4.4176 *  0.0000     2          
   177  Na    c     -4.5078 *    -4.4176 *    -9.1057 *  0.0000     2          
   178  Na    c      9.0156 *     4.5979 *    -4.5979 *  0.0000     2          
   179  O     c      0.0000      -8.9254 *     6.6715 *  0.0000     1          
   180  Na    c     -4.5078 *     9.1057 *    -4.5979 *  0.0000     2          
   181  Na    c      4.5078 *     4.5979 *    -9.1057 *  0.0000     2          
   182  O     c      0.0000       0.0902 *    11.1793 *  0.0000     1          
   183  O     c      9.0156 *     0.0902 *     6.6715 *  0.0000     2          
   184  O     c      0.0000      -8.9254 *    -6.8518 *  0.0000     1          
   185  O     c      0.0000       9.1057 *     6.6715 *  0.0000     1          
   186  O     c      9.0156 *     0.0902 *    -6.8518 *  0.0000     2          
   187  O     c      0.0000       0.0902 *   -11.3596 *  0.0000     1          
   188  Cl    c      2.2539 *    -6.6715 *     8.9254 *  0.0000     2          
   189  Na    c      2.2539 *    -8.9254 *     6.6715 *  0.0000     2          
   190  Na    c      0.0000      -2.1637 *    11.1793 *  0.0000     1          
   191  Na    c      0.0000     -11.1793 *     2.1637 *  0.0000     1          
   192  O     c      0.0000       9.1057 *    -6.8518 *  0.0000     1          
   193  Cl    c      2.2539 *   -11.1793 *    -0.0902 *  0.0000     2          
   194  Cl    c      6.7617 *    -2.1637 *     8.9254 *  0.0000     2          
   195  Na    c      2.2539 *     0.0902 *    11.1793 *  0.0000     2          
   196  Na    c      6.7617 *    -8.9254 *     2.1637 *  0.0000     2          
   197  Na    c      0.0000       2.3440 *    11.1793 *  0.0000     1          
   198  Na    c      0.0000     -11.1793 *    -2.3440 *  0.0000     1          
   199  Na    c      9.0156 *    -2.1637 *     6.6715 *  0.0000     2          
   200  Na    c      9.0156 *    -6.6715 *     2.1637 *  0.0000     2          
   201  Cl    c      6.7617 *     2.3440 *     8.9254 *  0.0000     2          
   202  Na    c      6.7617 *    -8.9254 *    -2.3440 *  0.0000     2          
   203  Na    c      9.0156 *    -6.6715 *    -2.3440 *  0.0000     2          
   204  Na    c      9.0156 *     2.3440 *     6.6715 *  0.0000     2          
   205  Na    c     11.2695 *     0.0902 *     2.1637 *  0.0000     2          
   206  Cl    c      2.2539 *     6.8518 *     8.9254 *  0.0000     2          
   207  Cl    c     11.2695 *    -2.1637 *    -0.0902 *  0.0000     2          
   208  Na    c      2.2539 *    -8.9254 *    -6.8518 *  0.0000     2          
   209  Cl    c     11.2695 *     2.3440 *    -0.0902 *  0.0000     2          
   210  Na    c      2.2539 *     9.1057 *     6.6715 *  0.0000     2          
   211  Na    c     11.2695 *     0.0902 *    -2.3440 *  0.0000     2          
   212  Cl    c      2.2539 *    -6.6715 *    -9.1057 *  0.0000     2          
   213  Na    c      9.0156 *     6.8518 *     2.1637 *  0.0000     2          
   214  Na    c      9.0156 *    -2.1637 *    -6.8518 *  0.0000     2          
   215  Cl    c      6.7617 *    -2.1637 *    -9.1057 *  0.0000     2          
   216  Na    c      6.7617 *     9.1057 *     2.1637 *  0.0000     2          
   217  Na    c      9.0156 *     6.8518 *    -2.3440 *  0.0000     2          
   218  Na    c      0.0000      11.3596 *     2.1637 *  0.0000     1          
   219  Na    c      0.0000      -2.1637 *   -11.3596 *  0.0000     1          
   220  Na    c      9.0156 *     2.3440 *    -6.8518 *  0.0000     2          
   221  Na    c      6.7617 *     9.1057 *    -2.3440 *  0.0000     2          
   222  Cl    c      2.2539 *    11.3596 *    -0.0902 *  0.0000     2          
   223  Cl    c      6.7617 *     2.3440 *    -9.1057 *  0.0000     2          
   224  Na    c      2.2539 *     0.0902 *   -11.3596 *  0.0000     2          
   225  Na    c      0.0000       2.3440 *   -11.3596 *  0.0000     1          
   226  Na    c      0.0000      11.3596 *    -2.3440 *  0.0000     1          
   227  Na    c      2.2539 *     9.1057 *    -6.8518 *  0.0000     2          
   228  Cl    c      2.2539 *     6.8518 *    -9.1057 *  0.0000     2          
   229  O     s      0.0000       0.0902 *     2.1637 *  0.0000     1          
   230  O     s      0.0000       0.0902 *    -2.3440 *  0.0000     1          
   231  Cl    s      2.2539 *    -2.1637 *    -0.0902 *  0.0000     2          
   232  Cl    s      2.2539 *     2.3440 *    -0.0902 *  0.0000     2          
   233  O     s      0.0000      -4.4176 *     2.1637 *  0.0000     1          
   234  O     s     -4.5078 *     0.0902 *     2.1637 *  0.0000     2          
   235  O     s      0.0000      -4.4176 *    -2.3440 *  0.0000     1          
   236  O     s      0.0000       4.5979 *     2.1637 *  0.0000     1          
   237  O     s     -4.5078 *     0.0902 *    -2.3440 *  0.0000     2          
   238  O     s      0.0000       4.5979 *    -2.3440 *  0.0000     1          
   239  Cl    s      2.2539 *    -2.1637 *     4.4176 *  0.0000     2          
   240  Cl    s      2.2539 *     2.3440 *     4.4176 *  0.0000     2          
   241  Cl    s      2.2539 *    -2.1637 *    -4.5979 *  0.0000     2          
   242  Cl    s      2.2539 *     2.3440 *    -4.5979 *  0.0000     2          
   243  O     s      0.0000       0.0902 *     6.6715 *  0.0000     1          
   244  O     s     -4.5078 *    -4.4176 *     2.1637 *  0.0000     2          
   245  O     s     -4.5078 *    -4.4176 *    -2.3440 *  0.0000     2          
   246  O     s     -4.5078 *     4.5979 *     2.1637 *  0.0000     2          
   247  O     s     -4.5078 *     4.5979 *    -2.3440 *  0.0000     2          
   248  O     s      0.0000       0.0902 *    -6.8518 *  0.0000     1          
   249  Cl    s      2.2539 *    -6.6715 *    -0.0902 *  0.0000     2          
   250  Cl    s      6.7617 *    -2.1637 *    -0.0902 *  0.0000     2          
   251  Cl    s      6.7617 *     2.3440 *    -0.0902 *  0.0000     2          
   252  Cl    s      2.2539 *     6.8518 *    -0.0902 *  0.0000     2          
   253  O     s      0.0000      -4.4176 *     6.6715 *  0.0000     1          
   254  O     s      4.5078 *     0.0902 *     6.6715 *  0.0000     2          
   255  O     s      0.0000       4.5979 *     6.6715 *  0.0000     1          
   256  O     s      0.0000      -4.4176 *    -6.8518 *  0.0000     1          
   257  O     s      4.5078 *     0.0902 *    -6.8518 *  0.0000     2          
   258  O     s      0.0000       4.5979 *    -6.8518 *  0.0000     1          
   259  Cl    s      2.2539 *    -6.6715 *     4.4176 *  0.0000     2          
   260  Cl    s      6.7617 *    -2.1637 *     4.4176 *  0.0000     2          
   261  Cl    s      2.2539 *    -6.6715 *    -4.5979 *  0.0000     2          
   262  Cl    s      6.7617 *     2.3440 *     4.4176 *  0.0000     2          
   263  Cl    s      2.2539 *     6.8518 *     4.4176 *  0.0000     2          
   264  Cl    s      6.7617 *    -2.1637 *    -4.5979 *  0.0000     2          
   265  Cl    s      6.7617 *     2.3440 *    -4.5979 *  0.0000     2          
   266  Cl    s      2.2539 *     6.8518 *    -4.5979 *  0.0000     2          
   267  O     s     -4.5078 *    -4.4176 *     6.6715 *  0.0000     2          
   268  O     s      0.0000      -8.9254 *     2.1637 *  0.0000     1          
   269  O     s      0.0000      -8.9254 *    -2.3440 *  0.0000     1          
   270  O     s      4.5078 *     4.5979 *     6.6715 *  0.0000     2          
   271  O     s      9.0156 *     0.0902 *     2.1637 *  0.0000     2          
   272  O     s      9.0156 *     0.0902 *    -2.3440 *  0.0000     2          
   273  O     s      4.5078 *    -4.4176 *    -6.8518 *  0.0000     2          
   274  O     s      0.0000       9.1057 *     2.1637 *  0.0000     1          
   275  O     s      0.0000       9.1057 *    -2.3440 *  0.0000     1          
   276  O     s     -4.5078 *     4.5979 *    -6.8518 *  0.0000     2          
   277  Cl    s      2.2539 *    -2.1637 *     8.9254 *  0.0000     2          
   278  Cl    s      2.2539 *     2.3440 *     8.9254 *  0.0000     2          
   279  Cl    s      6.7617 *    -6.6715 *    -0.0902 *  0.0000     2          
   280  Cl    s      6.7617 *     6.8518 *    -0.0902 *  0.0000     2          
   281  Cl    s      2.2539 *    -2.1637 *    -9.1057 *  0.0000     2          
   282  Cl    s      2.2539 *     2.3440 *    -9.1057 *  0.0000     2          
   283  O     s     -4.5078 *    -8.9254 *     2.1637 *  0.0000     2          
   284  O     s      9.0156 *    -4.4176 *     2.1637 *  0.0000     2          
   285  O     s     -4.5078 *    -8.9254 *    -2.3440 *  0.0000     2          
   286  O     s      9.0156 *    -4.4176 *    -2.3440 *  0.0000     2          
   287  O     s      9.0156 *     4.5979 *     2.1637 *  0.0000     2          
   288  O     s     -4.5078 *     9.1057 *     2.1637 *  0.0000     2          
   289  O     s      9.0156 *     4.5979 *    -2.3440 *  0.0000     2          
   290  O     s     -4.5078 *     9.1057 *    -2.3440 *  0.0000     2          
   291  Cl    s      6.7617 *    -6.6715 *     4.4176 *  0.0000     2          
   292  Cl    s      6.7617 *    -6.6715 *    -4.5979 *  0.0000     2          
   293  Cl    s      6.7617 *     6.8518 *     4.4176 *  0.0000     2          
   294  Cl    s      6.7617 *     6.8518 *    -4.5979 *  0.0000     2          
   295  O     s      0.0000      -8.9254 *     6.6715 *  0.0000     1          
   296  O     s      0.0000       0.0902 *    11.1793 *  0.0000     1          
   297  O     s      9.0156 *     0.0902 *     6.6715 *  0.0000     2          
   298  O     s      0.0000      -8.9254 *    -6.8518 *  0.0000     1          
   299  O     s      0.0000       9.1057 *     6.6715 *  0.0000     1          
   300  O     s      9.0156 *     0.0902 *    -6.8518 *  0.0000     2          
   301  O     s      0.0000       0.0902 *   -11.3596 *  0.0000     1          
   302  Cl    s      2.2539 *    -6.6715 *     8.9254 *  0.0000     2          
   303  O     s      0.0000       9.1057 *    -6.8518 *  0.0000     1          
   304  Cl    s      2.2539 *   -11.1793 *    -0.0902 *  0.0000     2          
   305  Cl    s      6.7617 *    -2.1637 *     8.9254 *  0.0000     2          
   306  Cl    s      6.7617 *     2.3440 *     8.9254 *  0.0000     2          
   307  Cl    s      2.2539 *     6.8518 *     8.9254 *  0.0000     2          
   308  Cl    s     11.2695 *    -2.1637 *    -0.0902 *  0.0000     2          
   309  Cl    s     11.2695 *     2.3440 *    -0.0902 *  0.0000     2          
   310  Cl    s      2.2539 *    -6.6715 *    -9.1057 *  0.0000     2          
   311  Cl    s      6.7617 *    -2.1637 *    -9.1057 *  0.0000     2          
   312  Cl    s      2.2539 *    11.3596 *    -0.0902 *  0.0000     2          
   313  Cl    s      6.7617 *     2.3440 *    -9.1057 *  0.0000     2          
   314  Cl    s      2.2539 *     6.8518 *    -9.1057 *  0.0000     2          
--------------------------------------------------------------------------------

  Components of defect energy : 

--------------------------------------------------------------------------------
  Region 1 - region 1                   =    -17.56794686 eV
  Region 1 - region 2a (unrelaxed)      =     25.99282173 eV
  Region 1 - 2a (relaxed - correction)  =     -0.31597748 eV
  Region 1 (Total)                      =      8.10889738 eV
  Region 2a                             =      0.15788221 eV
  Region 2b                             =     -0.43908503 eV
--------------------------------------------------------------------------------
  Total defect energy                   =      7.82769456 eV
--------------------------------------------------------------------------------

  Largest displacement in region 2 =   0.0328 Angstroms


  Number of variables =      852

  Maximum number of calculations  =        1000
  Maximum Hessian update interval =          10
  Maximum step size               =   1.0000000
  Maximum parameter tolerance     =   0.0000100
  Maximum function  tolerance     =   0.0000100
  Maximum gradient  tolerance     =   0.0010000

  Symmetry adapted optimisation

  Symmetry to be used for second derivatives

  Newton-Raphson optimiser to be used

  BFGS hessian update to be used

  Lower half triangular hessian to be used

  Start of defect optimisation :

  Cycle:      0 Defect Energy:   7.827695  Gnorm:     0.019802  CPU:    2.872
  ** Hessian calculated **
  Cycle:      1 Defect Energy:   6.061355  Gnorm:     0.007724  CPU:    7.443
  Cycle:      2 Defect Energy:   5.464119  Gnorm:     0.006071  CPU:   11.440
  Cycle:      3 Defect Energy:   5.327848  Gnorm:     0.003313  CPU:   15.444
  Cycle:      4 Defect Energy:   5.278861  Gnorm:     0.003161  CPU:   18.981
  Cycle:      5 Defect Energy:   5.212659  Gnorm:     0.002717  CPU:   20.072
  Cycle:      6 Defect Energy:   5.125077  Gnorm:     0.002207  CPU:   21.118
  Cycle:      7 Defect Energy:   5.030251  Gnorm:     0.002088  CPU:   22.236
  Cycle:      8 Defect Energy:   4.965876  Gnorm:     0.001749  CPU:   23.390
  Cycle:      9 Defect Energy:   4.916279  Gnorm:     0.001824  CPU:   24.435
  Cycle:     10 Defect Energy:   4.868857  Gnorm:     0.001869  CPU:   25.507
  ** Hessian calculated **
  Cycle:     11 Defect Energy:   4.844456  Gnorm:     0.001793  CPU:   28.286
  Cycle:     12 Defect Energy:   4.836617  Gnorm:     0.001741  CPU:   29.316
  ** Hessian calculated **
  Cycle:     13 Defect Energy:   4.718996  Gnorm:     0.001323  CPU:   31.984
  Cycle:     14 Defect Energy:   4.691308  Gnorm:     0.001288  CPU:   32.762
  ** Hessian calculated **
  Cycle:     15 Defect Energy:   4.625323  Gnorm:     0.000927  CPU:   35.037
  Cycle:     16 Defect Energy:   4.591108  Gnorm:     0.000706  CPU:   36.041
  Cycle:     17 Defect Energy:   4.591965  Gnorm:     0.000825  CPU:   36.969
  ** Hessian calculated **
  Cycle:     18 Defect Energy:   4.587376  Gnorm:     0.000513  CPU:   39.287
  Cycle:     19 Defect Energy:   4.582919  Gnorm:     0.000435  CPU:   40.214
  Cycle:     20 Defect Energy:   4.578390  Gnorm:     0.000433  CPU:   41.165
  Cycle:     21 Defect Energy:   4.574035  Gnorm:     0.000418  CPU:   42.030
  Cycle:     22 Defect Energy:   4.571160  Gnorm:     0.000410  CPU:   42.915
  Cycle:     23 Defect Energy:   4.568476  Gnorm:     0.000412  CPU:   43.783
  Cycle:     24 Defect Energy:   4.566080  Gnorm:     0.000416  CPU:   44.746
  Cycle:     25 Defect Energy:   4.563636  Gnorm:     0.000396  CPU:   45.402
  Cycle:     26 Defect Energy:   4.561255  Gnorm:     0.000391  CPU:   47.501
  Cycle:     27 Defect Energy:   4.558849  Gnorm:     0.000381  CPU:   50.414
  ** Hessian calculated **
  Cycle:     28 Defect Energy:   4.556542  Gnorm:     0.000358  CPU:   53.271
  Cycle:     29 Defect Energy:   4.553195  Gnorm:     0.000323  CPU:   54.390
  Cycle:     30 Defect Energy:   4.548435  Gnorm:     0.000270  CPU:   55.642
  Cycle:     31 Defect Energy:   4.542210  Gnorm:     0.000234  CPU:   56.676
  Cycle:     32 Defect Energy:   4.540330  Gnorm:     0.000227  CPU:   57.760
  Cycle:     33 Defect Energy:   4.541235  Gnorm:     0.000263  CPU:   58.824
  ** Hessian calculated **
  Cycle:     34 Defect Energy:   4.540494  Gnorm:     0.000161  CPU:   61.550
  Cycle:     35 Defect Energy:   4.540225  Gnorm:     0.000113  CPU:   62.562
  Cycle:     36 Defect Energy:   4.539951  Gnorm:     0.000108  CPU:   63.562
  Cycle:     37 Defect Energy:   4.539641  Gnorm:     0.000102  CPU:   64.615
  Cycle:     38 Defect Energy:   4.539359  Gnorm:     0.000112  CPU:   65.593
  Cycle:     39 Defect Energy:   4.539021  Gnorm:     0.000125  CPU:   66.566
  Cycle:     40 Defect Energy:   4.538687  Gnorm:     0.000139  CPU:   67.525
  Cycle:     41 Defect Energy:   4.538266  Gnorm:     0.000151  CPU:   68.495
  Cycle:     42 Defect Energy:   4.537786  Gnorm:     0.000166  CPU:   69.547
  Cycle:     43 Defect Energy:   4.537105  Gnorm:     0.000185  CPU:   70.516
  ** Hessian calculated **
  Cycle:     44 Defect Energy:   4.536919  Gnorm:     0.000163  CPU:   72.910
  Cycle:     45 Defect Energy:   4.536671  Gnorm:     0.000151  CPU:   73.846
  Cycle:     46 Defect Energy:   4.536398  Gnorm:     0.000144  CPU:   74.841
  Cycle:     47 Defect Energy:   4.536011  Gnorm:     0.000141  CPU:   75.739
  Cycle:     48 Defect Energy:   4.535583  Gnorm:     0.000142  CPU:   76.636
  Cycle:     49 Defect Energy:   4.535062  Gnorm:     0.000149  CPU:   77.556
  Cycle:     50 Defect Energy:   4.534506  Gnorm:     0.000186  CPU:   78.466
  Cycle:     51 Defect Energy:   4.533606  Gnorm:     0.000202  CPU:   79.482
  Cycle:     52 Defect Energy:   4.532462  Gnorm:     0.000264  CPU:   80.212
  Cycle:     53 Defect Energy:   4.530662  Gnorm:     0.000335  CPU:   82.427
  ** Hessian calculated **
  Cycle:     54 Defect Energy:   4.529449  Gnorm:     0.000305  CPU:   87.144
  Cycle:     55 Defect Energy:   4.527879  Gnorm:     0.000286  CPU:   88.265
  Cycle:     56 Defect Energy:   4.525880  Gnorm:     0.000281  CPU:   89.371
  Cycle:     57 Defect Energy:   4.523345  Gnorm:     0.000272  CPU:   90.516
  Cycle:     58 Defect Energy:   4.520427  Gnorm:     0.000285  CPU:   91.430
  Cycle:     59 Defect Energy:   4.517839  Gnorm:     0.000308  CPU:   92.397
  Cycle:     60 Defect Energy:   4.514891  Gnorm:     0.000362  CPU:   93.438
  Cycle:     61 Defect Energy:   4.510576  Gnorm:     0.000440  CPU:   94.574
  Cycle:     62 Defect Energy:   4.504739  Gnorm:     0.000556  CPU:   95.587
  Cycle:     63 Defect Energy:   4.497282  Gnorm:     0.000707  CPU:   96.612
  ** Hessian calculated **
  Cycle:     64 Defect Energy:   4.492744  Gnorm:     0.000664  CPU:   99.161
  Cycle:     65 Defect Energy:   4.486641  Gnorm:     0.000641  CPU:  100.252
  Cycle:     66 Defect Energy:   4.478846  Gnorm:     0.000616  CPU:  101.255
  Cycle:     67 Defect Energy:   4.468980  Gnorm:     0.000596  CPU:  102.212
  Cycle:     68 Defect Energy:   4.459692  Gnorm:     0.000595  CPU:  103.174
  Cycle:     69 Defect Energy:   4.453158  Gnorm:     0.000600  CPU:  104.161
  Cycle:     70 Defect Energy:   4.447844  Gnorm:     0.000662  CPU:  105.162
  Cycle:     71 Defect Energy:   4.442333  Gnorm:     0.000671  CPU:  106.083
  Cycle:     72 Defect Energy:   4.437165  Gnorm:     0.000715  CPU:  106.969
  Cycle:     73 Defect Energy:   4.430862  Gnorm:     0.000761  CPU:  107.913
  ** Hessian calculated **
  Cycle:     74 Defect Energy:   4.428381  Gnorm:     0.000745  CPU:  110.381
  Cycle:     75 Defect Energy:   4.424994  Gnorm:     0.000736  CPU:  111.252
  Cycle:     76 Defect Energy:   4.420471  Gnorm:     0.000725  CPU:  112.145
  Cycle:     77 Defect Energy:   4.414719  Gnorm:     0.000714  CPU:  113.054
  Cycle:     78 Defect Energy:   4.408308  Gnorm:     0.000717  CPU:  114.024
  Cycle:     79 Defect Energy:   4.403606  Gnorm:     0.000720  CPU:  114.959
  Cycle:     80 Defect Energy:   4.399575  Gnorm:     0.000739  CPU:  119.355
  Cycle:     81 Defect Energy:   4.395314  Gnorm:     0.000757  CPU:  121.033
  Cycle:     82 Defect Energy:   4.391148  Gnorm:     0.000778  CPU:  122.136
  Cycle:     83 Defect Energy:   4.386330  Gnorm:     0.000796  CPU:  123.245
  ** Hessian calculated **
  Cycle:     84 Defect Energy:   4.373819  Gnorm:     0.000753  CPU:  126.224
  Cycle:     85 Defect Energy:   4.356951  Gnorm:     0.000688  CPU:  127.321
  Cycle:     86 Defect Energy:   4.334440  Gnorm:     0.000573  CPU:  128.391
  Cycle:     87 Defect Energy:   4.307579  Gnorm:     0.000365  CPU:  129.448
  Cycle:     88 Defect Energy:   4.297100  Gnorm:     0.000574  CPU:  130.592
  Cycle:     89 Defect Energy:   4.282180  Gnorm:     0.000645  CPU:  131.616
  Cycle:     90 Defect Energy:   4.275397  Gnorm:     0.000531  CPU:  132.646
  Cycle:     91 Defect Energy:   4.269002  Gnorm:     0.000536  CPU:  133.659
  Cycle:     92 Defect Energy:   4.266856  Gnorm:     0.000659  CPU:  134.666
  ** Hessian calculated **
  Cycle:     93 Defect Energy:   4.243474  Gnorm:     0.000685  CPU:  137.287
  Cycle:     94 Defect Energy:   4.216630  Gnorm:     0.000806  CPU:  138.246
  Cycle:     95 Defect Energy:   4.210145  Gnorm:     0.000661  CPU:  139.234
  ** Hessian calculated **
  Cycle:     96 Defect Energy:   4.199206  Gnorm:     0.000493  CPU:  141.692
  Cycle:     97 Defect Energy:   4.193979  Gnorm:     0.000291  CPU:  142.242
  Cycle:     98 Defect Energy:   4.191706  Gnorm:     0.000218  CPU:  142.822
  Cycle:     99 Defect Energy:   4.190553  Gnorm:     0.000129  CPU:  143.363
  Cycle:    100 Defect Energy:   4.189992  Gnorm:     0.000094  CPU:  143.908
  Cycle:    101 Defect Energy:   4.189685  Gnorm:     0.000061  CPU:  144.445
  Cycle:    102 Defect Energy:   4.189497  Gnorm:     0.000044  CPU:  144.941
  Cycle:    103 Defect Energy:   4.189391  Gnorm:     0.000029  CPU:  145.436
  Cycle:    104 Defect Energy:   4.189332  Gnorm:     0.000021  CPU:  146.025
  Cycle:    105 Defect Energy:   4.189302  Gnorm:     0.000013  CPU:  146.508
  ** Hessian calculated **
  Cycle:    106 Defect Energy:   4.189291  Gnorm:     0.000009  CPU:  147.846


  **** Optimisation achieved ****


  Final defect energy  =        4.18928858
  Final defect Gnorm   =        0.00000662

  Components of defect energy : 

--------------------------------------------------------------------------------
  Region 1 - region 1                   =    -18.32914339 eV
  Region 1 - region 2a (unrelaxed)      =     23.06190050 eV
  Region 1 - 2a (relaxed - correction)  =     -0.22541592 eV
  Region 1 (Total)                      =      4.50734118 eV
  Region 2a                             =      0.11255031 eV
  Region 2b                             =     -0.43060290 eV
--------------------------------------------------------------------------------
  Total defect energy                   =      4.18928858 eV
--------------------------------------------------------------------------------

  Largest displacement in region 2 =   0.0328 Angstroms

  Final coordinates of region 1 :

--------------------------------------------------------------------------------
   No.  Atomic        x           y           z          Radius      Charge
        Label       (Angs)      (Angs)      (Angs)       (Angs)       (e) 
--------------------------------------------------------------------------------
     1  Na    c     2.253894    2.163738    0.090156    0.000000    1.000000
     2  O     c     2.253894    2.369256    2.296572    0.000000    0.183000
     3  O     c     2.253894    2.262170   -2.227421    0.000000    0.183000
     4  Na    c     4.423090    1.872036    2.231307    0.000000    1.000000
     5  Na    c     0.084698    1.872036    2.231307    0.000000    1.000000
     6  Cl    c     4.613069    0.019270   -0.144860    0.000000    1.485000
     7  Cl    c    -0.105282    0.019270   -0.144860    0.000000    1.485000
     8  Na    c     2.253894    4.542433    2.545660    0.000000    1.000000
     9  Na    c     2.253894    0.014411   -2.534517    0.000000    1.000000
    10  Cl    c     4.506991    4.614936   -0.130491    0.000000    1.485000
    11  Cl    c     0.000797    4.614936   -0.130491    0.000000    1.485000
    12  Na    c     4.508385    2.274868   -2.146661    0.000000    1.000000
    13  Na    c    -0.000598    2.274868   -2.146661    0.000000    1.000000
    14  Na    c     2.253894    4.499841   -2.080318    0.000000    1.000000
    15  Na    c     2.253894    1.738117    4.430772    0.000000    1.000000
    16  Na    c     2.253894   -1.667854    0.096707    0.000000    1.000000
    17  Na    c    -2.304482    1.876596    0.002519    0.000000    1.000000
    18  Na    c     6.812269    1.876596    0.002519    0.000000    1.000000
    19  Na    c     2.253894    6.582169    0.038670    0.000000    1.000000
    20  Na    c     2.253894    2.547189   -4.486361    0.000000    1.000000
    21  O     c     2.253894   -2.317690    2.228999    0.000000    0.183000
    22  O     c    -2.213345    2.233366    2.251643    0.000000    0.183000
    23  O     c     6.721132    2.233366    2.251643    0.000000    0.183000
    24  O     c     2.253894   -2.234617   -2.179342    0.000000    0.183000
    25  O     c     2.253894    6.823170    2.292937    0.000000    0.183000
    26  O     c    -2.258996    2.258357   -2.256333    0.000000    0.183000
    27  O     c     6.766783    2.258357   -2.256333    0.000000    0.183000
    28  O     c     2.253894    6.749383   -2.238337    0.000000    0.183000
    29  Cl    c     4.651379   -0.008031    4.598770    0.000000    1.485000
    30  Cl    c    -0.143591   -0.008031    4.598770    0.000000    1.485000
    31  Na    c     4.437618   -1.899176    2.221460    0.000000    1.000000
    32  Na    c     0.070169   -1.899176    2.221460    0.000000    1.000000
    33  Na    c    -2.452483    0.011772    2.653551    0.000000    1.000000
    34  Na    c     6.960271    0.011772    2.653551    0.000000    1.000000
    35  Cl    c     4.605445    4.642908    4.573997    0.000000    1.485000
    36  Cl    c    -0.097658    4.642908    4.573997    0.000000    1.485000
    37  Na    c     4.507104   -2.293585   -2.095994    0.000000    1.000000
    38  Na    c     0.000683   -2.293585   -2.095994    0.000000    1.000000
    39  Na    c    -1.962476    4.477078    1.928806    0.000000    1.000000
    40  Na    c     6.470263    4.477078    1.928806    0.000000    1.000000
    41  Na    c    -2.133252    0.006867   -2.592427    0.000000    1.000000
    42  Na    c     6.641040    0.006867   -2.592427    0.000000    1.000000
    43  Na    c     4.504493    6.843054    2.405964    0.000000    1.000000
    44  Na    c     0.003295    6.843054    2.405964    0.000000    1.000000
    45  Cl    c     4.504690    0.024125   -4.554372    0.000000    1.485000
    46  Cl    c     0.003097    0.024125   -4.554372    0.000000    1.485000
    47  Na    c    -2.285551    4.504233   -1.882305    0.000000    1.000000
    48  Na    c     6.793338    4.504233   -1.882305    0.000000    1.000000
    49  Na    c     4.513825    6.686495   -2.304638    0.000000    1.000000
    50  Na    c    -0.006038    6.686495   -2.304638    0.000000    1.000000
    51  Cl    c     4.483839    4.547816   -4.527777    0.000000    1.485000
    52  Cl    c     0.023948    4.547816   -4.527777    0.000000    1.485000
    53  Na    c     2.253894   -1.964548    4.432513    0.000000    1.000000
    54  Na    c    -2.132834    2.593319    4.492518    0.000000    1.000000
    55  Na    c     6.640621    2.593319    4.492518    0.000000    1.000000
    56  Na    c    -2.316886   -1.897415    0.009553    0.000000    1.000000
    57  Na    c     6.824673   -1.897415    0.009553    0.000000    1.000000
    58  Na    c     2.253894    7.170853    4.515595    0.000000    1.000000
    59  Na    c     2.253894   -2.590757   -4.441130    0.000000    1.000000
    60  Na    c    -2.091522    7.079662   -0.000767    0.000000    1.000000
    61  Na    c     6.599309    7.079662   -0.000767    0.000000    1.000000
    62  Na    c    -2.192052    2.619756   -4.493547    0.000000    1.000000
    63  Na    c     6.699839    2.619756   -4.493547    0.000000    1.000000
    64  Na    c     2.253894    6.639270   -4.490597    0.000000    1.000000
    65  O     c     2.253894    2.224102    6.715131    0.000000    0.183000
    66  O     c    -2.224280   -2.212826    2.260923    0.000000    0.183000
    67  O     c     6.732067   -2.212826    2.260923    0.000000    0.183000
    68  O     c    -2.258508   -2.242061   -2.250915    0.000000    0.183000
    69  O     c     6.766295   -2.242061   -2.250915    0.000000    0.183000
    70  O     c    -2.242864    6.738107    2.237281    0.000000    0.183000
    71  O     c     6.750651    6.738107    2.237281    0.000000    0.183000
    72  O     c    -2.267419    6.761381   -2.247384    0.000000    0.183000
    73  O     c     6.775206    6.761381   -2.247384    0.000000    0.183000
    74  O     c     2.253894    2.237206   -6.739531    0.000000    0.183000
    75  Na    c     2.253894    0.011772    7.138402    0.000000    1.000000
    76  Na    c     2.253894   -4.495200    2.072037    0.000000    1.000000
    77  Cl    c     4.582177   -4.644222   -0.081743    0.000000    1.485000
    78  Cl    c    -0.074390   -4.644222   -0.081743    0.000000    1.485000
    79  Na    c     4.507512    2.143733    6.723534    0.000000    1.000000
    80  Na    c     0.000275    2.143733    6.723534    0.000000    1.000000
    81  Na    c     2.253894    4.485934    6.339649    0.000000    1.000000
    82  Na    c     2.253894   -4.476896   -1.792960    0.000000    1.000000
    83  Na    c     8.985334    2.457733    2.279781    0.000000    1.000000
    84  Na    c    -4.477547    2.457733    2.279781    0.000000    1.000000
    85  Cl    c     9.040317    0.002774   -0.032129    0.000000    1.485000
    86  Cl    c    -4.532530    0.002774   -0.032129    0.000000    1.485000
    87  Cl    c     9.021046    4.513170    0.006318    0.000000    1.485000
    88  Cl    c    -4.513259    4.513170    0.006318    0.000000    1.485000
    89  Na    c     9.014875    2.163070   -2.298819    0.000000    1.000000
    90  Na    c    -4.507088    2.163070   -2.298819    0.000000    1.000000
    91  Na    c     2.253894    9.046041    1.911641    0.000000    1.000000
    92  Na    c     2.253894   -0.004054   -6.408900    0.000000    1.000000
    93  Cl    c     4.491479    9.074590    0.002868    0.000000    1.485000
    94  Cl    c     0.016308    9.074590    0.002868    0.000000    1.485000
    95  Na    c     4.509297    2.143675   -6.740810    0.000000    1.000000
    96  Na    c    -0.001510    2.143675   -6.740810    0.000000    1.000000
    97  Na    c     2.253894    9.001701   -2.118261    0.000000    1.000000
    98  Na    c     2.253894    4.498703   -6.961865    0.000000    1.000000
    99  Na    c    -2.113777   -2.553799    4.492377    0.000000    1.000000
   100  Na    c     6.621565   -2.553799    4.492377    0.000000    1.000000
   101  Na    c    -2.364598    6.465487    4.504803    0.000000    1.000000
   102  Na    c     6.872386    6.465487    4.504803    0.000000    1.000000
   103  Na    c    -2.191405   -2.595624   -4.479109    0.000000    1.000000
   104  Na    c     6.699192   -2.595624   -4.479109    0.000000    1.000000
   105  Na    c    -2.355935    6.455269   -4.500395    0.000000    1.000000
   106  Na    c     6.863722    6.455269   -4.500395    0.000000    1.000000
   107  O     c     2.253894   -2.205060    6.752574    0.000000    0.183000
   108  O     c     6.765779    2.275670    6.745269    0.000000    0.183000
   109  O     c    -2.257992    2.275670    6.745269    0.000000    0.183000
   110  O     c     2.253894    6.765293    6.731866    0.000000    0.183000
   111  O     c     2.253894   -2.241682   -6.720976    0.000000    0.183000
   112  O     c     6.764782    2.265580   -6.743797    0.000000    0.183000
   113  O     c    -2.256995    2.265580   -6.743797    0.000000    0.183000
   114  O     c     2.253894    6.764133   -6.751177    0.000000    0.183000
   115  Cl    c     4.579278   -4.623704    4.613281    0.000000    1.485000
   116  Cl    c    -0.071491   -4.623704    4.613281    0.000000    1.485000
   117  Na    c     4.508023   -2.123959    6.744287    0.000000    1.000000
   118  Na    c    -0.000236   -2.123959    6.744287    0.000000    1.000000
   119  Na    c     6.882753    0.004412    6.506770    0.000000    1.000000
   120  Na    c    -2.374966    0.004412    6.506770    0.000000    1.000000
   121  Na    c     6.577789   -4.470112    1.991893    0.000000    1.000000
   122  Na    c    -2.070001   -4.470112    1.991893    0.000000    1.000000
   123  Cl    c     9.102305   -0.020810    4.543822    0.000000    1.485000
   124  Cl    c    -4.594518   -0.020810    4.543822    0.000000    1.485000
   125  Na    c     8.994150   -2.404189    2.316854    0.000000    1.000000
   126  Na    c    -4.486362   -2.404189    2.316854    0.000000    1.000000
   127  Na    c    -2.118207    4.507740    7.028891    0.000000    1.000000
   128  Na    c     6.625994    4.507740    7.028891    0.000000    1.000000
   129  Na    c     6.850187   -4.492738   -1.949547    0.000000    1.000000
   130  Na    c    -2.342400   -4.492738   -1.949547    0.000000    1.000000
   131  Na    c     4.513626    6.753165    6.647669    0.000000    1.000000
   132  Na    c    -0.005839    6.753165    6.647669    0.000000    1.000000
   133  Cl    c     4.514812   -4.529094   -4.575522    0.000000    1.485000
   134  Cl    c    -0.007025   -4.529094   -4.575522    0.000000    1.485000
   135  Cl    c     9.073535    4.505482    4.514644    0.000000    1.485000
   136  Cl    c    -4.565747    4.505482    4.514644    0.000000    1.485000
   137  Na    c     9.017631   -2.114821   -2.303302    0.000000    1.000000
   138  Na    c    -4.509844   -2.114821   -2.303302    0.000000    1.000000
   139  Cl    c     4.542479    9.052424    4.520789    0.000000    1.485000
   140  Cl    c    -0.034691    9.052424    4.520789    0.000000    1.485000
   141  Cl    c     9.069795   -0.011272   -4.518557    0.000000    1.485000
   142  Cl    c    -4.562008   -0.011272   -4.518557    0.000000    1.485000
   143  Na    c     4.506762   -2.146595   -6.713593    0.000000    1.000000
   144  Na    c     0.001025   -2.146595   -6.713593    0.000000    1.000000
   145  Na    c     8.999485    6.552949    2.096179    0.000000    1.000000
   146  Na    c    -4.491698    6.552949    2.096179    0.000000    1.000000
   147  Na    c     6.878453    8.988683    2.500625    0.000000    1.000000
   148  Na    c    -2.370666    8.988683    2.500625    0.000000    1.000000
   149  Na    c    -2.371112    0.003101   -6.460100    0.000000    1.000000
   150  Na    c     6.878899    0.003101   -6.460100    0.000000    1.000000
   151  Cl    c     9.053568    4.510804   -4.551053    0.000000    1.485000
   152  Cl    c    -4.545780    4.510804   -4.551053    0.000000    1.485000
   153  Na    c     9.016720    6.766975   -2.093354    0.000000    1.000000
   154  Na    c    -4.508933    6.766975   -2.093354    0.000000    1.000000
   155  Na    c     6.764675    9.001059   -2.541575    0.000000    1.000000
   156  Na    c    -2.256888    9.001059   -2.541575    0.000000    1.000000
   157  Na    c    -2.136184    4.499534   -7.074993    0.000000    1.000000
   158  Na    c     6.643971    4.499534   -7.074993    0.000000    1.000000
   159  Cl    c     4.531256    9.059420   -4.560890    0.000000    1.485000
   160  Cl    c    -0.023469    9.059420   -4.560890    0.000000    1.485000
   161  Na    c     4.510001    6.784980   -6.652997    0.000000    1.000000
   162  Na    c    -0.002214    6.784980   -6.652997    0.000000    1.000000
   163  Na    c     2.253894    2.573068    8.974306    0.000000    1.000000
   164  Na    c     2.253894   -6.977378    0.000434    0.000000    1.000000
   165  Na    c    11.209221    2.602956    0.000732    0.000000    1.000000
   166  Na    c    -6.701434    2.602956    0.000732    0.000000    1.000000
   167  Na    c     2.253894   11.513035    0.000087    0.000000    1.000000
   168  Na    c     2.253894    2.054145   -8.994876    0.000000    1.000000
   169  O     c    -2.255226   -2.266568    6.737530    0.000000    0.183000
   170  O     c     6.763013   -2.266568    6.737530    0.000000    0.183000
   171  O     c     2.253894   -6.777460    2.251539    0.000000    0.183000
   172  O     c     2.253894   -6.726509   -2.246155    0.000000    0.183000
   173  O     c     6.773005    6.744190    6.772272    0.000000    0.183000
   174  O     c    -2.265218    6.744190    6.772272    0.000000    0.183000
   175  O     c    11.250388    2.261803    2.244173    0.000000    0.183000
   176  O     c    -6.742601    2.261803    2.244173    0.000000    0.183000
   177  O     c    11.273025    2.256264   -2.244331    0.000000    0.183000
   178  O     c    -6.765238    2.256264   -2.244331    0.000000    0.183000
   179  O     c     6.762129   -2.260863   -6.726718    0.000000    0.183000
   180  O     c    -2.254342   -2.260863   -6.726718    0.000000    0.183000
   181  O     c     2.253894   11.270366    2.240380    0.000000    0.183000
   182  O     c     2.253894   11.273940   -2.238408    0.000000    0.183000
   183  O     c    -2.254746    6.733957   -6.761350    0.000000    0.183000
   184  O     c     6.762534    6.733957   -6.761350    0.000000    0.183000
   185  Na    c     2.253894   -4.472897    6.591971    0.000000    1.000000
   186  Cl    c     4.525495    0.008627    9.032157    0.000000    1.485000
   187  Cl    c    -0.017708    0.008627    9.032157    0.000000    1.485000
   188  Na    c     4.498432   -6.764698    2.353629    0.000000    1.000000
   189  Na    c     0.009356   -6.764698    2.353629    0.000000    1.000000
   190  Cl    c     4.503200    4.524480    9.068380    0.000000    1.485000
   191  Cl    c     0.004587    4.524480    9.068380    0.000000    1.485000
   192  Cl    c     9.044979   -4.510990    0.023781    0.000000    1.485000
   193  Cl    c    -4.537192   -4.510990    0.023781    0.000000    1.485000
   194  Na    c     9.015568    2.408084    6.677513    0.000000    1.000000
   195  Na    c    -4.507780    2.408084    6.677513    0.000000    1.000000
   196  Na    c     4.514385   -6.645752   -2.336781    0.000000    1.000000
   197  Na    c    -0.006598   -6.645752   -2.336781    0.000000    1.000000
   198  Na    c    11.140284   -0.001691    1.973194    0.000000    1.000000
   199  Na    c    -6.632497   -0.001691    1.973194    0.000000    1.000000
   200  Na    c     2.253894    8.994788    7.049309    0.000000    1.000000
   201  Na    c     2.253894   -4.490771   -6.944340    0.000000    1.000000
[...]
    234 y          2.253894      2.233345    -0.020548    Cartesian   -0.91
    234 z          2.253894      2.251669    -0.002224    Cartesian   -0.10
    235 x          2.253894      2.253894     0.000000    Cartesian    0.00
    235 y         -2.253894     -2.234623     0.019271    Cartesian   -0.86
    235 z         -2.253894     -2.179371     0.074523    Cartesian   -3.31
    236 x          2.253894      2.253894     0.000000    Cartesian    0.00
    236 y          6.761681      6.823243     0.061562    Cartesian    0.91
    236 z          2.253894      2.292968     0.039074    Cartesian    1.73
    237 x         -2.253894     -2.258990    -0.005096    Cartesian    0.23
    237 y          2.253894      2.258348     0.004454    Cartesian    0.20
    237 z         -2.253894     -2.256344    -0.002450    Cartesian    0.11
    238 x          2.253894      2.253894     0.000000    Cartesian    0.00
    238 y          6.761681      6.749315    -0.012366    Cartesian   -0.18
    238 z         -2.253894     -2.238346     0.015548    Cartesian   -0.69
    239 x          4.507787      4.657200     0.149412    Cartesian    3.31
    239 y          0.000000     -0.005760    -0.005760    Cartesian    0.00
    239 z          4.507787      4.601108     0.093321    Cartesian    2.07
    240 x          4.507787      4.619114     0.111327    Cartesian    2.47
    240 y          4.507787      4.654490     0.146703    Cartesian    3.25
    240 z          4.507787      4.584456     0.076669    Cartesian    1.70
    241 x          4.507787      4.504585    -0.003203    Cartesian   -0.07
    241 y          0.000000      0.025640     0.025640    Cartesian    0.00
    241 z         -4.507787     -4.561684    -0.053896    Cartesian    1.20
    242 x          4.507787      4.485291    -0.022496    Cartesian   -0.50
    242 y          4.507787      4.549091     0.041304    Cartesian    0.92
    242 z         -4.507787     -4.528399    -0.020611    Cartesian    0.46
    243 x          2.253894      2.253894     0.000000    Cartesian    0.00
    243 y          2.253894      2.224018    -0.029876    Cartesian   -1.33
    243 z          6.761681      6.715207    -0.046473    Cartesian   -0.69
    244 x         -2.253894     -2.224342     0.029552    Cartesian   -1.31
    244 y         -2.253894     -2.212815     0.041078    Cartesian   -1.82
    244 z          2.253894      2.260967     0.007073    Cartesian    0.31
    245 x         -2.253894     -2.258511    -0.004618    Cartesian    0.20
    245 y         -2.253894     -2.242063     0.011830    Cartesian   -0.52
    245 z         -2.253894     -2.250940     0.002954    Cartesian   -0.13
    246 x         -2.253894     -2.242829     0.011064    Cartesian   -0.49
    246 y          6.761681      6.738145    -0.023536    Cartesian   -0.35
    246 z          2.253894      2.237264    -0.016630    Cartesian   -0.74
    247 x         -2.253894     -2.267427    -0.013533    Cartesian    0.60
    247 y          6.761681      6.761406    -0.000275    Cartesian   -0.00
    247 z         -2.253894     -2.247362     0.006532    Cartesian   -0.29
    248 x          2.253894      2.253894     0.000000    Cartesian    0.00
    248 y          2.253894      2.237186    -0.016707    Cartesian   -0.74
    248 z         -6.761681     -6.739529     0.022152    Cartesian   -0.33
    249 x          4.507787      4.593496     0.085709    Cartesian    1.90
    249 y         -4.507787     -4.655968    -0.148181    Cartesian    3.29
    249 z          0.000000     -0.094854    -0.094854    Cartesian    0.00
    250 x          9.015574      9.038723     0.023149    Cartesian    0.26
    250 y          0.000000      0.002077     0.002077    Cartesian    0.00
    250 z          0.000000     -0.035162    -0.035162    Cartesian    0.00
    251 x          9.015574      9.024899     0.009325    Cartesian    0.10
    251 y          4.507787      4.516572     0.008785    Cartesian    0.19
    251 z          0.000000      0.008649     0.008649    Cartesian    0.00
    252 x          4.507787      4.491454    -0.016333    Cartesian   -0.36
    252 y          9.015574      9.075879     0.060305    Cartesian    0.67
    252 z          0.000000      0.006995     0.006995    Cartesian    0.00
    253 x          2.253894      2.253894     0.000000    Cartesian    0.00
    253 y         -2.253894     -2.205018     0.048876    Cartesian   -2.17
    253 z          6.761681      6.752679    -0.009002    Cartesian   -0.13
    254 x          6.761681      6.765769     0.004088    Cartesian    0.06
    254 y          2.253894      2.275731     0.021837    Cartesian    0.97
    254 z          6.761681      6.745289    -0.016392    Cartesian   -0.24
    255 x          2.253894      2.253894     0.000000    Cartesian    0.00
    255 y          6.761681      6.765394     0.003713    Cartesian    0.05
    255 z          6.761681      6.731819    -0.029862    Cartesian   -0.44
    256 x          2.253894      2.253894     0.000000    Cartesian    0.00
    256 y         -2.253894     -2.241675     0.012219    Cartesian   -0.54
    256 z         -6.761681     -6.720993     0.040688    Cartesian   -0.60
    257 x          6.761681      6.764776     0.003095    Cartesian    0.05
    257 y          2.253894      2.265632     0.011738    Cartesian    0.52
    257 z         -6.761681     -6.743817     0.017864    Cartesian   -0.26
    258 x          2.253894      2.253894     0.000000    Cartesian    0.00
    258 y          6.761681      6.764172     0.002491    Cartesian    0.04
    258 z         -6.761681     -6.751172     0.010509    Cartesian   -0.16
    259 x          4.507787      4.593740     0.085953    Cartesian    1.91
    259 y         -4.507787     -4.634999    -0.127212    Cartesian    2.82
    259 z          4.507787      4.627249     0.119462    Cartesian    2.65
    260 x          9.015574      9.101908     0.086334    Cartesian    0.96
    260 y          0.000000     -0.020693    -0.020693    Cartesian    0.00
    260 z          4.507787      4.544250     0.036462    Cartesian    0.81
    261 x          4.507787      4.515817     0.008029    Cartesian    0.18
    261 y         -4.507787     -4.527729    -0.019942    Cartesian    0.44
    261 z         -4.507787     -4.580921    -0.073133    Cartesian    1.62
    262 x          9.015574      9.075204     0.059630    Cartesian    0.66
    262 y          4.507787      4.504925    -0.002863    Cartesian   -0.06
    262 z          4.507787      4.512471     0.004684    Cartesian    0.10
    263 x          4.507787      4.539845     0.032057    Cartesian    0.71
    263 y          9.015574      9.050267     0.034692    Cartesian    0.38
    263 z          4.507787      4.519703     0.011916    Cartesian    0.26
    264 x          9.015574      9.072063     0.056489    Cartesian    0.63
    264 y          0.000000     -0.011563    -0.011563    Cartesian    0.00
    264 z         -4.507787     -4.521349    -0.013562    Cartesian    0.30
    265 x          9.015574      9.053594     0.038020    Cartesian    0.42
    265 y          4.507787      4.511650     0.003862    Cartesian    0.09
    265 z         -4.507787     -4.555138    -0.047350    Cartesian    1.05
    266 x          4.507787      4.537324     0.029537    Cartesian    0.66
    266 y          9.015574      9.065202     0.049627    Cartesian    0.55
    266 z         -4.507787     -4.567909    -0.060121    Cartesian    1.33
    267 x         -2.253894     -2.255213    -0.001319    Cartesian    0.06
    267 y         -2.253894     -2.266629    -0.012735    Cartesian    0.57
    267 z          6.761681      6.737519    -0.024162    Cartesian   -0.36
    268 x          2.253894      2.253894     0.000000    Cartesian    0.00
    268 y         -6.761681     -6.777525    -0.015844    Cartesian    0.23
    268 z          2.253894      2.251575    -0.002318    Cartesian   -0.10
    269 x          2.253894      2.253894     0.000000    Cartesian    0.00
    269 y         -6.761681     -6.726532     0.035149    Cartesian   -0.52
    269 z         -2.253894     -2.246141     0.007753    Cartesian   -0.34
    270 x          6.761681      6.773012     0.011331    Cartesian    0.17
    270 y          6.761681      6.744156    -0.017525    Cartesian   -0.26
    270 z          6.761681      6.772332     0.010651    Cartesian    0.16
    271 x         11.269468     11.250407    -0.019061    Cartesian   -0.17
    271 y          2.253894      2.261850     0.007956    Cartesian    0.35
    271 z          2.253894      2.244191    -0.009703    Cartesian   -0.43
    272 x         11.269468     11.273040     0.003572    Cartesian    0.03
    272 y          2.253894      2.256267     0.002374    Cartesian    0.11
    272 z         -2.253894     -2.244345     0.009549    Cartesian   -0.42
    273 x          6.761681      6.762126     0.000445    Cartesian    0.01
    273 y         -2.253894     -2.260921    -0.007028    Cartesian    0.31
    273 z         -6.761681     -6.726707     0.034974    Cartesian   -0.52
    274 x          2.253894      2.253894     0.000000    Cartesian    0.00
    274 y         11.269468     11.270363     0.000895    Cartesian    0.01
    274 z          2.253894      2.240317    -0.013576    Cartesian   -0.60
    275 x          2.253894      2.253894     0.000000    Cartesian    0.00
    275 y         11.269468     11.273987     0.004519    Cartesian    0.04
    275 z         -2.253894     -2.238380     0.015513    Cartesian   -0.69
    276 x         -2.253894     -2.254745    -0.000852    Cartesian    0.04
    276 y          6.761681      6.733927    -0.027753    Cartesian   -0.41
    276 z         -6.761681     -6.761398     0.000283    Cartesian   -0.00
    277 x          4.507787      4.522343     0.014556    Cartesian    0.32
    277 y          0.000000      0.009526     0.009526    Cartesian    0.00
    277 z          9.015574      9.030198     0.014624    Cartesian    0.16
    278 x          4.507787      4.501309    -0.006478    Cartesian   -0.14
    278 y          4.507787      4.524972     0.017185    Cartesian    0.38
    278 z          9.015574      9.069615     0.054040    Cartesian    0.60
    279 x          9.015574      9.047641     0.032067    Cartesian    0.36
    279 y         -4.507787     -4.508298    -0.000511    Cartesian    0.01
    279 z          0.000000      0.023388     0.023388    Cartesian    0.00
    280 x          9.015574      9.045536     0.029961    Cartesian    0.33
    280 y          9.015574      9.050555     0.034980    Cartesian    0.39
    280 z          0.000000     -0.007450    -0.007450    Cartesian    0.00
    281 x          4.507787      4.522122     0.014335    Cartesian    0.32
    281 y          0.000000     -0.002623    -0.002623    Cartesian    0.00
    281 z         -9.015574     -9.076101    -0.060526    Cartesian    0.67
    282 x          4.507787      4.497390    -0.010397    Cartesian   -0.23
    282 y          4.507787      4.520715     0.012928    Cartesian    0.29
    282 z         -9.015574     -9.026931    -0.011357    Cartesian    0.13
    283 x         -2.253894     -2.233972     0.019921    Cartesian   -0.88
    283 y         -6.761681     -6.741113     0.020568    Cartesian   -0.30
    283 z          2.253894      2.232114    -0.021780    Cartesian   -0.97
    284 x         11.269468     11.259505    -0.009963    Cartesian   -0.09
    284 y         -2.253894     -2.262240    -0.008346    Cartesian    0.37
    284 z          2.253894      2.239227    -0.014666    Cartesian   -0.65
    285 x         -2.253894     -2.267926    -0.014032    Cartesian    0.62
    285 y         -6.761681     -6.753228     0.008453    Cartesian   -0.13
    285 z         -2.253894     -2.240798     0.013096    Cartesian   -0.58
    286 x         11.269468     11.274758     0.005290    Cartesian    0.05
    286 y         -2.253894     -2.240019     0.013874    Cartesian   -0.62
    286 z         -2.253894     -2.235939     0.017955    Cartesian   -0.80
    287 x         11.269468     11.263204    -0.006264    Cartesian   -0.06
    287 y          6.761681      6.721553    -0.040128    Cartesian   -0.59
    287 z          2.253894      2.255199     0.001306    Cartesian    0.06
    288 x         -2.253894     -2.266318    -0.012425    Cartesian    0.55
    288 y         11.269468     11.253683    -0.015785    Cartesian   -0.14
    288 z          2.253894      2.271863     0.017969    Cartesian    0.80
    289 x         11.269468     11.267272    -0.002197    Cartesian   -0.02
    289 y          6.761681      6.740364    -0.021316    Cartesian   -0.32
    289 z         -2.253894     -2.252313     0.001581    Cartesian   -0.07
    290 x         -2.253894     -2.250690     0.003204    Cartesian   -0.14
    290 y         11.269468     11.255948    -0.013520    Cartesian   -0.12
    290 z         -2.253894     -2.275550    -0.021657    Cartesian    0.96
    291 x          9.015574      9.072754     0.057180    Cartesian    0.63
    291 y         -4.507787     -4.498514     0.009273    Cartesian   -0.21
    291 z          4.507787      4.499414    -0.008373    Cartesian   -0.19
    292 x          9.015574      9.051513     0.035938    Cartesian    0.40
    292 y         -4.507787     -4.518139    -0.010351    Cartesian    0.23
    292 z         -4.507787     -4.523837    -0.016049    Cartesian    0.36
    293 x          9.015574      9.041437     0.025862    Cartesian    0.29
    293 y          9.015574      9.067689     0.052115    Cartesian    0.58
    293 z          4.507787      4.528693     0.020906    Cartesian    0.46
    294 x          9.015574      9.044347     0.028773    Cartesian    0.32
    294 y          9.015574      9.046509     0.030935    Cartesian    0.34
    294 z         -4.507787     -4.520177    -0.012390    Cartesian    0.27
    295 x          2.253894      2.253894     0.000000    Cartesian    0.00
    295 y         -6.761681     -6.755505     0.006176    Cartesian   -0.09
    295 z          6.761681      6.749968    -0.011712    Cartesian   -0.17
    296 x          2.253894      2.253894     0.000000    Cartesian    0.00
    296 y          2.253894      2.286355     0.032461    Cartesian    1.44
    296 z         11.269468     11.246059    -0.023409    Cartesian   -0.21
    297 x         11.269468     11.270155     0.000687    Cartesian    0.01
    297 y          2.253894      2.238920    -0.014973    Cartesian   -0.66
    297 z          6.761681      6.751496    -0.010185    Cartesian   -0.15
    298 x          2.253894      2.253894     0.000000    Cartesian    0.00
    298 y         -6.761681     -6.751277     0.010403    Cartesian   -0.15
    298 z         -6.761681     -6.761943    -0.000262    Cartesian    0.00
    299 x          2.253894      2.253894     0.000000    Cartesian    0.00
    299 y         11.269468     11.241581    -0.027887    Cartesian   -0.25
    299 z          6.761681      6.777870     0.016189    Cartesian    0.24
    300 x         11.269468     11.272007     0.002539    Cartesian    0.02
    300 y          2.253894      2.235539    -0.018355    Cartesian   -0.81
    300 z         -6.761681     -6.751602     0.010079    Cartesian   -0.15
    301 x          2.253894      2.253894     0.000000    Cartesian    0.00
    301 y          2.253894      2.241040    -0.012853    Cartesian   -0.57
    301 z        -11.269468    -11.258980     0.010488    Cartesian   -0.09
    302 x          4.507787      4.506887    -0.000901    Cartesian   -0.02
    302 y         -4.507787     -4.494159     0.013628    Cartesian   -0.30
    302 z          9.015574      9.072927     0.057352    Cartesian    0.64
    303 x          2.253894      2.253894     0.000000    Cartesian    0.00
    303 y         11.269468     11.261222    -0.008246    Cartesian   -0.07
    303 z         -6.761681     -6.763780    -0.002099    Cartesian    0.03
    304 x          4.507787      4.545571     0.037784    Cartesian    0.84
    304 y         -9.015574     -9.065892    -0.050317    Cartesian    0.56
    304 z          0.000000      0.031098     0.031098    Cartesian    0.00
    305 x          9.015574      9.042717     0.027142    Cartesian    0.30
    305 y          0.000000      0.010261     0.010261    Cartesian    0.00
    305 z          9.015574      9.096258     0.080684    Cartesian    0.89
    306 x          9.015574      9.015465    -0.000109    Cartesian   -0.00
    306 y          4.507787      4.524161     0.016374    Cartesian    0.36
    306 z          9.015574      9.019170     0.003595    Cartesian    0.04
    307 x          4.507787      4.507729    -0.000058    Cartesian   -0.00
    307 y          9.015574      9.058087     0.042512    Cartesian    0.47
    307 z          9.015574      9.051014     0.035440    Cartesian    0.39
    308 x         13.523362     13.601176     0.077814    Cartesian    0.58
    308 y          0.000000      0.022526     0.022526    Cartesian    0.00
    308 z          0.000000     -0.002060    -0.002060    Cartesian    0.00
    309 x         13.523362     13.580404     0.057042    Cartesian    0.42
    309 y          4.507787      4.522091     0.014304    Cartesian    0.32
    309 z          0.000000      0.004603     0.004603    Cartesian    0.00
    310 x          4.507787      4.522292     0.014504    Cartesian    0.32
    310 y         -4.507787     -4.538593    -0.030805    Cartesian    0.68
    310 z         -9.015574     -9.028108    -0.012534    Cartesian    0.14
    311 x          9.015574      9.039524     0.023949    Cartesian    0.27
    311 y          0.000000      0.000742     0.000742    Cartesian    0.00
    311 z         -9.015574     -9.094694    -0.079120    Cartesian    0.88
    312 x          4.507787      4.491013    -0.016775    Cartesian   -0.37
    312 y         13.523362     13.552759     0.029397    Cartesian    0.22
    312 z          0.000000     -0.017354    -0.017354    Cartesian    0.00
    313 x          9.015574      9.013517    -0.002057    Cartesian   -0.02
    313 y          4.507787      4.509781     0.001994    Cartesian    0.04
    313 z         -9.015574     -9.013686     0.001889    Cartesian   -0.02
    314 x          4.507787      4.506116    -0.001671    Cartesian   -0.04
    314 y          9.015574      9.018995     0.003421    Cartesian    0.04
    314 z         -9.015574     -9.079246    -0.063672    Cartesian    0.71
--------------------------------------------------------------------------------


  Time to end of optimisation  =      148.3387 seconds


  Peak dynamic memory used =      90.16 MB 


  Timing analysis for GULP :

--------------------------------------------------------------------------------
  Task / Subroutine                                          Time (Seconds)
--------------------------------------------------------------------------------
  Calculation of reciprocal space energy and derivatives          0.0007
  Calculation of reciprocal space energy using symmetry           0.0011
  Calculation of real space energy and derivatives                0.0043
  Calculation of real space energy using symmetry                 0.0101
  Calculation for region 1 energy and derivatives (2-b)          82.3713
  Calculation for region 2a energy                               59.3577
  Calculation for region 2b energy                                0.0257
  Calculation and manipulation of Hessian matrix                  0.2161
  Calculation of matrix inversion                                 5.7929
  Symmetry generation of equivalent positions                     0.0051
--------------------------------------------------------------------------------
  Total CPU time                                                148.3388
--------------------------------------------------------------------------------


  Dump file written as Na3OCl.grs


  Job Finished at 19:38.29 30th November   2020                               

