********************************************************************************
*                       GENERAL UTILITY LATTICE PROGRAM                        *
*                                 Julian Gale                                  *
*                       Curtin Institute for Computation                       *
*                    School of Molecular and Life Sciences                     *
*                    Curtin University, Western Australia                      *
********************************************************************************
* Version = 5.2.0 * Last modified =  10th September 2020                       *
********************************************************************************
*  optimise     - perform optimisation run                                     *
*  conp         - constant pressure calculation                                *
*  property     - calculate properties for final geometry                      *
*  defect       - perform defect calculation after bulk run                    *
*  compare      - compare initial and final structures                         *
********************************************************************************

  Job Started  at 18:01.16  3rd December   2020                               

  Number of CPUs =     1


  Total number of configurations input =      1

********************************************************************************
*  Input for Configuration =   1                                               *
********************************************************************************

  Formula = ClONa3                                                      

  Number of irreducible atoms/shells =       5


  Total number atoms/shells =       7

  Dimensionality = 3               :  Bulk   


  Symmetry :

  Crystal family                   :  Cubic       
  Crystal class  (Groth - 1921)    :  Cubic Hexakisoctahedral              

  Space group (centrosymmetric)    :  P M 3 M         

  Patterson group                  :  P m -3 m 

  Cartesian lattice vectors (Angstroms) :

        4.504000    0.000000    0.000000
        0.000000    4.504000    0.000000
        0.000000    0.000000    4.504000

  Cell parameters (Angstroms/Degrees):

  a =       4.5040    alpha =  90.0000
  b =       4.5040    beta  =  90.0000
  c =       4.5040    gamma =  90.0000

  Initial cell volume =          91.368216 Angs**3

  Temperature of configuration =   0.00     K 

  Pressure of configuration =         0.000 GPa 

  Fractional coordinates of asymmetric unit :

--------------------------------------------------------------------------------
   No.  Atomic       x           y          z         Charge      Occupancy
        Label      (Frac)      (Frac)     (Frac)        (e)         (Frac)  
--------------------------------------------------------------------------------
      1 Cl    c    0.000000    0.000000    0.000000     1.48500    1.000000    
      2 O     c    0.500000    0.500000    0.500000     0.18300    1.000000    
      3 Na    c    0.500000    0.500000    0.000000     1.00000    1.000000    
      4 Cl    s    0.000000    0.000000    0.000000    -2.48500    1.000000    
      5 O     s    0.500000    0.500000    0.500000    -2.18300    1.000000    
--------------------------------------------------------------------------------


  Constraints : 

--------------------------------------------------------------------------------
  Constraint no.      Unconstrained     Constrained    Coefficient    Offset
                         Variable         Variable
--------------------------------------------------------------------------------
           1              Strain 1        Strain 2       1.00000      0.0000
           2              Strain 1        Strain 3       1.00000      0.0000
--------------------------------------------------------------------------------


********************************************************************************
*  General input information                                                   *
********************************************************************************

  Species output for all configurations : 

--------------------------------------------------------------------------------
  Species    Type    Atomic    Atomic    Charge       Radii (Angs)     Library
                     Number     Mass       (e)     Cova   Ionic  VDW   Symbol
--------------------------------------------------------------------------------
    Na       Core       11      22.99   1.000000   0.970  0.000  2.300          
    O        Core        8      16.00   0.183000   0.730  0.000  1.360          
    O        Shell       8       0.00  -2.183000   0.730  0.000  0.000          
    Cl       Core       17      35.45   1.485000   0.990  0.000  1.650          
    Cl       Shell      17       0.00  -2.485000   0.990  0.000  0.000          
    Mg       Core       12      24.31   0.415000   1.100  0.000  0.000          
    Mg       Shell      12       0.00   1.585000   1.100  0.000  0.000          
    Ca       Core       20      40.08  -1.135000   0.990  0.000  0.000          
    Ca       Shell      20       0.00   3.135000   0.990  0.000  0.000          
    Sr       Core       38      87.62  -1.251000   1.120  0.000  0.000          
    Sr       Shell      38       0.00   3.251000   1.120  0.000  0.000          
    Ba       Core       56     137.33  -7.203000   1.340  0.000  0.000          
    Ba       Shell      56       0.00   9.203000   1.340  0.000  0.000          
--------------------------------------------------------------------------------


  Lattice summation method               =    Ewald          (3-D)
                                         =    Parry          (2-D)
                                         =    Saunders et al (1-D)
  Accuracy factor for lattice sums       =   12.000


  Analytic derivatives to be used

  Time limit = Infinity

  Maximum range for interatomic potentials =    100000.000000 Angstroms

  General interatomic potentials :

--------------------------------------------------------------------------------
Atom  Types   Potential      Parameter       Value         Units   Cutoffs(Ang)
  1     2                                                            Min /  Max 
--------------------------------------------------------------------------------
O    c O    s Spring (c-s)  Spring k 2       593.71600    eV*Ang^-2 0.000  0.800
                            Spring k 4       0.0000000    eV*Ang^-4 
--------------------------------------------------------------------------------
Cl   c Cl   s Spring (c-s)  Spring k 2       29.380000    eV*Ang^-2 0.000  0.800
                            Spring k 4       0.0000000    eV*Ang^-4 
--------------------------------------------------------------------------------
Mg   c Mg   s Spring (c-s)  Spring k 2       361.60000    eV*Ang^-2 0.000  0.800
                            Spring k 4       0.0000000    eV*Ang^-4 
--------------------------------------------------------------------------------
Ca   c Ca   s Spring (c-s)  Spring k 2       110.20000    eV*Ang^-2 0.000  0.800
                            Spring k 4       0.0000000    eV*Ang^-4 
--------------------------------------------------------------------------------
Sr   c Sr   s Spring (c-s)  Spring k 2       71.700000    eV*Ang^-2 0.000  0.800
                            Spring k 4       0.0000000    eV*Ang^-4 
--------------------------------------------------------------------------------
Ba   c Ba   s Spring (c-s)  Spring k 2       495.20000    eV*Ang^-2 0.000  0.800
                            Spring k 4       0.0000000    eV*Ang^-4 
--------------------------------------------------------------------------------
Na   c Na   c Buckingham    Buckingham A     1788.1900    eV        0.000 12.000
                            Buckingham rho  0.15900000    Ang       
                            Buckingham C     0.0000000    eV*Ang^6  
--------------------------------------------------------------------------------
Na   c O    s Buckingham    Buckingham A     1226.8400    eV        0.000 12.000
                            Buckingham rho  0.30700000    Ang       
                            Buckingham C     0.0000000    eV*Ang^6  
--------------------------------------------------------------------------------
Na   c Cl   s Buckingham    Buckingham A     2314.7000    eV        0.000 12.000
                            Buckingham rho  0.29000000    Ang       
                            Buckingham C     0.0000000    eV*Ang^6  
--------------------------------------------------------------------------------
O    s O    s Buckingham    Buckingham A     22764.300    eV        0.000 12.000
                            Buckingham rho  0.14900000    Ang       
                            Buckingham C     13.190000    eV*Ang^6  
--------------------------------------------------------------------------------
O    s Cl   s Buckingham    Buckingham A     8286.9100    eV        0.000 12.000
                            Buckingham rho  0.25900000    Ang       
                            Buckingham C     62.200000    eV*Ang^6  
--------------------------------------------------------------------------------
Cl   s Cl   s Buckingham    Buckingham A     1227.2000    eV        0.000 12.000
                            Buckingham rho  0.32100000    Ang       
                            Buckingham C     14.530000    eV*Ang^6  
--------------------------------------------------------------------------------
O    s Mg   s Buckingham    Buckingham A     1428.5000    eV        0.000 12.000
                            Buckingham rho  0.29450000    Ang       
                            Buckingham C     0.0000000    eV*Ang^6  
--------------------------------------------------------------------------------
Mg   s Cl   s Buckingham    Buckingham A     4914.5400    eV        0.000 12.000
                            Buckingham rho  0.25700000    Ang       
                            Buckingham C     0.0000000    eV*Ang^6  
--------------------------------------------------------------------------------
O    s Ca   s Buckingham    Buckingham A     1090.4000    eV        0.000 12.000
                            Buckingham rho  0.34370000    Ang       
                            Buckingham C     0.0000000    eV*Ang^6  
--------------------------------------------------------------------------------
Cl   s Ca   s Buckingham    Buckingham A     2302.0000    eV        0.000 12.000
                            Buckingham rho  0.34020000    Ang       
                            Buckingham C     0.0000000    eV*Ang^6  
--------------------------------------------------------------------------------
O    s Sr   s Buckingham    Buckingham A     959.10000    eV        0.000 12.000
                            Buckingham rho  0.37210000    Ang       
                            Buckingham C     0.0000000    eV*Ang^6  
--------------------------------------------------------------------------------
Cl   s Sr   s Buckingham    Buckingham A     2191.0900    eV        0.000 12.000
                            Buckingham rho  0.34570000    Ang       
                            Buckingham C     0.0000000    eV*Ang^6  
--------------------------------------------------------------------------------
O    s Ba   s Buckingham    Buckingham A     905.70000    eV        0.000 12.000
                            Buckingham rho  0.39760000    Ang       
                            Buckingham C     0.0000000    eV*Ang^6  
--------------------------------------------------------------------------------
Cl   s Ba   s Buckingham    Buckingham A     2704.5500    eV        0.000 12.000
                            Buckingham rho  0.35280000    Ang       
                            Buckingham C     0.0000000    eV*Ang^6  
--------------------------------------------------------------------------------

********************************************************************************
*  Output for configuration   1                                                *
********************************************************************************


  Components of energy : 

--------------------------------------------------------------------------------
  Interatomic potentials     =           5.13022605 eV    
  Monopole - monopole (real) =         -10.03624526 eV    
  Monopole - monopole (recip)=         -29.53581274 eV    
  Monopole - monopole (total)=         -39.57205800 eV    
--------------------------------------------------------------------------------
  Total lattice energy       =         -34.44183194 eV    
--------------------------------------------------------------------------------
  Total lattice energy       =           -3323.1103 kJ/(mole unit cells)
--------------------------------------------------------------------------------


  Number of variables =        1

  Maximum number of calculations  =          1000
  Maximum Hessian update interval =            10
  Maximum step size               =   1.000000000
  Maximum parameter tolerance     =   0.000010000
  Maximum function  tolerance     =   0.000010000
  Maximum gradient  tolerance     =   0.001000000
  Maximum gradient  component     =   0.010000000

  Symmetry constrained optimisation

  Symmetry used for second derivatives

  Cell parameters to be optimised using strains

  Newton-Raphson optimiser to be used

  BFGS hessian update to be used

  Lower half triangular hessian to be used

  Start of bulk optimisation :

  Cycle:      0 Energy:       -34.441832  Gnorm:      0.196570  CPU:    0.005
  ** Hessian calculated **
  Cycle:      1 Energy:       -34.441914  Gnorm:      0.000103  CPU:    0.007


  **** Optimisation achieved ****


  Final energy =     -34.44191447 eV
  Final Gnorm  =       0.00000000

  Components of energy : 

--------------------------------------------------------------------------------
  Interatomic potentials     =           5.09689708 eV    
  Monopole - monopole (real) =         -10.02781331 eV    
  Monopole - monopole (recip)=         -29.51099824 eV    
  Monopole - monopole (total)=         -39.53881155 eV    
--------------------------------------------------------------------------------
  Total lattice energy       =         -34.44191447 eV    
--------------------------------------------------------------------------------
  Total lattice energy       =           -3323.1183 kJ/(mole unit cells)
--------------------------------------------------------------------------------

  Final asymmetric unit coordinates :

--------------------------------------------------------------------------------
   No.  Atomic        x           y           z         Radius
        Label       (Frac)      (Frac)      (Frac)       (Angs) 
--------------------------------------------------------------------------------
     1  Cl    c     0.000000    0.000000    0.000000    0.000000
     2  O     c     0.500000    0.500000    0.500000    0.000000
     3  Na    c     0.500000    0.500000    0.000000    0.000000
     4  Cl    s     0.000000    0.000000    0.000000    0.000000
     5  O     s     0.500000    0.500000    0.500000    0.000000
--------------------------------------------------------------------------------

  Final Cartesian lattice vectors (Angstroms) :

        4.507787    0.000000    0.000000
        0.000000    4.507787    0.000000
        0.000000    0.000000    4.507787


  Final cell parameters and derivatives :

--------------------------------------------------------------------------------
       a            4.507787 Angstrom     dE/de1(xx)     0.000000 eV/strain
       b            4.507787 Angstrom     dE/de2(yy)     0.000000 eV/strain
       c            4.507787 Angstrom     dE/de3(zz)     0.000000 eV/strain
       alpha       90.000000 Degrees      dE/de4(yz)     0.000000 eV/strain
       beta        90.000000 Degrees      dE/de5(xz)     0.000000 eV/strain
       gamma       90.000000 Degrees      dE/de6(xy)     0.000000 eV/strain
--------------------------------------------------------------------------------

  Primitive cell volume =            91.598892 Angs**3

  Density of cell =      2.183054 g/cm**3

  Non-primitive cell volume =            91.598892 Angs**3


  Final internal derivatives :

--------------------------------------------------------------------------------
   No.  Atomic          a             b             c           Radius
        Label          (eV)          (eV)          (eV)        (eV/Angs)
--------------------------------------------------------------------------------
      1 Cl    c       0.000000      0.000000      0.000000      0.000000
      2 O     c       0.000000      0.000000      0.000000      0.000000
      3 Na    c       0.000000      0.000000      0.000000      0.000000
      4 Cl    s       0.000000      0.000000      0.000000      0.000000
      5 O     s       0.000000      0.000000      0.000000      0.000000
--------------------------------------------------------------------------------
  Maximum abs         0.000000      0.000000      0.000000      0.000000
--------------------------------------------------------------------------------

  Comparison of initial and final structures : 

--------------------------------------------------------------------------------
  Parameter   Initial value   Final value   Difference    Units      Percent
--------------------------------------------------------------------------------
    Volume        91.368216     91.598892     0.230676    Angs**3      0.25
    a              4.504000      4.507787     0.003787    Angstroms    0.08
    b              4.504000      4.507787     0.003787    Angstroms    0.08
    c              4.504000      4.507787     0.003787    Angstroms    0.08
    alpha         90.000000     90.000000     0.000000    Degrees      0.00
    beta          90.000000     90.000000     0.000000    Degrees      0.00
    gamma         90.000000     90.000000     0.000000    Degrees      0.00
      1 x          0.000000      0.000000     0.000000    Fractional   0.00
      1 y          0.000000      0.000000     0.000000    Fractional   0.00
      1 z          0.000000      0.000000     0.000000    Fractional   0.00
      2 x          0.500000      0.500000     0.000000    Fractional   0.00
      2 y          0.500000      0.500000     0.000000    Fractional   0.00
      2 z          0.500000      0.500000     0.000000    Fractional   0.00
      3 x          0.500000      0.500000     0.000000    Fractional   0.00
      3 y          0.500000      0.500000     0.000000    Fractional   0.00
      3 z          0.000000      0.000000     0.000000    Fractional   0.00
      4 x          0.000000      0.000000     0.000000    Fractional   0.00
      4 y          0.000000      0.000000     0.000000    Fractional   0.00
      4 z          0.000000      0.000000     0.000000    Fractional   0.00
      5 x          0.500000      0.500000     0.000000    Fractional   0.00
      5 y          0.500000      0.500000     0.000000    Fractional   0.00
      5 z          0.500000      0.500000     0.000000    Fractional   0.00
--------------------------------------------------------------------------------


  Born effective charge tensors : 

-------------------------------------------------------------------------------
  Atom             x           y             z
-------------------------------------------------------------------------------
    1 Cl    x      -1.0181     -0.0000      0.0000
            y      -0.0000     -1.0181      0.0000
            z       0.0000      0.0000     -1.0181
-------------------------------------------------------------------------------
    2 O     x      -2.2647      0.0000     -0.0000
            y       0.0000     -2.2647     -0.0000
            z      -0.0000     -0.0000     -2.2647
-------------------------------------------------------------------------------
    3 Na    x       1.2258     -0.0000      0.0000
            y      -0.0000      1.2258     -0.0000
            z       0.0000     -0.0000      0.8313
-------------------------------------------------------------------------------




  Elastic Constant Matrix: (Units=GPa)

-------------------------------------------------------------------------------
  Indices      1         2         3         4         5         6    
-------------------------------------------------------------------------------
       1     95.8177   20.0737   20.0737   -0.0000   -0.0000    0.0000
       2     20.0737   95.8177   20.0737   -0.0000   -0.0000    0.0000
       3     20.0737   20.0737   95.8177   -0.0000   -0.0000    0.0000
       4     -0.0000   -0.0000   -0.0000   20.0737   -0.0000    0.0000
       5     -0.0000   -0.0000   -0.0000   -0.0000   20.0737    0.0000
       6      0.0000    0.0000    0.0000    0.0000    0.0000   20.0737
-------------------------------------------------------------------------------


  Elastic Compliance Matrix: (Units=1/GPa)

-------------------------------------------------------------------------------
  Indices      1         2         3         4         5         6    
-------------------------------------------------------------------------------
       1    0.011253 -0.001949 -0.001949  0.000000  0.000000 -0.000000
       2   -0.001949  0.011253 -0.001949  0.000000  0.000000  0.000000
       3   -0.001949 -0.001949  0.011253  0.000000  0.000000 -0.000000
       4    0.000000  0.000000  0.000000  0.049816  0.000000 -0.000000
       5    0.000000  0.000000  0.000000  0.000000  0.049816 -0.000000
       6   -0.000000  0.000000 -0.000000 -0.000000 -0.000000  0.049816
-------------------------------------------------------------------------------

  Mechanical properties :

-------------------------------------------------------------------------------
  Convention :                    Reuss         Voigt         Hill
-------------------------------------------------------------------------------
  Bulk  Modulus (GPa)     =      45.32174      45.32174      45.32174
  Shear Modulus (GPa)     =      24.72085      27.19304      25.95695
-------------------------------------------------------------------------------
  Velocity S-wave (km/s)  =       3.36511       3.52937       3.44822
  Velocity P-wave (km/s)  =       5.98827       6.11304       6.05098
-------------------------------------------------------------------------------
  Compressibility (1/GPa) =    0.02206447
-------------------------------------------------------------------------------
  Stress axis :                     x             y             z
-------------------------------------------------------------------------------
  Youngs Moduli (GPa)     =      88.86373      88.86373      88.86373
-------------------------------------------------------------------------------
  Poissons Ratio (x)      =                     0.17321       0.17321
  Poissons Ratio (y)      =       0.17321                     0.17321
  Poissons Ratio (z)      =       0.17321       0.17321
-------------------------------------------------------------------------------


  Piezoelectric Strain Matrix: (Units=C/m**2)

-------------------------------------------------------------------------------
  Indices      1         2         3         4         5         6    
-------------------------------------------------------------------------------
       x    -0.00000  -0.00000  -0.00000   0.00000  -0.00000  -0.00000
       y    -0.00000  -0.00000   0.00000  -0.00000   0.00000   0.00000
       z    -0.00000  -0.00000  -0.00000  -0.00000   0.00000   0.00000
-------------------------------------------------------------------------------


  Piezoelectric Stress Matrix: (Units=10**-11 C/N)

-------------------------------------------------------------------------------
  Indices      1         2         3         4         5         6    
-------------------------------------------------------------------------------
       x    -0.00000   0.00000   0.00000   0.00000  -0.00000  -0.00000
       y    -0.00000  -0.00000   0.00000  -0.00000   0.00000   0.00000
       z     0.00000   0.00000  -0.00000  -0.00000   0.00000   0.00000
-------------------------------------------------------------------------------


  Static dielectric constant tensor : 

-------------------------------------------------------------------------------
              x         y         z
-------------------------------------------------------------------------------
       x    22.84729   0.00000   0.00000
       y     0.00000  22.84729  -0.00000
       z     0.00000  -0.00000  22.84729
--------------------------------------------------------------------------------

  High frequency dielectric constant tensor : 

-------------------------------------------------------------------------------
              x         y         z
-------------------------------------------------------------------------------
       x     1.47557   0.00000  -0.00000
       y     0.00000   1.47557  -0.00000
       z    -0.00000  -0.00000   1.47557
-------------------------------------------------------------------------------

  Static refractive indices : 

-------------------------------------------------------------------------------
    1 =    4.77988      2 =    4.77988      3 =    4.77988
-------------------------------------------------------------------------------

  High frequency refractive indices : 

-------------------------------------------------------------------------------
    1 =    1.21473      2 =    1.21473      3 =    1.21473
-------------------------------------------------------------------------------


  Time to end of optimisation =       0.0097 seconds

********************************************************************************
*  Defect calculation for configuration   1 :                                  *
********************************************************************************

  Total number of defects =      3

  Total charge on defect  =  -1.00

  Defect centre is at   0.5000   0.2500   0.2500  Frac

  Region 1 radius =  13.0000      Number of ions =    685

  Number of symmetry inequivalent region 1 ions  =    398

  Region 2 radius =  21.0000      Number of ions =   2280

  Number of symmetry inequivalent region 2a ions =   1222

  Region 2a mode = 4 : screened electrostatics due to region 1 
                       neglect correction to region 1 forces from 2a
                       region 2a displacements based on defects only

  Region 2a ions will only interact with defects in region 1

  Vacancies:

--------------------------------------------------------------------------------
    Specification type     Symbol/Number         x          y          z
--------------------------------------------------------------------------------
    Fractional                               0.500000   0.500000   0.000000
    Fractional                               0.500000   0.000000   0.500000
--------------------------------------------------------------------------------

  Interstitials:

--------------------------------------------------------------------------------
    Specification type     Symbol/Number         x          y          z
--------------------------------------------------------------------------------
    Atom/Fractional         Na               0.500000   0.010000   0.490000
--------------------------------------------------------------------------------


  Symmetry reduced region 1 (Relative to defect centre) :

--------------------------------------------------------------------------------
   No.   Atomic       x            y             z       Radius  Multiplicity   
         Label      (Angs)       (Angs)        (Angs)    (Angs)     
--------------------------------------------------------------------------------
     1  Na    c      0.0000      -1.0819       1.0819    0.0000     1    Defect
     2  O     c      0.0000       1.1269 *     1.1269 *  0.0000     1          
     3  Cl    c      2.2539 *    -1.1269 *    -1.1269 *  0.0000     2          
     4  Na    c      2.2539 *     1.1269 *     1.1269 *  0.0000     2          
     5  O     c      0.0000       1.1269 *    -3.3808 *  0.0000     1          
     6  O     c      0.0000      -3.3808 *     1.1269 *  0.0000     1          
     7  Na    c      0.0000       1.1269 *     3.3808 *  0.0000     1          
     8  Na    c      0.0000      -3.3808 *    -1.1269 *  0.0000     1          
     9  Na    c      0.0000      -1.1269 *    -3.3808 *  0.0000     1          
    10  Na    c      0.0000       3.3808 *     1.1269 *  0.0000     1          
    11  Cl    c      2.2539 *    -1.1269 *     3.3808 *  0.0000     2          
    12  Cl    c      2.2539 *     3.3808 *    -1.1269 *  0.0000     2          
    13  Na    c      2.2539 *     1.1269 *    -3.3808 *  0.0000     2          
    14  Na    c      2.2539 *    -3.3808 *     1.1269 *  0.0000     2          
    15  O     c     -4.5078 *     1.1269 *     1.1269 *  0.0000     2          
    16  Na    c     -4.5078 *     1.1269 *    -1.1269 *  0.0000     2          
    17  Na    c     -4.5078 *    -1.1269 *     1.1269 *  0.0000     2          
    18  O     c      0.0000      -3.3808 *    -3.3808 *  0.0000     1          
    19  Na    c      0.0000      -3.3808 *     3.3808 *  0.0000     1          
    20  Na    c      0.0000       3.3808 *    -3.3808 *  0.0000     1          
    21  Cl    c      2.2539 *     3.3808 *     3.3808 *  0.0000     2          
    22  Na    c      2.2539 *    -3.3808 *    -3.3808 *  0.0000     2          
    23  O     c      0.0000       1.1269 *     5.6347 *  0.0000     1          
    24  O     c      0.0000       5.6347 *     1.1269 *  0.0000     1          
    25  Na    c      0.0000       1.1269 *    -5.6347 *  0.0000     1          
    26  Na    c      0.0000       5.6347 *    -1.1269 *  0.0000     1          
    27  Na    c      0.0000      -1.1269 *     5.6347 *  0.0000     1          
    28  Na    c      0.0000      -5.6347 *     1.1269 *  0.0000     1          
    29  O     c     -4.5078 *     1.1269 *    -3.3808 *  0.0000     2          
    30  O     c     -4.5078 *    -3.3808 *     1.1269 *  0.0000     2          
    31  Na    c     -4.5078 *     1.1269 *     3.3808 *  0.0000     2          
    32  Na    c     -4.5078 *    -3.3808 *    -1.1269 *  0.0000     2          
    33  Na    c     -4.5078 *    -1.1269 *    -3.3808 *  0.0000     2          
    34  Na    c     -4.5078 *     3.3808 *     1.1269 *  0.0000     2          
    35  Cl    c      2.2539 *    -1.1269 *    -5.6347 *  0.0000     2          
    36  Cl    c      2.2539 *    -5.6347 *    -1.1269 *  0.0000     2          
    37  Na    c      2.2539 *     1.1269 *     5.6347 *  0.0000     2          
    38  Na    c      2.2539 *     5.6347 *     1.1269 *  0.0000     2          
    39  O     c      0.0000       5.6347 *    -3.3808 *  0.0000     1          
    40  O     c      0.0000      -3.3808 *     5.6347 *  0.0000     1          
    41  Na    c      0.0000       5.6347 *     3.3808 *  0.0000     1          
    42  Na    c      0.0000      -3.3808 *    -5.6347 *  0.0000     1          
    43  Na    c      0.0000       3.3808 *     5.6347 *  0.0000     1          
    44  Na    c      0.0000      -5.6347 *    -3.3808 *  0.0000     1          
    45  O     c      4.5078 *    -3.3808 *    -3.3808 *  0.0000     2          
    46  Na    c      4.5078 *    -3.3808 *     3.3808 *  0.0000     2          
    47  Na    c      4.5078 *     3.3808 *    -3.3808 *  0.0000     2          
    48  Cl    c      2.2539 *     3.3808 *    -5.6347 *  0.0000     2          
    49  Cl    c      2.2539 *    -5.6347 *     3.3808 *  0.0000     2          
    50  Na    c      2.2539 *     5.6347 *    -3.3808 *  0.0000     2          
    51  Na    c      2.2539 *    -3.3808 *     5.6347 *  0.0000     2          
    52  Cl    c      6.7617 *    -1.1269 *    -1.1269 *  0.0000     2          
    53  Na    c      6.7617 *     1.1269 *     1.1269 *  0.0000     2          
    54  O     c     -4.5078 *     1.1269 *     5.6347 *  0.0000     2          
    55  Na    c     -4.5078 *     1.1269 *    -5.6347 *  0.0000     2          
    56  Na    c     -4.5078 *    -1.1269 *     5.6347 *  0.0000     2          
    57  O     c      4.5078 *     5.6347 *     1.1269 *  0.0000     2          
    58  Na    c      4.5078 *     5.6347 *    -1.1269 *  0.0000     2          
    59  Na    c      4.5078 *    -5.6347 *     1.1269 *  0.0000     2          
    60  Cl    c      6.7617 *    -1.1269 *     3.3808 *  0.0000     2          
    61  Na    c      6.7617 *     1.1269 *    -3.3808 *  0.0000     2          
    62  Cl    c      6.7617 *     3.3808 *    -1.1269 *  0.0000     2          
    63  Na    c      6.7617 *    -3.3808 *     1.1269 *  0.0000     2          
    64  O     c      0.0000       5.6347 *     5.6347 *  0.0000     1          
    65  Na    c      0.0000       5.6347 *    -5.6347 *  0.0000     1          
    66  Na    c      0.0000      -5.6347 *     5.6347 *  0.0000     1          
    67  O     c     -4.5078 *    -3.3808 *     5.6347 *  0.0000     2          
    68  Na    c     -4.5078 *    -3.3808 *    -5.6347 *  0.0000     2          
    69  Na    c     -4.5078 *     3.3808 *     5.6347 *  0.0000     2          
    70  O     c      0.0000       1.1269 *    -7.8886 *  0.0000     1          
    71  O     c      0.0000      -7.8886 *     1.1269 *  0.0000     1          
    72  O     c      4.5078 *     5.6347 *    -3.3808 *  0.0000     2          
    73  Na    c      0.0000       1.1269 *     7.8886 *  0.0000     1          
    74  Na    c      0.0000      -7.8886 *    -1.1269 *  0.0000     1          
    75  Na    c      4.5078 *     5.6347 *     3.3808 *  0.0000     2          
    76  Na    c      0.0000      -1.1269 *    -7.8886 *  0.0000     1          
    77  Na    c      0.0000       7.8886 *     1.1269 *  0.0000     1          
    78  Na    c      4.5078 *    -5.6347 *    -3.3808 *  0.0000     2          
    79  Cl    c      2.2539 *    -5.6347 *    -5.6347 *  0.0000     2          
    80  Na    c      2.2539 *     5.6347 *     5.6347 *  0.0000     2          
    81  Cl    c      2.2539 *    -1.1269 *     7.8886 *  0.0000     2          
    82  Na    c      2.2539 *     1.1269 *    -7.8886 *  0.0000     2          
    83  Cl    c      2.2539 *     7.8886 *    -1.1269 *  0.0000     2          
    84  Cl    c      6.7617 *     3.3808 *     3.3808 *  0.0000     2          
    85  Na    c      2.2539 *    -7.8886 *     1.1269 *  0.0000     2          
    86  Na    c      6.7617 *    -3.3808 *    -3.3808 *  0.0000     2          
    87  O     c      0.0000      -3.3808 *    -7.8886 *  0.0000     1          
    88  O     c      0.0000      -7.8886 *    -3.3808 *  0.0000     1          
    89  Na    c      0.0000      -3.3808 *     7.8886 *  0.0000     1          
    90  Na    c      0.0000      -7.8886 *     3.3808 *  0.0000     1          
    91  Na    c      0.0000       3.3808 *    -7.8886 *  0.0000     1          
    92  Na    c      0.0000       7.8886 *    -3.3808 *  0.0000     1          
    93  Cl    c      2.2539 *     3.3808 *     7.8886 *  0.0000     2          
    94  Cl    c      6.7617 *    -1.1269 *    -5.6347 *  0.0000     2          
    95  Na    c      2.2539 *    -3.3808 *    -7.8886 *  0.0000     2          
    96  Na    c      6.7617 *     1.1269 *     5.6347 *  0.0000     2          
    97  Cl    c      2.2539 *     7.8886 *     3.3808 *  0.0000     2          
    98  Cl    c      6.7617 *    -5.6347 *    -1.1269 *  0.0000     2          
    99  Na    c      2.2539 *    -7.8886 *    -3.3808 *  0.0000     2          
   100  Na    c      6.7617 *     5.6347 *     1.1269 *  0.0000     2          
   101  O     c      4.5078 *     5.6347 *     5.6347 *  0.0000     2          
   102  O     c      4.5078 *    -7.8886 *     1.1269 *  0.0000     2          
   103  O     c      9.0156 *     1.1269 *     1.1269 *  0.0000     2          
   104  O     c     -4.5078 *     1.1269 *    -7.8886 *  0.0000     2          
   105  Na    c      4.5078 *     5.6347 *    -5.6347 *  0.0000     2          
   106  Na    c      4.5078 *    -7.8886 *    -1.1269 *  0.0000     2          
   107  Na    c      9.0156 *     1.1269 *    -1.1269 *  0.0000     2          
   108  Na    c     -4.5078 *     1.1269 *     7.8886 *  0.0000     2          
   109  Na    c      4.5078 *     7.8886 *     1.1269 *  0.0000     2          
   110  Na    c      4.5078 *    -5.6347 *     5.6347 *  0.0000     2          
   111  Na    c      9.0156 *    -1.1269 *     1.1269 *  0.0000     2          
   112  Na    c     -4.5078 *    -1.1269 *    -7.8886 *  0.0000     2          
   113  Cl    c      6.7617 *     3.3808 *    -5.6347 *  0.0000     2          
   114  Na    c      6.7617 *    -3.3808 *     5.6347 *  0.0000     2          
   115  Cl    c      6.7617 *    -5.6347 *     3.3808 *  0.0000     2          
   116  Na    c      6.7617 *     5.6347 *    -3.3808 *  0.0000     2          
   117  O     c      0.0000       5.6347 *    -7.8886 *  0.0000     1          
   118  O     c      0.0000      -7.8886 *     5.6347 *  0.0000     1          
   119  O     c      9.0156 *    -3.3808 *     1.1269 *  0.0000     2          
   120  O     c     -4.5078 *    -3.3808 *    -7.8886 *  0.0000     2          
   121  Na    c      0.0000       5.6347 *     7.8886 *  0.0000     1          
   122  Na    c      0.0000      -7.8886 *    -5.6347 *  0.0000     1          
   123  Na    c      9.0156 *    -3.3808 *    -1.1269 *  0.0000     2          
   124  Na    c     -4.5078 *    -3.3808 *     7.8886 *  0.0000     2          
   125  Na    c      0.0000       7.8886 *     5.6347 *  0.0000     1          
   126  Na    c      0.0000      -5.6347 *    -7.8886 *  0.0000     1          
   127  Na    c      9.0156 *     3.3808 *     1.1269 *  0.0000     2          
   128  Na    c     -4.5078 *     3.3808 *    -7.8886 *  0.0000     2          
   129  O     c      4.5078 *    -7.8886 *    -3.3808 *  0.0000     2          
   130  O     c      9.0156 *     1.1269 *    -3.3808 *  0.0000     2          
   131  Na    c      4.5078 *    -7.8886 *     3.3808 *  0.0000     2          
   132  Na    c      9.0156 *     1.1269 *     3.3808 *  0.0000     2          
   133  Na    c      4.5078 *     7.8886 *    -3.3808 *  0.0000     2          
   134  Na    c      9.0156 *    -1.1269 *    -3.3808 *  0.0000     2          
   135  Cl    c      2.2539 *     7.8886 *    -5.6347 *  0.0000     2          
   136  Cl    c      2.2539 *    -5.6347 *     7.8886 *  0.0000     2          
   137  Na    c      2.2539 *     5.6347 *    -7.8886 *  0.0000     2          
   138  Na    c      2.2539 *    -7.8886 *     5.6347 *  0.0000     2          
   139  O     c      0.0000      10.1425 *     1.1269 *  0.0000     1          
   140  Na    c      0.0000      10.1425 *    -1.1269 *  0.0000     1          
   141  Na    c      0.0000     -10.1425 *     1.1269 *  0.0000     1          
   142  O     c      0.0000       1.1269 *    10.1425 *  0.0000     1          
   143  O     c      9.0156 *    -3.3808 *    -3.3808 *  0.0000     2          
   144  Na    c      0.0000       1.1269 *   -10.1425 *  0.0000     1          
   145  Na    c      9.0156 *    -3.3808 *     3.3808 *  0.0000     2          
   146  Na    c      0.0000      -1.1269 *    10.1425 *  0.0000     1          
   147  Na    c      9.0156 *     3.3808 *    -3.3808 *  0.0000     2          
   148  Cl    c      6.7617 *    -5.6347 *    -5.6347 *  0.0000     2          
   149  Na    c      6.7617 *     5.6347 *     5.6347 *  0.0000     2          
   150  Cl    c      2.2539 *    -1.1269 *   -10.1425 *  0.0000     2          
   151  Cl    c      2.2539 *   -10.1425 *    -1.1269 *  0.0000     2          
   152  Cl    c      6.7617 *    -1.1269 *     7.8886 *  0.0000     2          
   153  Cl    c      6.7617 *     7.8886 *    -1.1269 *  0.0000     2          
   154  Na    c      2.2539 *     1.1269 *    10.1425 *  0.0000     2          
   155  Na    c      2.2539 *    10.1425 *     1.1269 *  0.0000     2          
   156  Na    c      6.7617 *     1.1269 *    -7.8886 *  0.0000     2          
   157  Na    c      6.7617 *    -7.8886 *     1.1269 *  0.0000     2          
   158  O     c      4.5078 *     5.6347 *    -7.8886 *  0.0000     2          
   159  O     c      4.5078 *    -7.8886 *     5.6347 *  0.0000     2          
   160  O     c      9.0156 *     1.1269 *     5.6347 *  0.0000     2          
   161  O     c      9.0156 *     5.6347 *     1.1269 *  0.0000     2          
   162  Na    c      4.5078 *     5.6347 *     7.8886 *  0.0000     2          
   163  Na    c      4.5078 *    -7.8886 *    -5.6347 *  0.0000     2          
   164  Na    c      9.0156 *     1.1269 *    -5.6347 *  0.0000     2          
   165  Na    c      9.0156 *     5.6347 *    -1.1269 *  0.0000     2          
   166  Na    c      4.5078 *     7.8886 *     5.6347 *  0.0000     2          
   167  Na    c      4.5078 *    -5.6347 *    -7.8886 *  0.0000     2          
   168  Na    c      9.0156 *    -1.1269 *     5.6347 *  0.0000     2          
   169  Na    c      9.0156 *    -5.6347 *     1.1269 *  0.0000     2          
   170  O     c      0.0000      10.1425 *    -3.3808 *  0.0000     1          
   171  O     c      0.0000      -3.3808 *    10.1425 *  0.0000     1          
   172  Na    c      0.0000      10.1425 *     3.3808 *  0.0000     1          
   173  Na    c      0.0000      -3.3808 *   -10.1425 *  0.0000     1          
   174  Na    c      0.0000       3.3808 *    10.1425 *  0.0000     1          
   175  Na    c      0.0000     -10.1425 *    -3.3808 *  0.0000     1          
   176  Cl    c      2.2539 *     3.3808 *   -10.1425 *  0.0000     2          
   177  Cl    c      2.2539 *   -10.1425 *     3.3808 *  0.0000     2          
   178  Cl    c      6.7617 *     7.8886 *     3.3808 *  0.0000     2          
   179  Na    c      2.2539 *    10.1425 *    -3.3808 *  0.0000     2          
   180  Na    c      2.2539 *    -3.3808 *    10.1425 *  0.0000     2          
   181  Na    c      6.7617 *    -7.8886 *    -3.3808 *  0.0000     2          
   182  Cl    c      6.7617 *     3.3808 *     7.8886 *  0.0000     2          
   183  Na    c      6.7617 *    -3.3808 *    -7.8886 *  0.0000     2          
   184  O     c      9.0156 *    -3.3808 *     5.6347 *  0.0000     2          
   185  O     c     -4.5078 *    10.1425 *     1.1269 *  0.0000     2          
   186  Na    c      9.0156 *    -3.3808 *    -5.6347 *  0.0000     2          
   187  Na    c     -4.5078 *    10.1425 *    -1.1269 *  0.0000     2          
   188  Na    c      9.0156 *     3.3808 *     5.6347 *  0.0000     2          
   189  Na    c     -4.5078 *   -10.1425 *     1.1269 *  0.0000     2          
   190  O     c      0.0000      -7.8886 *    -7.8886 *  0.0000     1          
   191  O     c      4.5078 *     1.1269 *    10.1425 *  0.0000     2          
   192  O     c      9.0156 *     5.6347 *    -3.3808 *  0.0000     2          
   193  Na    c      0.0000      -7.8886 *     7.8886 *  0.0000     1          
   194  Na    c      4.5078 *     1.1269 *   -10.1425 *  0.0000     2          
   195  Na    c      9.0156 *     5.6347 *     3.3808 *  0.0000     2          
   196  Na    c      0.0000       7.8886 *    -7.8886 *  0.0000     1          
   197  Na    c      4.5078 *    -1.1269 *    10.1425 *  0.0000     2          
   198  Na    c      9.0156 *    -5.6347 *    -3.3808 *  0.0000     2          
   199  Cl    c     11.2695 *    -1.1269 *    -1.1269 *  0.0000     2          
   200  Na    c     11.2695 *     1.1269 *     1.1269 *  0.0000     2          
   201  Cl    c      2.2539 *     7.8886 *     7.8886 *  0.0000     2          
   202  Na    c      2.2539 *    -7.8886 *    -7.8886 *  0.0000     2          
   203  O     c      0.0000       5.6347 *    10.1425 *  0.0000     1          
   204  O     c      0.0000      10.1425 *     5.6347 *  0.0000     1          
   205  O     c     -4.5078 *    10.1425 *    -3.3808 *  0.0000     2          
   206  Na    c      0.0000       5.6347 *   -10.1425 *  0.0000     1          
   207  Na    c      0.0000      10.1425 *    -5.6347 *  0.0000     1          
   208  Na    c     -4.5078 *    10.1425 *     3.3808 *  0.0000     2          
   209  Na    c      0.0000      -5.6347 *    10.1425 *  0.0000     1          
   210  Na    c      0.0000     -10.1425 *     5.6347 *  0.0000     1          
   211  Na    c     -4.5078 *   -10.1425 *    -3.3808 *  0.0000     2          
   212  O     c      4.5078 *    -3.3808 *    10.1425 *  0.0000     2          
   213  Na    c      4.5078 *    -3.3808 *   -10.1425 *  0.0000     2          
   214  Na    c      4.5078 *     3.3808 *    10.1425 *  0.0000     2          
   215  Cl    c     11.2695 *    -1.1269 *     3.3808 *  0.0000     2          
   216  Cl    c     11.2695 *     3.3808 *    -1.1269 *  0.0000     2          
   217  Na    c     11.2695 *     1.1269 *    -3.3808 *  0.0000     2          
   218  Na    c     11.2695 *    -3.3808 *     1.1269 *  0.0000     2          
   219  Cl    c      2.2539 *    -5.6347 *   -10.1425 *  0.0000     2          
   220  Cl    c      2.2539 *   -10.1425 *    -5.6347 *  0.0000     2          
   221  Cl    c      6.7617 *     7.8886 *    -5.6347 *  0.0000     2          
   222  Na    c      2.2539 *     5.6347 *    10.1425 *  0.0000     2          
   223  Na    c      2.2539 *    10.1425 *     5.6347 *  0.0000     2          
   224  Na    c      6.7617 *    -7.8886 *     5.6347 *  0.0000     2          
   225  Cl    c      6.7617 *    -5.6347 *     7.8886 *  0.0000     2          
   226  Na    c      6.7617 *     5.6347 *    -7.8886 *  0.0000     2          
   227  O     c      9.0156 *     5.6347 *     5.6347 *  0.0000     2          
   228  O     c      9.0156 *    -7.8886 *     1.1269 *  0.0000     2          
   229  Na    c      9.0156 *     5.6347 *    -5.6347 *  0.0000     2          
   230  Na    c      9.0156 *    -7.8886 *    -1.1269 *  0.0000     2          
   231  Na    c      9.0156 *     7.8886 *     1.1269 *  0.0000     2          
   232  Na    c      9.0156 *    -5.6347 *     5.6347 *  0.0000     2          
   233  O     c      4.5078 *    -7.8886 *    -7.8886 *  0.0000     2          
   234  O     c      9.0156 *     1.1269 *    -7.8886 *  0.0000     2          
   235  Na    c      4.5078 *    -7.8886 *     7.8886 *  0.0000     2          
   236  Na    c      9.0156 *     1.1269 *     7.8886 *  0.0000     2          
   237  Na    c      4.5078 *     7.8886 *    -7.8886 *  0.0000     2          
   238  Na    c      9.0156 *    -1.1269 *    -7.8886 *  0.0000     2          
   239  Cl    c     11.2695 *     3.3808 *     3.3808 *  0.0000     2          
   240  Na    c     11.2695 *    -3.3808 *    -3.3808 *  0.0000     2          
   241  Cl    c      6.7617 *   -10.1425 *    -1.1269 *  0.0000     2          
   242  Na    c      6.7617 *    10.1425 *     1.1269 *  0.0000     2          
   243  Cl    c      6.7617 *    -1.1269 *   -10.1425 *  0.0000     2          
   244  Na    c      6.7617 *     1.1269 *    10.1425 *  0.0000     2          
   245  O     c      0.0000       1.1269 *   -12.3964 *  0.0000     1          
   246  O     c      0.0000     -12.3964 *     1.1269 *  0.0000     1          
   247  O     c      9.0156 *    -7.8886 *    -3.3808 *  0.0000     2          
   248  O     c     -4.5078 *    10.1425 *     5.6347 *  0.0000     2          
   249  Na    c      0.0000       1.1269 *    12.3964 *  0.0000     1          
   250  Na    c      0.0000     -12.3964 *    -1.1269 *  0.0000     1          
   251  Na    c      9.0156 *    -7.8886 *     3.3808 *  0.0000     2          
   252  Na    c     -4.5078 *    10.1425 *    -5.6347 *  0.0000     2          
   253  Na    c      0.0000      -1.1269 *   -12.3964 *  0.0000     1          
   254  Na    c      0.0000      12.3964 *     1.1269 *  0.0000     1          
   255  Na    c      9.0156 *     7.8886 *    -3.3808 *  0.0000     2          
   256  Na    c     -4.5078 *   -10.1425 *     5.6347 *  0.0000     2          
   257  O     c      4.5078 *     5.6347 *    10.1425 *  0.0000     2          
   258  O     c      9.0156 *    -3.3808 *    -7.8886 *  0.0000     2          
   259  Na    c      4.5078 *     5.6347 *   -10.1425 *  0.0000     2          
   260  Na    c      9.0156 *    -3.3808 *     7.8886 *  0.0000     2          
   261  Na    c      4.5078 *    -5.6347 *    10.1425 *  0.0000     2          
   262  Na    c      9.0156 *     3.3808 *    -7.8886 *  0.0000     2          
   263  Cl    c     11.2695 *    -1.1269 *    -5.6347 *  0.0000     2          
   264  Cl    c     11.2695 *    -5.6347 *    -1.1269 *  0.0000     2          
   265  Na    c     11.2695 *     1.1269 *     5.6347 *  0.0000     2          
   266  Na    c     11.2695 *     5.6347 *     1.1269 *  0.0000     2          
   267  Cl    c      2.2539 *    -1.1269 *    12.3964 *  0.0000     2          
   268  Cl    c      2.2539 *    12.3964 *    -1.1269 *  0.0000     2          
   269  Cl    c      6.7617 *   -10.1425 *     3.3808 *  0.0000     2          
   270  Na    c      2.2539 *     1.1269 *   -12.3964 *  0.0000     2          
   271  Na    c      2.2539 *   -12.3964 *     1.1269 *  0.0000     2          
   272  Na    c      6.7617 *    10.1425 *    -3.3808 *  0.0000     2          
   273  Cl    c      6.7617 *     3.3808 *   -10.1425 *  0.0000     2          
   274  Na    c      6.7617 *    -3.3808 *    10.1425 *  0.0000     2          
   275  O     c      0.0000      -3.3808 *   -12.3964 *  0.0000     1          
   276  O     c      0.0000     -12.3964 *    -3.3808 *  0.0000     1          
   277  Na    c      0.0000      -3.3808 *    12.3964 *  0.0000     1          
   278  Na    c      0.0000     -12.3964 *     3.3808 *  0.0000     1          
   279  Na    c      0.0000       3.3808 *   -12.3964 *  0.0000     1          
   280  Na    c      0.0000      12.3964 *    -3.3808 *  0.0000     1          
   281  O     c      0.0000      10.1425 *    -7.8886 *  0.0000     1          
   282  O     c      0.0000      -7.8886 *    10.1425 *  0.0000     1          
   283  Na    c      0.0000      10.1425 *     7.8886 *  0.0000     1          
   284  Na    c      0.0000      -7.8886 *   -10.1425 *  0.0000     1          
   285  Na    c      0.0000       7.8886 *    10.1425 *  0.0000     1          
   286  Na    c      0.0000     -10.1425 *    -7.8886 *  0.0000     1          
   287  O     s      0.0000       1.1269 *     1.1269 *  0.0000     1          
   288  Cl    s      2.2539 *    -1.1269 *    -1.1269 *  0.0000     2          
   289  O     s      0.0000       1.1269 *    -3.3808 *  0.0000     1          
   290  O     s      0.0000      -3.3808 *     1.1269 *  0.0000     1          
   291  Cl    s      2.2539 *    -1.1269 *     3.3808 *  0.0000     2          
   292  Cl    s      2.2539 *     3.3808 *    -1.1269 *  0.0000     2          
   293  O     s     -4.5078 *     1.1269 *     1.1269 *  0.0000     2          
   294  O     s      0.0000      -3.3808 *    -3.3808 *  0.0000     1          
   295  Cl    s      2.2539 *     3.3808 *     3.3808 *  0.0000     2          
   296  O     s      0.0000       1.1269 *     5.6347 *  0.0000     1          
   297  O     s      0.0000       5.6347 *     1.1269 *  0.0000     1          
   298  O     s     -4.5078 *     1.1269 *    -3.3808 *  0.0000     2          
   299  O     s     -4.5078 *    -3.3808 *     1.1269 *  0.0000     2          
   300  Cl    s      2.2539 *    -1.1269 *    -5.6347 *  0.0000     2          
   301  Cl    s      2.2539 *    -5.6347 *    -1.1269 *  0.0000     2          
   302  O     s      0.0000       5.6347 *    -3.3808 *  0.0000     1          
   303  O     s      0.0000      -3.3808 *     5.6347 *  0.0000     1          
   304  O     s      4.5078 *    -3.3808 *    -3.3808 *  0.0000     2          
   305  Cl    s      2.2539 *     3.3808 *    -5.6347 *  0.0000     2          
   306  Cl    s      2.2539 *    -5.6347 *     3.3808 *  0.0000     2          
   307  Cl    s      6.7617 *    -1.1269 *    -1.1269 *  0.0000     2          
   308  O     s     -4.5078 *     1.1269 *     5.6347 *  0.0000     2          
   309  O     s      4.5078 *     5.6347 *     1.1269 *  0.0000     2          
   310  Cl    s      6.7617 *    -1.1269 *     3.3808 *  0.0000     2          
   311  Cl    s      6.7617 *     3.3808 *    -1.1269 *  0.0000     2          
   312  O     s      0.0000       5.6347 *     5.6347 *  0.0000     1          
   313  O     s     -4.5078 *    -3.3808 *     5.6347 *  0.0000     2          
   314  O     s      0.0000       1.1269 *    -7.8886 *  0.0000     1          
   315  O     s      0.0000      -7.8886 *     1.1269 *  0.0000     1          
   316  O     s      4.5078 *     5.6347 *    -3.3808 *  0.0000     2          
   317  Cl    s      2.2539 *    -5.6347 *    -5.6347 *  0.0000     2          
   318  Cl    s      2.2539 *    -1.1269 *     7.8886 *  0.0000     2          
   319  Cl    s      2.2539 *     7.8886 *    -1.1269 *  0.0000     2          
   320  Cl    s      6.7617 *     3.3808 *     3.3808 *  0.0000     2          
   321  O     s      0.0000      -3.3808 *    -7.8886 *  0.0000     1          
   322  O     s      0.0000      -7.8886 *    -3.3808 *  0.0000     1          
   323  Cl    s      2.2539 *     3.3808 *     7.8886 *  0.0000     2          
   324  Cl    s      6.7617 *    -1.1269 *    -5.6347 *  0.0000     2          
   325  Cl    s      2.2539 *     7.8886 *     3.3808 *  0.0000     2          
   326  Cl    s      6.7617 *    -5.6347 *    -1.1269 *  0.0000     2          
   327  O     s      4.5078 *     5.6347 *     5.6347 *  0.0000     2          
   328  O     s      4.5078 *    -7.8886 *     1.1269 *  0.0000     2          
   329  O     s      9.0156 *     1.1269 *     1.1269 *  0.0000     2          
   330  O     s     -4.5078 *     1.1269 *    -7.8886 *  0.0000     2          
   331  Cl    s      6.7617 *     3.3808 *    -5.6347 *  0.0000     2          
   332  Cl    s      6.7617 *    -5.6347 *     3.3808 *  0.0000     2          
   333  O     s      0.0000       5.6347 *    -7.8886 *  0.0000     1          
   334  O     s      0.0000      -7.8886 *     5.6347 *  0.0000     1          
   335  O     s      9.0156 *    -3.3808 *     1.1269 *  0.0000     2          
   336  O     s     -4.5078 *    -3.3808 *    -7.8886 *  0.0000     2          
   337  O     s      4.5078 *    -7.8886 *    -3.3808 *  0.0000     2          
   338  O     s      9.0156 *     1.1269 *    -3.3808 *  0.0000     2          
   339  Cl    s      2.2539 *     7.8886 *    -5.6347 *  0.0000     2          
   340  Cl    s      2.2539 *    -5.6347 *     7.8886 *  0.0000     2          
   341  O     s      0.0000      10.1425 *     1.1269 *  0.0000     1          
   342  O     s      0.0000       1.1269 *    10.1425 *  0.0000     1          
   343  O     s      9.0156 *    -3.3808 *    -3.3808 *  0.0000     2          
   344  Cl    s      6.7617 *    -5.6347 *    -5.6347 *  0.0000     2          
   345  Cl    s      2.2539 *    -1.1269 *   -10.1425 *  0.0000     2          
   346  Cl    s      2.2539 *   -10.1425 *    -1.1269 *  0.0000     2          
   347  Cl    s      6.7617 *    -1.1269 *     7.8886 *  0.0000     2          
   348  Cl    s      6.7617 *     7.8886 *    -1.1269 *  0.0000     2          
   349  O     s      4.5078 *     5.6347 *    -7.8886 *  0.0000     2          
   350  O     s      4.5078 *    -7.8886 *     5.6347 *  0.0000     2          
   351  O     s      9.0156 *     1.1269 *     5.6347 *  0.0000     2          
   352  O     s      9.0156 *     5.6347 *     1.1269 *  0.0000     2          
   353  O     s      0.0000      10.1425 *    -3.3808 *  0.0000     1          
   354  O     s      0.0000      -3.3808 *    10.1425 *  0.0000     1          
   355  Cl    s      2.2539 *     3.3808 *   -10.1425 *  0.0000     2          
   356  Cl    s      2.2539 *   -10.1425 *     3.3808 *  0.0000     2          
   357  Cl    s      6.7617 *     7.8886 *     3.3808 *  0.0000     2          
   358  Cl    s      6.7617 *     3.3808 *     7.8886 *  0.0000     2          
   359  O     s      9.0156 *    -3.3808 *     5.6347 *  0.0000     2          
   360  O     s     -4.5078 *    10.1425 *     1.1269 *  0.0000     2          
   361  O     s      0.0000      -7.8886 *    -7.8886 *  0.0000     1          
   362  O     s      4.5078 *     1.1269 *    10.1425 *  0.0000     2          
   363  O     s      9.0156 *     5.6347 *    -3.3808 *  0.0000     2          
   364  Cl    s     11.2695 *    -1.1269 *    -1.1269 *  0.0000     2          
   365  Cl    s      2.2539 *     7.8886 *     7.8886 *  0.0000     2          
   366  O     s      0.0000       5.6347 *    10.1425 *  0.0000     1          
   367  O     s      0.0000      10.1425 *     5.6347 *  0.0000     1          
   368  O     s     -4.5078 *    10.1425 *    -3.3808 *  0.0000     2          
   369  O     s      4.5078 *    -3.3808 *    10.1425 *  0.0000     2          
   370  Cl    s     11.2695 *    -1.1269 *     3.3808 *  0.0000     2          
   371  Cl    s     11.2695 *     3.3808 *    -1.1269 *  0.0000     2          
   372  Cl    s      2.2539 *    -5.6347 *   -10.1425 *  0.0000     2          
   373  Cl    s      2.2539 *   -10.1425 *    -5.6347 *  0.0000     2          
   374  Cl    s      6.7617 *     7.8886 *    -5.6347 *  0.0000     2          
   375  Cl    s      6.7617 *    -5.6347 *     7.8886 *  0.0000     2          
   376  O     s      9.0156 *     5.6347 *     5.6347 *  0.0000     2          
   377  O     s      9.0156 *    -7.8886 *     1.1269 *  0.0000     2          
   378  O     s      4.5078 *    -7.8886 *    -7.8886 *  0.0000     2          
   379  O     s      9.0156 *     1.1269 *    -7.8886 *  0.0000     2          
   380  Cl    s     11.2695 *     3.3808 *     3.3808 *  0.0000     2          
   381  Cl    s      6.7617 *   -10.1425 *    -1.1269 *  0.0000     2          
   382  Cl    s      6.7617 *    -1.1269 *   -10.1425 *  0.0000     2          
   383  O     s      0.0000       1.1269 *   -12.3964 *  0.0000     1          
   384  O     s      0.0000     -12.3964 *     1.1269 *  0.0000     1          
   385  O     s      9.0156 *    -7.8886 *    -3.3808 *  0.0000     2          
   386  O     s     -4.5078 *    10.1425 *     5.6347 *  0.0000     2          
   387  O     s      4.5078 *     5.6347 *    10.1425 *  0.0000     2          
   388  O     s      9.0156 *    -3.3808 *    -7.8886 *  0.0000     2          
   389  Cl    s     11.2695 *    -1.1269 *    -5.6347 *  0.0000     2          
   390  Cl    s     11.2695 *    -5.6347 *    -1.1269 *  0.0000     2          
   391  Cl    s      2.2539 *    -1.1269 *    12.3964 *  0.0000     2          
   392  Cl    s      2.2539 *    12.3964 *    -1.1269 *  0.0000     2          
   393  Cl    s      6.7617 *   -10.1425 *     3.3808 *  0.0000     2          
   394  Cl    s      6.7617 *     3.3808 *   -10.1425 *  0.0000     2          
   395  O     s      0.0000      -3.3808 *   -12.3964 *  0.0000     1          
   396  O     s      0.0000     -12.3964 *    -3.3808 *  0.0000     1          
   397  O     s      0.0000      10.1425 *    -7.8886 *  0.0000     1          
   398  O     s      0.0000      -7.8886 *    10.1425 *  0.0000     1          
--------------------------------------------------------------------------------

  Components of defect energy : 

--------------------------------------------------------------------------------
  Region 1 - region 1                   =      8.30798325 eV
  Region 1 - region 2a (unrelaxed)      =      0.17659497 eV
  Region 1 - 2a (relaxed - correction)  =     -0.42235624 eV
  Region 1 (Total)                      =      8.06222197 eV
  Region 2a                             =      0.21110198 eV
  Region 2b                             =     -0.32890751 eV
--------------------------------------------------------------------------------
  Total defect energy                   =      7.94441643 eV
--------------------------------------------------------------------------------

  Largest displacement in region 2 =   0.0229 Angstroms


  Number of variables =     1081

  Maximum number of calculations  =        1000
  Maximum Hessian update interval =          10
  Maximum step size               =   1.0000000
  Maximum parameter tolerance     =   0.0000100
  Maximum function  tolerance     =   0.0000100
  Maximum gradient  tolerance     =   0.0010000

  Symmetry adapted optimisation

  Symmetry to be used for second derivatives

  Newton-Raphson optimiser to be used

  BFGS hessian update to be used

  Lower half triangular hessian to be used

  Start of defect optimisation :

  Cycle:      0 Defect Energy:   7.944416  Gnorm:     0.015993  CPU:    9.545
  ** Hessian calculated **
  Cycle:      1 Defect Energy:   6.117731  Gnorm:     0.006345  CPU:   22.123
  Cycle:      2 Defect Energy:   5.475463  Gnorm:     0.004995  CPU:   32.553
  Cycle:      3 Defect Energy:   5.338865  Gnorm:     0.002648  CPU:   44.806
  Cycle:      4 Defect Energy:   5.289177  Gnorm:     0.002534  CPU:   47.343
  Cycle:      5 Defect Energy:   5.222075  Gnorm:     0.002190  CPU:   49.885
  Cycle:      6 Defect Energy:   5.132862  Gnorm:     0.001786  CPU:   52.277
  Cycle:      7 Defect Energy:   5.024572  Gnorm:     0.001716  CPU:   54.783
  Cycle:      8 Defect Energy:   4.943462  Gnorm:     0.001440  CPU:   57.077
  Cycle:      9 Defect Energy:   4.879551  Gnorm:     0.001578  CPU:   59.441
  Cycle:     10 Defect Energy:   4.816083  Gnorm:     0.001670  CPU:   61.655
  ** Hessian calculated **
  Cycle:     11 Defect Energy:   4.788447  Gnorm:     0.001353  CPU:   67.054
  Cycle:     12 Defect Energy:   4.755667  Gnorm:     0.001253  CPU:   69.134
  Cycle:     13 Defect Energy:   4.715641  Gnorm:     0.001237  CPU:   75.490
  Cycle:     14 Defect Energy:   4.678724  Gnorm:     0.001186  CPU:   78.115
  Cycle:     15 Defect Energy:   4.646750  Gnorm:     0.001166  CPU:   80.797
  Cycle:     16 Defect Energy:   4.619435  Gnorm:     0.001145  CPU:   83.359
  Cycle:     17 Defect Energy:   4.594562  Gnorm:     0.001147  CPU:   85.879
  Cycle:     18 Defect Energy:   4.568227  Gnorm:     0.001142  CPU:   88.348
  Cycle:     19 Defect Energy:   4.542416  Gnorm:     0.001115  CPU:   90.823
  Cycle:     20 Defect Energy:   4.517186  Gnorm:     0.001103  CPU:   93.172
  ** Hessian calculated **
  Cycle:     21 Defect Energy:   4.508292  Gnorm:     0.001043  CPU:   99.030
  Cycle:     22 Defect Energy:   4.496708  Gnorm:     0.001020  CPU:  101.175
  Cycle:     23 Defect Energy:   4.481368  Gnorm:     0.000981  CPU:  103.458
  Cycle:     24 Defect Energy:   4.463096  Gnorm:     0.000957  CPU:  109.327
  Cycle:     25 Defect Energy:   4.448009  Gnorm:     0.000902  CPU:  111.962
  Cycle:     26 Defect Energy:   4.433699  Gnorm:     0.000906  CPU:  114.671
  Cycle:     27 Defect Energy:   4.416889  Gnorm:     0.000912  CPU:  117.248
  Cycle:     28 Defect Energy:   4.396401  Gnorm:     0.000949  CPU:  120.001
  Cycle:     29 Defect Energy:   4.372112  Gnorm:     0.000976  CPU:  122.434
  Cycle:     30 Defect Energy:   4.348570  Gnorm:     0.001079  CPU:  124.914
  ** Hessian calculated **
  Cycle:     31 Defect Energy:   4.334309  Gnorm:     0.000995  CPU:  130.750
  Cycle:     32 Defect Energy:   4.315778  Gnorm:     0.000974  CPU:  132.958
  Cycle:     33 Defect Energy:   4.291534  Gnorm:     0.000935  CPU:  135.267
  Cycle:     34 Defect Energy:   4.262875  Gnorm:     0.000911  CPU:  137.416
  Cycle:     35 Defect Energy:   4.239426  Gnorm:     0.000916  CPU:  139.558
  Cycle:     36 Defect Energy:   4.218644  Gnorm:     0.000950  CPU:  145.237
  Cycle:     37 Defect Energy:   4.199324  Gnorm:     0.001014  CPU:  147.912
  Cycle:     38 Defect Energy:   4.180177  Gnorm:     0.001049  CPU:  150.663
  Cycle:     39 Defect Energy:   4.162450  Gnorm:     0.001101  CPU:  153.238
  Cycle:     40 Defect Energy:   4.143797  Gnorm:     0.001152  CPU:  155.892
  ** Hessian calculated **
  Cycle:     41 Defect Energy:   4.074848  Gnorm:     0.001013  CPU:  162.235
  Cycle:     42 Defect Energy:   3.974780  Gnorm:     0.000715  CPU:  165.010
  Cycle:     43 Defect Energy:   3.932213  Gnorm:     0.000464  CPU:  167.472
  Cycle:     44 Defect Energy:   3.913912  Gnorm:     0.000328  CPU:  169.788
  Cycle:     45 Defect Energy:   3.904694  Gnorm:     0.000188  CPU:  172.102
  Cycle:     46 Defect Energy:   3.901593  Gnorm:     0.000119  CPU:  177.085
  Cycle:     47 Defect Energy:   3.900192  Gnorm:     0.000069  CPU:  180.021
  Cycle:     48 Defect Energy:   3.899739  Gnorm:     0.000041  CPU:  182.683
  Cycle:     49 Defect Energy:   3.899653  Gnorm:     0.000025  CPU:  185.417
  Cycle:     50 Defect Energy:   3.899604  Gnorm:     0.000017  CPU:  188.157
  ** Hessian calculated **


  **** Optimisation achieved ****


  Final defect energy  =        3.89959801
  Final defect Gnorm   =        0.00001178

  Components of defect energy : 

--------------------------------------------------------------------------------
  Region 1 - region 1                   =      4.95321978 eV
  Region 1 - region 2a (unrelaxed)      =     -0.54655973 eV
  Region 1 - 2a (relaxed - correction)  =     -0.35801085 eV
  Region 1 (Total)                      =      4.04864919 eV
  Region 2a                             =      0.17889494 eV
  Region 2b                             =     -0.32794612 eV
--------------------------------------------------------------------------------
  Total defect energy                   =      3.89959801 eV
--------------------------------------------------------------------------------

  Largest displacement in region 2 =   0.0229 Angstroms

  Final coordinates of region 1 :

--------------------------------------------------------------------------------
   No.  Atomic        x           y           z          Radius      Charge
        Label       (Angs)      (Angs)      (Angs)       (Angs)       (e) 
--------------------------------------------------------------------------------
     1  Na    c     2.253894    0.045078    2.208816    0.000000    1.000000
     2  O     c     2.253894    2.277831    2.380484    0.000000    0.183000
     3  Cl    c     4.659838   -0.096187    0.008444    0.000000    1.485000
     4  Cl    c    -0.152051   -0.096187    0.008444    0.000000    1.485000
     5  Na    c     4.417230    2.222738    1.861689    0.000000    1.000000
     6  Na    c     0.090557    2.222738    1.861689    0.000000    1.000000
     7  O     c     2.253894    2.245996   -2.322670    0.000000    0.183000
     8  O     c     2.253894   -2.257510    2.229880    0.000000    0.183000
     9  Na    c     2.253894    2.623884    4.541356    0.000000    1.000000
    10  Na    c     2.253894   -2.568888   -0.002099    0.000000    1.000000
    11  Na    c     2.253894    0.099055   -1.712227    0.000000    1.000000
    12  Na    c     2.253894    4.420061    1.742191    0.000000    1.000000
    13  Cl    c     4.563772   -0.154321    4.582671    0.000000    1.485000
    14  Cl    c    -0.055985   -0.154321    4.582671    0.000000    1.485000
    15  Cl    c     4.596879    4.631979   -0.009690    0.000000    1.485000
    16  Cl    c    -0.089092    4.631979   -0.009690    0.000000    1.485000
    17  Na    c     4.437864    2.277089   -1.911509    0.000000    1.000000
    18  Na    c     0.069923    2.277089   -1.911509    0.000000    1.000000
    19  Na    c     4.510314   -2.212463    2.113924    0.000000    1.000000
    20  Na    c    -0.002527   -2.212463    2.113924    0.000000    1.000000
    21  O     c    -2.210596    2.234063    2.232968    0.000000    0.183000
    22  O     c     6.718384    2.234063    2.232968    0.000000    0.183000
    23  Na    c    -2.456221    1.864552    0.000765    0.000000    1.000000
    24  Na    c     6.964008    1.864552    0.000765    0.000000    1.000000
    25  Na    c    -2.163531   -0.009192    2.601680    0.000000    1.000000
    26  Na    c     6.671318   -0.009192    2.601680    0.000000    1.000000
    27  O     c     2.253894   -2.198319   -2.223098    0.000000    0.183000
    28  Na    c     2.253894   -2.283277    4.490394    0.000000    1.000000
    29  Na    c     2.253894    4.422084   -1.856316    0.000000    1.000000
    30  Cl    c     4.559459    4.607629    4.653775    0.000000    1.485000
    31  Cl    c    -0.051672    4.607629    4.653775    0.000000    1.485000
    32  Na    c     4.511755   -2.246167   -2.134267    0.000000    1.000000
    33  Na    c    -0.003968   -2.246167   -2.134267    0.000000    1.000000
    34  O     c     2.253894    2.248744    6.807749    0.000000    0.183000
    35  O     c     2.253894    6.696761    2.262045    0.000000    0.183000
    36  Na    c     2.253894    2.158653   -4.511045    0.000000    1.000000
    37  Na    c     2.253894    7.091781    0.008956    0.000000    1.000000
    38  Na    c     2.253894    0.033277    6.374030    0.000000    1.000000
    39  Na    c     2.253894   -4.508713    2.454431    0.000000    1.000000
    40  O     c    -2.223493    2.241814   -2.230903    0.000000    0.183000
    41  O     c     6.731280    2.241814   -2.230903    0.000000    0.183000
    42  O     c    -2.259041   -2.264187    2.263268    0.000000    0.183000
    43  O     c     6.766828   -2.264187    2.263268    0.000000    0.183000
    44  Na    c    -1.957206    2.566231    4.467679    0.000000    1.000000
    45  Na    c     6.464993    2.566231    4.467679    0.000000    1.000000
    46  Na    c    -2.395125   -1.904881    0.003115    0.000000    1.000000
    47  Na    c     6.902913   -1.904881    0.003115    0.000000    1.000000
    48  Na    c    -2.104921    0.005296   -2.595695    0.000000    1.000000
    49  Na    c     6.612709    0.005296   -2.595695    0.000000    1.000000
    50  Na    c    -2.262175    4.485619    1.897088    0.000000    1.000000
    51  Na    c     6.769962    4.485619    1.897088    0.000000    1.000000
    52  Cl    c     4.608378   -0.051696   -4.638343    0.000000    1.485000
    53  Cl    c    -0.100591   -0.051696   -4.638343    0.000000    1.485000
    54  Cl    c     4.494474   -4.506108   -0.002179    0.000000    1.485000
    55  Cl    c     0.013313   -4.506108   -0.002179    0.000000    1.485000
    56  Na    c     4.503637    2.190960    6.882931    0.000000    1.000000
    57  Na    c     0.004150    2.190960    6.882931    0.000000    1.000000
    58  Na    c     4.505692    6.653134    2.351728    0.000000    1.000000
    59  Na    c     0.002096    6.653134    2.351728    0.000000    1.000000
    60  O     c     2.253894    6.712448   -2.239881    0.000000    0.183000
    61  O     c     2.253894   -2.204185    6.759580    0.000000    0.183000
    62  Na    c     2.253894    6.289400    4.502961    0.000000    1.000000
    63  Na    c     2.253894   -1.756911   -4.460515    0.000000    1.000000
    64  Na    c     2.253894    4.509900    7.150586    0.000000    1.000000
    65  Na    c     2.253894   -4.452784   -2.637019    0.000000    1.000000
    66  O     c     6.773172   -2.243240   -2.255490    0.000000    0.183000
    67  O     c    -2.265384   -2.243240   -2.255490    0.000000    0.183000
    68  Na    c     6.548347   -2.599573    4.503500    0.000000    1.000000
    69  Na    c    -2.040560   -2.599573    4.503500    0.000000    1.000000
    70  Na    c     6.813063    4.493293   -1.910970    0.000000    1.000000
    71  Na    c    -2.305276    4.493293   -1.910970    0.000000    1.000000
    72  Cl    c     4.565428    4.621898   -4.626583    0.000000    1.485000
    73  Cl    c    -0.057641    4.621898   -4.626583    0.000000    1.485000
    74  Cl    c     4.444024   -4.573963    4.498867    0.000000    1.485000
    75  Cl    c     0.063763   -4.573963    4.498867    0.000000    1.485000
    76  Na    c     4.509863    6.639009   -2.322022    0.000000    1.000000
    77  Na    c    -0.002076    6.639009   -2.322022    0.000000    1.000000
    78  Na    c     4.512606   -2.126661    6.831823    0.000000    1.000000
    79  Na    c    -0.004818   -2.126661    6.831823    0.000000    1.000000
    80  Cl    c     9.084084   -0.019418   -0.028788    0.000000    1.485000
    81  Cl    c    -4.576297   -0.019418   -0.028788    0.000000    1.485000
    82  Na    c     8.985162    2.229456    2.472125    0.000000    1.000000
    83  Na    c    -4.477375    2.229456    2.472125    0.000000    1.000000
    84  O     c    -2.243859    2.248443    6.721694    0.000000    0.183000
    85  O     c     6.751646    2.248443    6.721694    0.000000    0.183000
    86  Na    c    -2.016520    2.561707   -4.474102    0.000000    1.000000
    87  Na    c     6.524308    2.561707   -4.474102    0.000000    1.000000
    88  Na    c    -2.328832   -0.006999    6.408673    0.000000    1.000000
    89  Na    c     6.836619   -0.006999    6.408673    0.000000    1.000000
    90  O     c     6.764043    6.743535    2.249457    0.000000    0.183000
    91  O     c    -2.256256    6.743535    2.249457    0.000000    0.183000
    92  Na    c     6.577568    7.067132    0.005832    0.000000    1.000000
    93  Na    c    -2.069780    7.067132    0.005832    0.000000    1.000000
    94  Na    c     6.763779   -4.499887    1.887437    0.000000    1.000000
    95  Na    c    -2.255992   -4.499887    1.887437    0.000000    1.000000
    96  Cl    c     9.063557   -0.006148    4.493887    0.000000    1.485000
    97  Cl    c    -4.555769   -0.006148    4.493887    0.000000    1.485000
    98  Na    c     8.994802    2.174023   -2.445312    0.000000    1.000000
    99  Na    c    -4.487015    2.174023   -2.445312    0.000000    1.000000
   100  Cl    c     9.016277    4.547720    0.011910    0.000000    1.485000
   101  Cl    c    -4.508490    4.547720    0.011910    0.000000    1.485000
   102  Na    c     9.010366   -2.226850    2.452965    0.000000    1.000000
   103  Na    c    -4.502579   -2.226850    2.452965    0.000000    1.000000
   104  O     c     2.253894    6.760813    6.742154    0.000000    0.183000
   105  Na    c     2.253894    6.397824   -4.476818    0.000000    1.000000
   106  Na    c     2.253894   -4.478468    6.798069    0.000000    1.000000
   107  O     c    -2.264359   -2.266604    6.748942    0.000000    0.183000
   108  O     c     6.772147   -2.266604    6.748942    0.000000    0.183000
   109  Na    c    -2.138525   -2.561384   -4.493276    0.000000    1.000000
   110  Na    c     6.646312   -2.561384   -4.493276    0.000000    1.000000
   111  Na    c    -2.140172    4.496446    7.022829    0.000000    1.000000
   112  Na    c     6.647959    4.496446    7.022829    0.000000    1.000000
   113  O     c     2.253894    2.222544   -6.801063    0.000000    0.183000
   114  O     c     2.253894   -6.751662    2.243331    0.000000    0.183000
   115  O     c     6.768463    6.753135   -2.236965    0.000000    0.183000
   116  O     c    -2.260676    6.753135   -2.236965    0.000000    0.183000
   117  Na    c     2.253894    1.868715    9.037838    0.000000    1.000000
   118  Na    c     2.253894   -6.492543   -0.020801    0.000000    1.000000
   119  Na    c     6.885649    6.456206    4.505791    0.000000    1.000000
   120  Na    c    -2.377861    6.456206    4.505791    0.000000    1.000000
   121  Na    c     2.253894   -0.006253   -7.067218    0.000000    1.000000
   122  Na    c     2.253894    8.960559    2.588741    0.000000    1.000000
   123  Na    c     6.848653   -4.495025   -1.949129    0.000000    1.000000
   124  Na    c    -2.340865   -4.495025   -1.949129    0.000000    1.000000
   125  Cl    c     4.538420   -4.561927   -4.510989    0.000000    1.485000
   126  Cl    c    -0.030633   -4.561927   -4.510989    0.000000    1.485000
   127  Na    c     4.514802    6.792681    6.616073    0.000000    1.000000
   128  Na    c    -0.007015    6.792681    6.616073    0.000000    1.000000
   129  Cl    c     4.536100   -0.008120    9.045689    0.000000    1.485000
   130  Cl    c    -0.028313   -0.008120    9.045689    0.000000    1.485000
   131  Na    c     4.504999    2.093101   -6.797980    0.000000    1.000000
   132  Na    c     0.002788    2.093101   -6.797980    0.000000    1.000000
   133  Cl    c     4.506900    9.060561    0.009480    0.000000    1.485000
   134  Cl    c     0.000887    9.060561    0.009480    0.000000    1.485000
   135  Cl    c     9.046764    4.496067    4.515814    0.000000    1.485000
   136  Cl    c    -4.538977    4.496067    4.515814    0.000000    1.485000
   137  Na    c     4.511263   -6.738740    2.306839    0.000000    1.000000
   138  Na    c    -0.003475   -6.738740    2.306839    0.000000    1.000000
   139  Na    c     9.017601   -2.105165   -2.400793    0.000000    1.000000
   140  Na    c    -4.509814   -2.105165   -2.400793    0.000000    1.000000
   141  O     c     2.253894   -2.228699   -6.726944    0.000000    0.183000
   142  O     c     2.253894   -6.721911   -2.279554    0.000000    0.183000
   143  Na    c     2.253894   -2.000674    9.009734    0.000000    1.000000
   144  Na    c     2.253894   -6.858277    4.498901    0.000000    1.000000
   145  Na    c     2.253894    4.489440   -6.794620    0.000000    1.000000
   146  Na    c     2.253894    8.967937   -2.565650    0.000000    1.000000
   147  Cl    c     4.526802    4.499144    9.064315    0.000000    1.485000
   148  Cl    c    -0.019014    4.499144    9.064315    0.000000    1.485000
   149  Cl    c     9.087841   -0.015954   -4.510585    0.000000    1.485000
   150  Cl    c    -4.580054   -0.015954   -4.510585    0.000000    1.485000
   151  Na    c     4.514190   -2.146210   -6.724266    0.000000    1.000000
   152  Na    c    -0.006402   -2.146210   -6.724266    0.000000    1.000000
   153  Na    c     9.004587    2.368749    6.529464    0.000000    1.000000
   154  Na    c    -4.496800    2.368749    6.529464    0.000000    1.000000
   155  Cl    c     4.534767    9.053610    4.528937    0.000000    1.485000
   156  Cl    c    -0.026980    9.053610    4.528937    0.000000    1.485000
   157  Cl    c     9.032943   -4.578047   -0.001183    0.000000    1.485000
   158  Cl    c    -4.525156   -4.578047   -0.001183    0.000000    1.485000
   159  Na    c     4.508914   -6.638028   -2.303464    0.000000    1.000000
   160  Na    c    -0.001126   -6.638028   -2.303464    0.000000    1.000000
   161  Na    c     9.011094    6.733620    2.063600    0.000000    1.000000
   162  Na    c    -4.503306    6.733620    2.063600    0.000000    1.000000
   163  O     c     6.776498    6.746062    6.769134    0.000000    0.183000
   164  O     c    -2.268711    6.746062    6.769134    0.000000    0.183000
   165  O     c     6.766406   -6.750684    2.235247    0.000000    0.183000
   166  O     c    -2.258619   -6.750684    2.235247    0.000000    0.183000
   167  O     c    11.251636    2.243141    2.254857    0.000000    0.183000
   168  O     c    -6.743849    2.243141    2.254857    0.000000    0.183000
   169  O     c    -2.246554    2.268589   -6.731673    0.000000    0.183000
   170  O     c     6.754341    2.268589   -6.731673    0.000000    0.183000
   171  Na    c     6.870662    6.478277   -4.497711    0.000000    1.000000
   172  Na    c    -2.362875    6.478277   -4.497711    0.000000    1.000000
   173  Na    c     6.672869   -7.082035   -0.001799    0.000000    1.000000
[...]
    318 y          0.000000     -0.007709    -0.007709    Cartesian    0.00
    318 z          9.015574      9.045130     0.029556    Cartesian    0.33
    319 x          4.507787      4.506217    -0.001570    Cartesian   -0.03
    319 y          9.015574      9.063311     0.047737    Cartesian    0.53
    319 z          0.000000      0.010260     0.010260    Cartesian    0.00
    320 x          9.015574      9.051425     0.035851    Cartesian    0.40
    320 y          4.507787      4.493782    -0.014005    Cartesian   -0.31
    320 z          4.507787      4.516763     0.008976    Cartesian    0.20
    321 x          2.253894      2.253894     0.000000    Cartesian    0.00
    321 y         -2.253894     -2.228611     0.025282    Cartesian   -1.12
    321 z         -6.761681     -6.727012     0.034669    Cartesian   -0.51
    322 x          2.253894      2.253894     0.000000    Cartesian    0.00
    322 y         -6.761681     -6.721923     0.039758    Cartesian   -0.59
    322 z         -2.253894     -2.279608    -0.025714    Cartesian    1.14
    323 x          4.507787      4.525916     0.018128    Cartesian    0.40
    323 y          4.507787      4.495744    -0.012043    Cartesian   -0.27
    323 z          9.015574      9.065796     0.050222    Cartesian    0.56
    324 x          9.015574      9.091449     0.075875    Cartesian    0.84
    324 y          0.000000     -0.017396    -0.017396    Cartesian    0.00
    324 z         -4.507787     -4.508137    -0.000350    Cartesian    0.01
    325 x          4.507787      4.532914     0.025127    Cartesian    0.56
    325 y          9.015574      9.056809     0.041234    Cartesian    0.46
    325 z          4.507787      4.531389     0.023601    Cartesian    0.52
    326 x          9.015574      9.031821     0.016247    Cartesian    0.18
    326 y         -4.507787     -4.581518    -0.073731    Cartesian    1.64
    326 z          0.000000     -0.000473    -0.000473    Cartesian    0.00
    327 x          6.761681      6.776514     0.014834    Cartesian    0.22
    327 y          6.761681      6.746047    -0.015634    Cartesian   -0.23
    327 z          6.761681      6.769181     0.007500    Cartesian    0.11
    328 x          6.761681      6.766405     0.004724    Cartesian    0.07
    328 y         -6.761681     -6.750710     0.010971    Cartesian   -0.16
    328 z          2.253894      2.235195    -0.018698    Cartesian   -0.83
    329 x         11.269468     11.251652    -0.017816    Cartesian   -0.16
    329 y          2.253894      2.243147    -0.010747    Cartesian   -0.48
    329 z          2.253894      2.254883     0.000990    Cartesian    0.04
    330 x         -2.253894     -2.246513     0.007381    Cartesian   -0.33
    330 y          2.253894      2.268637     0.014743    Cartesian    0.65
    330 z         -6.761681     -6.731694     0.029987    Cartesian   -0.44
    331 x          9.015574      9.055535     0.039961    Cartesian    0.44
    331 y          4.507787      4.500529    -0.007258    Cartesian   -0.16
    331 z         -4.507787     -4.511193    -0.003406    Cartesian    0.08
    332 x          9.015574      9.064929     0.049354    Cartesian    0.55
    332 y         -4.507787     -4.532226    -0.024439    Cartesian    0.54
    332 z          4.507787      4.530212     0.022425    Cartesian    0.50
    333 x          2.253894      2.253894     0.000000    Cartesian    0.00
    333 y          6.761681      6.761160    -0.000520    Cartesian   -0.01
    333 z         -6.761681     -6.715201     0.046480    Cartesian   -0.69
    334 x          2.253894      2.253894     0.000000    Cartesian    0.00
    334 y         -6.761681     -6.765658    -0.003978    Cartesian    0.06
    334 z          6.761681      6.747997    -0.013684    Cartesian   -0.20
    335 x         11.269468     11.265925    -0.003543    Cartesian   -0.03
    335 y         -2.253894     -2.242685     0.011209    Cartesian   -0.50
    335 z          2.253894      2.252143    -0.001751    Cartesian   -0.08
    336 x         -2.253894     -2.267986    -0.014093    Cartesian    0.63
    336 y         -2.253894     -2.270655    -0.016761    Cartesian    0.74
    336 z         -6.761681     -6.741486     0.020194    Cartesian   -0.30
    337 x          6.761681      6.761204    -0.000477    Cartesian   -0.01
    337 y         -6.761681     -6.756859     0.004822    Cartesian   -0.07
    337 z         -2.253894     -2.232037     0.021856    Cartesian   -0.97
    338 x         11.269468     11.257242    -0.012226    Cartesian   -0.11
    338 y          2.253894      2.250739    -0.003155    Cartesian   -0.14
    338 z         -2.253894     -2.244917     0.008976    Cartesian   -0.40
    339 x          4.507787      4.528133     0.020345    Cartesian    0.45
    339 y          9.015574      9.086899     0.071324    Cartesian    0.79
    339 z         -4.507787     -4.514834    -0.007047    Cartesian    0.16
    340 x          4.507787      4.502691    -0.005097    Cartesian   -0.11
    340 y         -4.507787     -4.559419    -0.051632    Cartesian    1.15
    340 z          9.015574      9.045515     0.029941    Cartesian    0.33
    341 x          2.253894      2.253894     0.000000    Cartesian    0.00
    341 y         11.269468     11.226421    -0.043047    Cartesian   -0.38
    341 z          2.253894      2.247399    -0.006495    Cartesian   -0.29
    342 x          2.253894      2.253894     0.000000    Cartesian    0.00
    342 y          2.253894      2.248453    -0.005440    Cartesian   -0.24
    342 z         11.269468     11.262884    -0.006584    Cartesian   -0.06
    343 x         11.269468     11.268076    -0.001392    Cartesian   -0.01
    343 y         -2.253894     -2.249699     0.004195    Cartesian   -0.19
    343 z         -2.253894     -2.233226     0.020668    Cartesian   -0.92
    344 x          9.015574      9.044320     0.028745    Cartesian    0.32
    344 y         -4.507787     -4.523234    -0.015447    Cartesian    0.34
    344 z         -4.507787     -4.530814    -0.023026    Cartesian    0.51
    345 x          4.507787      4.511826     0.004039    Cartesian    0.09
    345 y          0.000000     -0.005120    -0.005120    Cartesian    0.00
    345 z         -9.015574     -9.033947    -0.018373    Cartesian    0.20
    346 x          4.507787      4.487815    -0.019972    Cartesian   -0.44
    346 y         -9.015574     -9.050124    -0.034549    Cartesian    0.38
    346 z          0.000000     -0.001044    -0.001044    Cartesian    0.00
    347 x          9.015574      9.043972     0.028397    Cartesian    0.31
    347 y          0.000000     -0.006001    -0.006001    Cartesian    0.00
    347 z          9.015574      9.083772     0.068197    Cartesian    0.76
    348 x          9.015574      9.063051     0.047477    Cartesian    0.53
    348 y          9.015574      9.028366     0.012791    Cartesian    0.14
    348 z          0.000000      0.009455     0.009455    Cartesian    0.00
    349 x          6.761681      6.768425     0.006744    Cartesian    0.10
    349 y          6.761681      6.749720    -0.011961    Cartesian   -0.18
    349 z         -6.761681     -6.762424    -0.000743    Cartesian    0.01
    350 x          6.761681      6.763281     0.001601    Cartesian    0.02
    350 y         -6.761681     -6.728956     0.032725    Cartesian   -0.48
    350 z          6.761681      6.765702     0.004021    Cartesian    0.06
    351 x         11.269468     11.263692    -0.005776    Cartesian   -0.05
    351 y          2.253894      2.235767    -0.018126    Cartesian   -0.80
    351 z          6.761681      6.738938    -0.022742    Cartesian   -0.34
    352 x         11.269468     11.265925    -0.003543    Cartesian   -0.03
    352 y          6.761681      6.732693    -0.028988    Cartesian   -0.43
    352 z          2.253894      2.259351     0.005458    Cartesian    0.24
    353 x          2.253894      2.253894     0.000000    Cartesian    0.00
    353 y         11.269468     11.229012    -0.040456    Cartesian   -0.36
    353 z         -2.253894     -2.242871     0.011022    Cartesian   -0.49
    354 x          2.253894      2.253894     0.000000    Cartesian    0.00
    354 y         -2.253894     -2.250018     0.003875    Cartesian   -0.17
    354 z         11.269468     11.265466    -0.004002    Cartesian   -0.04
    355 x          4.507787      4.471456    -0.036331    Cartesian   -0.81
    355 y          4.507787      4.484454    -0.023333    Cartesian   -0.52
    355 z         -9.015574     -9.053522    -0.037947    Cartesian    0.42
    356 x          4.507787      4.541407     0.033620    Cartesian    0.75
    356 y         -9.015574     -9.045977    -0.030403    Cartesian    0.34
    356 z          4.507787      4.523200     0.015413    Cartesian    0.34
    357 x          9.015574      9.046476     0.030901    Cartesian    0.34
    357 y          9.015574      9.052145     0.036570    Cartesian    0.41
    357 z          4.507787      4.522280     0.014493    Cartesian    0.32
    358 x          9.015574      9.031455     0.015881    Cartesian    0.18
    358 y          4.507787      4.507460    -0.000328    Cartesian   -0.01
    358 z          9.015574      9.039991     0.024416    Cartesian    0.27
    359 x         11.269468     11.268415    -0.001053    Cartesian   -0.01
    359 y         -2.253894     -2.238708     0.015186    Cartesian   -0.67
    359 z          6.761681      6.745881    -0.015800    Cartesian   -0.23
    360 x         -2.253894     -2.252672     0.001222    Cartesian   -0.05
    360 y         11.269468     11.253912    -0.015556    Cartesian   -0.14
    360 z          2.253894      2.270688     0.016794    Cartesian    0.75
    361 x          2.253894      2.253894     0.000000    Cartesian    0.00
    361 y         -6.761681     -6.765643    -0.003963    Cartesian    0.06
    361 z         -6.761681     -6.723974     0.037707    Cartesian   -0.56
    362 x          6.761681      6.768115     0.006434    Cartesian    0.10
    362 y          2.253894      2.235314    -0.018579    Cartesian   -0.82
    362 z         11.269468     11.253576    -0.015892    Cartesian   -0.14
    363 x         11.269468     11.270243     0.000775    Cartesian    0.01
    363 y          6.761681      6.738294    -0.023387    Cartesian   -0.35
    363 z         -2.253894     -2.246464     0.007429    Cartesian   -0.33
    364 x         13.523362     13.593814     0.070452    Cartesian    0.52
    364 y          0.000000     -0.000011    -0.000011    Cartesian    0.00
    364 z          0.000000      0.009210     0.009210    Cartesian    0.00
    365 x          4.507787      4.514498     0.006710    Cartesian    0.15
    365 y          9.015574      9.043124     0.027549    Cartesian    0.31
    365 z          9.015574      9.070276     0.054702    Cartesian    0.61
    366 x          2.253894      2.253894     0.000000    Cartesian    0.00
    366 y          6.761681      6.770743     0.009062    Cartesian    0.13
    366 z         11.269468     11.250597    -0.018871    Cartesian   -0.17
    367 x          2.253894      2.253894     0.000000    Cartesian    0.00
    367 y         11.269468     11.257987    -0.011482    Cartesian   -0.10
    367 z          6.761681      6.733805    -0.027876    Cartesian   -0.41
    368 x         -2.253894     -2.254437    -0.000544    Cartesian    0.02
    368 y         11.269468     11.255654    -0.013814    Cartesian   -0.12
    368 z         -2.253894     -2.264546    -0.010652    Cartesian    0.47
    369 x          6.761681      6.762408     0.000727    Cartesian    0.01
    369 y         -2.253894     -2.233488     0.020405    Cartesian   -0.91
    369 z         11.269468     11.255093    -0.014375    Cartesian   -0.13
    370 x         13.523362     13.582979     0.059617    Cartesian    0.44
    370 y          0.000000     -0.009816    -0.009816    Cartesian    0.00
    370 z          4.507787      4.527170     0.019383    Cartesian    0.43
    371 x         13.523362     13.584525     0.061163    Cartesian    0.45
    371 y          4.507787      4.482658    -0.025129    Cartesian   -0.56
    371 z          0.000000     -0.004015    -0.004015    Cartesian    0.00
    372 x          4.507787      4.511200     0.003413    Cartesian    0.08
    372 y         -4.507787     -4.542535    -0.034748    Cartesian    0.77
    372 z         -9.015574     -9.052791    -0.037217    Cartesian    0.41
    373 x          4.507787      4.522358     0.014571    Cartesian    0.32
    373 y         -9.015574     -9.059197    -0.043623    Cartesian    0.48
    373 z         -4.507787     -4.518432    -0.010645    Cartesian    0.24
    374 x          9.015574      9.048714     0.033139    Cartesian    0.37
    374 y          9.015574      9.060930     0.045356    Cartesian    0.50
    374 z         -4.507787     -4.502772     0.005015    Cartesian   -0.11
    375 x          9.015574      9.025235     0.009661    Cartesian    0.11
    375 y         -4.507787     -4.534119    -0.026332    Cartesian    0.58
    375 z          9.015574      9.029193     0.013618    Cartesian    0.15
    376 x         11.269468     11.268942    -0.000526    Cartesian   -0.00
    376 y          6.761681      6.762103     0.000423    Cartesian    0.01
    376 z          6.761681      6.752143    -0.009537    Cartesian   -0.14
    377 x         11.269468     11.272806     0.003338    Cartesian    0.03
    377 y         -6.761681     -6.750121     0.011560    Cartesian   -0.17
    377 z          2.253894      2.270612     0.016719    Cartesian    0.74
    378 x          6.761681      6.765768     0.004087    Cartesian    0.06
    378 y         -6.761681     -6.747657     0.014024    Cartesian   -0.21
    378 z         -6.761681     -6.769762    -0.008081    Cartesian    0.12
    379 x         11.269468     11.268340    -0.001128    Cartesian   -0.01
    379 y          2.253894      2.240360    -0.013534    Cartesian   -0.60
    379 z         -6.761681     -6.746072     0.015609    Cartesian   -0.23
    380 x         13.523362     13.558401     0.035039    Cartesian    0.26
    380 y          4.507787      4.523766     0.015979    Cartesian    0.35
    380 z          4.507787      4.507661    -0.000127    Cartesian   -0.00
    381 x          9.015574      9.016385     0.000810    Cartesian    0.01
    381 y         -9.015574     -9.011373     0.004201    Cartesian   -0.05
    381 z          0.000000      0.004423     0.004423    Cartesian    0.00
    382 x          9.015574      9.042449     0.026874    Cartesian    0.30
    382 y          0.000000     -0.008066    -0.008066    Cartesian    0.00
    382 z         -9.015574     -9.101860    -0.086286    Cartesian    0.96
    383 x          2.253894      2.253894     0.000000    Cartesian    0.00
    383 y          2.253894      2.260813     0.006920    Cartesian    0.31
    383 z        -11.269468    -11.273319    -0.003851    Cartesian    0.03
    384 x          2.253894      2.253894     0.000000    Cartesian    0.00
    384 y        -11.269468    -11.263170     0.006298    Cartesian   -0.06
    384 z          2.253894      2.235869    -0.018025    Cartesian   -0.80
    385 x         11.269468     11.274806     0.005337    Cartesian    0.05
    385 y         -6.761681     -6.749760     0.011921    Cartesian   -0.18
    385 z         -2.253894     -2.260169    -0.006275    Cartesian    0.28
    386 x         -2.253894     -2.255672    -0.001778    Cartesian    0.08
    386 y         11.269468     11.270323     0.000855    Cartesian    0.01
    386 z          6.761681      6.756987    -0.004694    Cartesian   -0.07
    387 x          6.761681      6.765090     0.003410    Cartesian    0.05
    387 y          6.761681      6.768047     0.006366    Cartesian    0.09
    387 z         11.269468     11.262209    -0.007259    Cartesian   -0.06
    388 x         11.269468     11.271004     0.001536    Cartesian    0.01
    388 y         -2.253894     -2.246156     0.007737    Cartesian   -0.34
    388 z         -6.761681     -6.760708     0.000973    Cartesian   -0.01
    389 x         13.523362     13.556782     0.033421    Cartesian    0.25
    389 y          0.000000     -0.008435    -0.008435    Cartesian    0.00
    389 z         -4.507787     -4.526967    -0.019179    Cartesian    0.43
    390 x         13.523362     13.578732     0.055371    Cartesian    0.41
    390 y         -4.507787     -4.508921    -0.001134    Cartesian    0.03
    390 z          0.000000      0.005879     0.005879    Cartesian    0.00
    391 x          4.507787      4.555598     0.047811    Cartesian    1.06
    391 y          0.000000     -0.010332    -0.010332    Cartesian    0.00
    391 z         13.523362     13.557384     0.034022    Cartesian    0.25
    392 x          4.507787      4.471254    -0.036533    Cartesian   -0.81
    392 y         13.523362     13.592170     0.068808    Cartesian    0.51
    392 z          0.000000      0.002794     0.002794    Cartesian    0.00
    393 x          9.015574      9.043043     0.027468    Cartesian    0.30
    393 y         -9.015574     -9.086759    -0.071184    Cartesian    0.79
    393 z          4.507787      4.507311    -0.000476    Cartesian   -0.01
    394 x          9.015574      9.012583    -0.002992    Cartesian   -0.03
    394 y          4.507787      4.517439     0.009652    Cartesian    0.21
    394 z         -9.015574     -9.031087    -0.015512    Cartesian    0.17
    395 x          2.253894      2.253894     0.000000    Cartesian    0.00
    395 y         -2.253894     -2.273590    -0.019696    Cartesian    0.87
    395 z        -11.269468    -11.250626     0.018842    Cartesian   -0.17
    396 x          2.253894      2.253894     0.000000    Cartesian    0.00
    396 y        -11.269468    -11.274726    -0.005258    Cartesian    0.05
    396 z         -2.253894     -2.241481     0.012413    Cartesian   -0.55
    397 x          2.253894      2.253894     0.000000    Cartesian    0.00
    397 y         11.269468     11.288632     0.019164    Cartesian    0.17
    397 z         -6.761681     -6.750461     0.011220    Cartesian   -0.17
    398 x          2.253894      2.253894     0.000000    Cartesian    0.00
    398 y         -6.761681     -6.770785    -0.009105    Cartesian    0.13
    398 z         11.269468     11.263996    -0.005472    Cartesian   -0.05
--------------------------------------------------------------------------------


  Time to end of optimisation  =      194.9003 seconds


  Peak dynamic memory used =     144.25 MB 


  Timing analysis for GULP :

--------------------------------------------------------------------------------
  Task / Subroutine                                          Time (Seconds)
--------------------------------------------------------------------------------
  Calculation of reciprocal space energy and derivatives          0.0002
  Calculation of reciprocal space energy using symmetry           0.0003
  Calculation of real space energy and derivatives                0.0012
  Calculation of real space energy using symmetry                 0.0028
  Calculation for region 1 energy and derivatives (2-b)          66.5454
  Calculation for region 2a energy                              122.1218
  Calculation for region 2b energy                                0.0181
  Calculation and manipulation of Hessian matrix                  0.2308
  Calculation of matrix inversion                                 5.5071
  Symmetry generation of equivalent positions                     0.0016
--------------------------------------------------------------------------------
  Total CPU time                                                194.9004
--------------------------------------------------------------------------------


  Dump file written as Na3OCl.grs


  Job Finished at 18:04.47  3rd December   2020                               

