********************************************************************************
*                       GENERAL UTILITY LATTICE PROGRAM                        *
*                                 Julian Gale                                  *
*                       Curtin Institute for Computation                       *
*                    School of Molecular and Life Sciences                     *
*                    Curtin University, Western Australia                      *
********************************************************************************
* Version = 5.2.0 * Last modified =  10th September 2020                       *
********************************************************************************
*  optimise     - perform optimisation run                                     *
*  conp         - constant pressure calculation                                *
*  property     - calculate properties for final geometry                      *
*  defect       - perform defect calculation after bulk run                    *
*  compare      - compare initial and final structures                         *
********************************************************************************

  Job Started  at 18:11.49  3rd December   2020                               

  Number of CPUs =     1


  Total number of configurations input =      1

********************************************************************************
*  Input for Configuration =   1                                               *
********************************************************************************

  Formula = ClONa3                                                      

  Number of irreducible atoms/shells =       5


  Total number atoms/shells =       7

  Dimensionality = 3               :  Bulk   


  Symmetry :

  Crystal family                   :  Cubic       
  Crystal class  (Groth - 1921)    :  Cubic Hexakisoctahedral              

  Space group (centrosymmetric)    :  P M 3 M         

  Patterson group                  :  P m -3 m 

  Cartesian lattice vectors (Angstroms) :

        4.504000    0.000000    0.000000
        0.000000    4.504000    0.000000
        0.000000    0.000000    4.504000

  Cell parameters (Angstroms/Degrees):

  a =       4.5040    alpha =  90.0000
  b =       4.5040    beta  =  90.0000
  c =       4.5040    gamma =  90.0000

  Initial cell volume =          91.368216 Angs**3

  Temperature of configuration =   0.00     K 

  Pressure of configuration =         0.000 GPa 

  Fractional coordinates of asymmetric unit :

--------------------------------------------------------------------------------
   No.  Atomic       x           y          z         Charge      Occupancy
        Label      (Frac)      (Frac)     (Frac)        (e)         (Frac)  
--------------------------------------------------------------------------------
      1 Cl    c    0.000000    0.000000    0.000000     1.48500    1.000000    
      2 O     c    0.500000    0.500000    0.500000     0.18300    1.000000    
      3 Na    c    0.500000    0.500000    0.000000     1.00000    1.000000    
      4 Cl    s    0.000000    0.000000    0.000000    -2.48500    1.000000    
      5 O     s    0.500000    0.500000    0.500000    -2.18300    1.000000    
--------------------------------------------------------------------------------


  Constraints : 

--------------------------------------------------------------------------------
  Constraint no.      Unconstrained     Constrained    Coefficient    Offset
                         Variable         Variable
--------------------------------------------------------------------------------
           1              Strain 1        Strain 2       1.00000      0.0000
           2              Strain 1        Strain 3       1.00000      0.0000
--------------------------------------------------------------------------------


********************************************************************************
*  General input information                                                   *
********************************************************************************

  Species output for all configurations : 

--------------------------------------------------------------------------------
  Species    Type    Atomic    Atomic    Charge       Radii (Angs)     Library
                     Number     Mass       (e)     Cova   Ionic  VDW   Symbol
--------------------------------------------------------------------------------
    Na       Core       11      22.99   1.000000   0.970  0.000  2.300          
    O        Core        8      16.00   0.183000   0.730  0.000  1.360          
    O        Shell       8       0.00  -2.183000   0.730  0.000  0.000          
    Cl       Core       17      35.45   1.485000   0.990  0.000  1.650          
    Cl       Shell      17       0.00  -2.485000   0.990  0.000  0.000          
    Mg       Core       12      24.31   0.415000   1.100  0.000  0.000          
    Mg       Shell      12       0.00   1.585000   1.100  0.000  0.000          
    Ca       Core       20      40.08  -1.135000   0.990  0.000  0.000          
    Ca       Shell      20       0.00   3.135000   0.990  0.000  0.000          
    Sr       Core       38      87.62  -1.251000   1.120  0.000  0.000          
    Sr       Shell      38       0.00   3.251000   1.120  0.000  0.000          
    Ba       Core       56     137.33  -7.203000   1.340  0.000  0.000          
    Ba       Shell      56       0.00   9.203000   1.340  0.000  0.000          
--------------------------------------------------------------------------------


  Lattice summation method               =    Ewald          (3-D)
                                         =    Parry          (2-D)
                                         =    Saunders et al (1-D)
  Accuracy factor for lattice sums       =   12.000


  Analytic derivatives to be used

  Time limit = Infinity

  Maximum range for interatomic potentials =    100000.000000 Angstroms

  General interatomic potentials :

--------------------------------------------------------------------------------
Atom  Types   Potential      Parameter       Value         Units   Cutoffs(Ang)
  1     2                                                            Min /  Max 
--------------------------------------------------------------------------------
O    c O    s Spring (c-s)  Spring k 2       593.71600    eV*Ang^-2 0.000  0.800
                            Spring k 4       0.0000000    eV*Ang^-4 
--------------------------------------------------------------------------------
Cl   c Cl   s Spring (c-s)  Spring k 2       29.380000    eV*Ang^-2 0.000  0.800
                            Spring k 4       0.0000000    eV*Ang^-4 
--------------------------------------------------------------------------------
Mg   c Mg   s Spring (c-s)  Spring k 2       361.60000    eV*Ang^-2 0.000  0.800
                            Spring k 4       0.0000000    eV*Ang^-4 
--------------------------------------------------------------------------------
Ca   c Ca   s Spring (c-s)  Spring k 2       110.20000    eV*Ang^-2 0.000  0.800
                            Spring k 4       0.0000000    eV*Ang^-4 
--------------------------------------------------------------------------------
Sr   c Sr   s Spring (c-s)  Spring k 2       71.700000    eV*Ang^-2 0.000  0.800
                            Spring k 4       0.0000000    eV*Ang^-4 
--------------------------------------------------------------------------------
Ba   c Ba   s Spring (c-s)  Spring k 2       495.20000    eV*Ang^-2 0.000  0.800
                            Spring k 4       0.0000000    eV*Ang^-4 
--------------------------------------------------------------------------------
Na   c Na   c Buckingham    Buckingham A     1788.1900    eV        0.000 12.000
                            Buckingham rho  0.15900000    Ang       
                            Buckingham C     0.0000000    eV*Ang^6  
--------------------------------------------------------------------------------
Na   c O    s Buckingham    Buckingham A     1226.8400    eV        0.000 12.000
                            Buckingham rho  0.30700000    Ang       
                            Buckingham C     0.0000000    eV*Ang^6  
--------------------------------------------------------------------------------
Na   c Cl   s Buckingham    Buckingham A     2314.7000    eV        0.000 12.000
                            Buckingham rho  0.29000000    Ang       
                            Buckingham C     0.0000000    eV*Ang^6  
--------------------------------------------------------------------------------
O    s O    s Buckingham    Buckingham A     22764.300    eV        0.000 12.000
                            Buckingham rho  0.14900000    Ang       
                            Buckingham C     13.190000    eV*Ang^6  
--------------------------------------------------------------------------------
O    s Cl   s Buckingham    Buckingham A     8286.9100    eV        0.000 12.000
                            Buckingham rho  0.25900000    Ang       
                            Buckingham C     62.200000    eV*Ang^6  
--------------------------------------------------------------------------------
Cl   s Cl   s Buckingham    Buckingham A     1227.2000    eV        0.000 12.000
                            Buckingham rho  0.32100000    Ang       
                            Buckingham C     14.530000    eV*Ang^6  
--------------------------------------------------------------------------------
O    s Mg   s Buckingham    Buckingham A     1428.5000    eV        0.000 12.000
                            Buckingham rho  0.29450000    Ang       
                            Buckingham C     0.0000000    eV*Ang^6  
--------------------------------------------------------------------------------
Mg   s Cl   s Buckingham    Buckingham A     4914.5400    eV        0.000 12.000
                            Buckingham rho  0.25700000    Ang       
                            Buckingham C     0.0000000    eV*Ang^6  
--------------------------------------------------------------------------------
O    s Ca   s Buckingham    Buckingham A     1090.4000    eV        0.000 12.000
                            Buckingham rho  0.34370000    Ang       
                            Buckingham C     0.0000000    eV*Ang^6  
--------------------------------------------------------------------------------
Cl   s Ca   s Buckingham    Buckingham A     2302.0000    eV        0.000 12.000
                            Buckingham rho  0.34020000    Ang       
                            Buckingham C     0.0000000    eV*Ang^6  
--------------------------------------------------------------------------------
O    s Sr   s Buckingham    Buckingham A     959.10000    eV        0.000 12.000
                            Buckingham rho  0.37210000    Ang       
                            Buckingham C     0.0000000    eV*Ang^6  
--------------------------------------------------------------------------------
Cl   s Sr   s Buckingham    Buckingham A     2191.0900    eV        0.000 12.000
                            Buckingham rho  0.34570000    Ang       
                            Buckingham C     0.0000000    eV*Ang^6  
--------------------------------------------------------------------------------
O    s Ba   s Buckingham    Buckingham A     905.70000    eV        0.000 12.000
                            Buckingham rho  0.39760000    Ang       
                            Buckingham C     0.0000000    eV*Ang^6  
--------------------------------------------------------------------------------
Cl   s Ba   s Buckingham    Buckingham A     2704.5500    eV        0.000 12.000
                            Buckingham rho  0.35280000    Ang       
                            Buckingham C     0.0000000    eV*Ang^6  
--------------------------------------------------------------------------------

********************************************************************************
*  Output for configuration   1                                                *
********************************************************************************


  Components of energy : 

--------------------------------------------------------------------------------
  Interatomic potentials     =           5.13022605 eV    
  Monopole - monopole (real) =         -10.03624526 eV    
  Monopole - monopole (recip)=         -29.53581274 eV    
  Monopole - monopole (total)=         -39.57205800 eV    
--------------------------------------------------------------------------------
  Total lattice energy       =         -34.44183194 eV    
--------------------------------------------------------------------------------
  Total lattice energy       =           -3323.1103 kJ/(mole unit cells)
--------------------------------------------------------------------------------


  Number of variables =        1

  Maximum number of calculations  =          1000
  Maximum Hessian update interval =            10
  Maximum step size               =   1.000000000
  Maximum parameter tolerance     =   0.000010000
  Maximum function  tolerance     =   0.000010000
  Maximum gradient  tolerance     =   0.001000000
  Maximum gradient  component     =   0.010000000

  Symmetry constrained optimisation

  Symmetry used for second derivatives

  Cell parameters to be optimised using strains

  Newton-Raphson optimiser to be used

  BFGS hessian update to be used

  Lower half triangular hessian to be used

  Start of bulk optimisation :

  Cycle:      0 Energy:       -34.441832  Gnorm:      0.196570  CPU:    0.015
  ** Hessian calculated **
  Cycle:      1 Energy:       -34.441914  Gnorm:      0.000103  CPU:    0.018


  **** Optimisation achieved ****


  Final energy =     -34.44191447 eV
  Final Gnorm  =       0.00000000

  Components of energy : 

--------------------------------------------------------------------------------
  Interatomic potentials     =           5.09689708 eV    
  Monopole - monopole (real) =         -10.02781331 eV    
  Monopole - monopole (recip)=         -29.51099824 eV    
  Monopole - monopole (total)=         -39.53881155 eV    
--------------------------------------------------------------------------------
  Total lattice energy       =         -34.44191447 eV    
--------------------------------------------------------------------------------
  Total lattice energy       =           -3323.1183 kJ/(mole unit cells)
--------------------------------------------------------------------------------

  Final asymmetric unit coordinates :

--------------------------------------------------------------------------------
   No.  Atomic        x           y           z         Radius
        Label       (Frac)      (Frac)      (Frac)       (Angs) 
--------------------------------------------------------------------------------
     1  Cl    c     0.000000    0.000000    0.000000    0.000000
     2  O     c     0.500000    0.500000    0.500000    0.000000
     3  Na    c     0.500000    0.500000    0.000000    0.000000
     4  Cl    s     0.000000    0.000000    0.000000    0.000000
     5  O     s     0.500000    0.500000    0.500000    0.000000
--------------------------------------------------------------------------------

  Final Cartesian lattice vectors (Angstroms) :

        4.507787    0.000000    0.000000
        0.000000    4.507787    0.000000
        0.000000    0.000000    4.507787


  Final cell parameters and derivatives :

--------------------------------------------------------------------------------
       a            4.507787 Angstrom     dE/de1(xx)     0.000000 eV/strain
       b            4.507787 Angstrom     dE/de2(yy)     0.000000 eV/strain
       c            4.507787 Angstrom     dE/de3(zz)     0.000000 eV/strain
       alpha       90.000000 Degrees      dE/de4(yz)     0.000000 eV/strain
       beta        90.000000 Degrees      dE/de5(xz)     0.000000 eV/strain
       gamma       90.000000 Degrees      dE/de6(xy)     0.000000 eV/strain
--------------------------------------------------------------------------------

  Primitive cell volume =            91.598892 Angs**3

  Density of cell =      2.183054 g/cm**3

  Non-primitive cell volume =            91.598892 Angs**3


  Final internal derivatives :

--------------------------------------------------------------------------------
   No.  Atomic          a             b             c           Radius
        Label          (eV)          (eV)          (eV)        (eV/Angs)
--------------------------------------------------------------------------------
      1 Cl    c       0.000000      0.000000      0.000000      0.000000
      2 O     c       0.000000      0.000000      0.000000      0.000000
      3 Na    c       0.000000      0.000000      0.000000      0.000000
      4 Cl    s       0.000000      0.000000      0.000000      0.000000
      5 O     s       0.000000      0.000000      0.000000      0.000000
--------------------------------------------------------------------------------
  Maximum abs         0.000000      0.000000      0.000000      0.000000
--------------------------------------------------------------------------------

  Comparison of initial and final structures : 

--------------------------------------------------------------------------------
  Parameter   Initial value   Final value   Difference    Units      Percent
--------------------------------------------------------------------------------
    Volume        91.368216     91.598892     0.230676    Angs**3      0.25
    a              4.504000      4.507787     0.003787    Angstroms    0.08
    b              4.504000      4.507787     0.003787    Angstroms    0.08
    c              4.504000      4.507787     0.003787    Angstroms    0.08
    alpha         90.000000     90.000000     0.000000    Degrees      0.00
    beta          90.000000     90.000000     0.000000    Degrees      0.00
    gamma         90.000000     90.000000     0.000000    Degrees      0.00
      1 x          0.000000      0.000000     0.000000    Fractional   0.00
      1 y          0.000000      0.000000     0.000000    Fractional   0.00
      1 z          0.000000      0.000000     0.000000    Fractional   0.00
      2 x          0.500000      0.500000     0.000000    Fractional   0.00
      2 y          0.500000      0.500000     0.000000    Fractional   0.00
      2 z          0.500000      0.500000     0.000000    Fractional   0.00
      3 x          0.500000      0.500000     0.000000    Fractional   0.00
      3 y          0.500000      0.500000     0.000000    Fractional   0.00
      3 z          0.000000      0.000000     0.000000    Fractional   0.00
      4 x          0.000000      0.000000     0.000000    Fractional   0.00
      4 y          0.000000      0.000000     0.000000    Fractional   0.00
      4 z          0.000000      0.000000     0.000000    Fractional   0.00
      5 x          0.500000      0.500000     0.000000    Fractional   0.00
      5 y          0.500000      0.500000     0.000000    Fractional   0.00
      5 z          0.500000      0.500000     0.000000    Fractional   0.00
--------------------------------------------------------------------------------


  Born effective charge tensors : 

-------------------------------------------------------------------------------
  Atom             x           y             z
-------------------------------------------------------------------------------
    1 Cl    x      -1.0181     -0.0000      0.0000
            y      -0.0000     -1.0181      0.0000
            z       0.0000      0.0000     -1.0181
-------------------------------------------------------------------------------
    2 O     x      -2.2647      0.0000     -0.0000
            y       0.0000     -2.2647     -0.0000
            z      -0.0000     -0.0000     -2.2647
-------------------------------------------------------------------------------
    3 Na    x       1.2258     -0.0000      0.0000
            y      -0.0000      1.2258     -0.0000
            z       0.0000     -0.0000      0.8313
-------------------------------------------------------------------------------




  Elastic Constant Matrix: (Units=GPa)

-------------------------------------------------------------------------------
  Indices      1         2         3         4         5         6    
-------------------------------------------------------------------------------
       1     95.8177   20.0737   20.0737   -0.0000   -0.0000    0.0000
       2     20.0737   95.8177   20.0737   -0.0000   -0.0000    0.0000
       3     20.0737   20.0737   95.8177   -0.0000   -0.0000    0.0000
       4     -0.0000   -0.0000   -0.0000   20.0737   -0.0000    0.0000
       5     -0.0000   -0.0000   -0.0000   -0.0000   20.0737    0.0000
       6      0.0000    0.0000    0.0000    0.0000    0.0000   20.0737
-------------------------------------------------------------------------------


  Elastic Compliance Matrix: (Units=1/GPa)

-------------------------------------------------------------------------------
  Indices      1         2         3         4         5         6    
-------------------------------------------------------------------------------
       1    0.011253 -0.001949 -0.001949  0.000000  0.000000 -0.000000
       2   -0.001949  0.011253 -0.001949  0.000000  0.000000  0.000000
       3   -0.001949 -0.001949  0.011253  0.000000  0.000000 -0.000000
       4    0.000000  0.000000  0.000000  0.049816  0.000000 -0.000000
       5    0.000000  0.000000  0.000000  0.000000  0.049816 -0.000000
       6   -0.000000  0.000000 -0.000000 -0.000000 -0.000000  0.049816
-------------------------------------------------------------------------------

  Mechanical properties :

-------------------------------------------------------------------------------
  Convention :                    Reuss         Voigt         Hill
-------------------------------------------------------------------------------
  Bulk  Modulus (GPa)     =      45.32174      45.32174      45.32174
  Shear Modulus (GPa)     =      24.72085      27.19304      25.95695
-------------------------------------------------------------------------------
  Velocity S-wave (km/s)  =       3.36511       3.52937       3.44822
  Velocity P-wave (km/s)  =       5.98827       6.11304       6.05098
-------------------------------------------------------------------------------
  Compressibility (1/GPa) =    0.02206447
-------------------------------------------------------------------------------
  Stress axis :                     x             y             z
-------------------------------------------------------------------------------
  Youngs Moduli (GPa)     =      88.86373      88.86373      88.86373
-------------------------------------------------------------------------------
  Poissons Ratio (x)      =                     0.17321       0.17321
  Poissons Ratio (y)      =       0.17321                     0.17321
  Poissons Ratio (z)      =       0.17321       0.17321
-------------------------------------------------------------------------------


  Piezoelectric Strain Matrix: (Units=C/m**2)

-------------------------------------------------------------------------------
  Indices      1         2         3         4         5         6    
-------------------------------------------------------------------------------
       x    -0.00000  -0.00000  -0.00000   0.00000  -0.00000  -0.00000
       y    -0.00000  -0.00000   0.00000  -0.00000   0.00000   0.00000
       z    -0.00000  -0.00000  -0.00000  -0.00000   0.00000   0.00000
-------------------------------------------------------------------------------


  Piezoelectric Stress Matrix: (Units=10**-11 C/N)

-------------------------------------------------------------------------------
  Indices      1         2         3         4         5         6    
-------------------------------------------------------------------------------
       x    -0.00000   0.00000   0.00000   0.00000  -0.00000  -0.00000
       y    -0.00000  -0.00000   0.00000  -0.00000   0.00000   0.00000
       z     0.00000   0.00000  -0.00000  -0.00000   0.00000   0.00000
-------------------------------------------------------------------------------


  Static dielectric constant tensor : 

-------------------------------------------------------------------------------
              x         y         z
-------------------------------------------------------------------------------
       x    22.84729   0.00000   0.00000
       y     0.00000  22.84729  -0.00000
       z     0.00000  -0.00000  22.84729
--------------------------------------------------------------------------------

  High frequency dielectric constant tensor : 

-------------------------------------------------------------------------------
              x         y         z
-------------------------------------------------------------------------------
       x     1.47557   0.00000  -0.00000
       y     0.00000   1.47557  -0.00000
       z    -0.00000  -0.00000   1.47557
-------------------------------------------------------------------------------

  Static refractive indices : 

-------------------------------------------------------------------------------
    1 =    4.77988      2 =    4.77988      3 =    4.77988
-------------------------------------------------------------------------------

  High frequency refractive indices : 

-------------------------------------------------------------------------------
    1 =    1.21473      2 =    1.21473      3 =    1.21473
-------------------------------------------------------------------------------


  Time to end of optimisation =       0.0271 seconds

********************************************************************************
*  Defect calculation for configuration   1 :                                  *
********************************************************************************

  Total number of defects =      3

  Total charge on defect  =  -1.00

  Defect centre is at   0.5000   0.2500   0.2500  Frac

  Region 1 radius =  13.0000      Number of ions =    685

  Number of symmetry inequivalent region 1 ions  =    398

  Region 2 radius =  21.0000      Number of ions =   2280

  Number of symmetry inequivalent region 2a ions =   1222

  Region 2a mode = 4 : screened electrostatics due to region 1 
                       neglect correction to region 1 forces from 2a
                       region 2a displacements based on defects only

  Region 2a ions will only interact with defects in region 1

  Vacancies:

--------------------------------------------------------------------------------
    Specification type     Symbol/Number         x          y          z
--------------------------------------------------------------------------------
    Fractional                               0.500000   0.500000   0.000000
    Fractional                               0.500000   0.000000   0.500000
--------------------------------------------------------------------------------

  Interstitials:

--------------------------------------------------------------------------------
    Specification type     Symbol/Number         x          y          z
--------------------------------------------------------------------------------
    Atom/Fractional         Na               0.500000   0.240000   0.260000
--------------------------------------------------------------------------------


  Symmetry reduced region 1 (Relative to defect centre) :

--------------------------------------------------------------------------------
   No.   Atomic       x            y             z       Radius  Multiplicity   
         Label      (Angs)       (Angs)        (Angs)    (Angs)     
--------------------------------------------------------------------------------
     1  Na    c      0.0000      -0.0451       0.0451    0.0000     1    Defect
     2  O     c      0.0000       1.1269 *     1.1269 *  0.0000     1          
     3  Cl    c      2.2539 *    -1.1269 *    -1.1269 *  0.0000     2          
     4  Na    c      2.2539 *     1.1269 *     1.1269 *  0.0000     2          
     5  O     c      0.0000       1.1269 *    -3.3808 *  0.0000     1          
     6  O     c      0.0000      -3.3808 *     1.1269 *  0.0000     1          
     7  Na    c      0.0000       1.1269 *     3.3808 *  0.0000     1          
     8  Na    c      0.0000      -3.3808 *    -1.1269 *  0.0000     1          
     9  Na    c      0.0000      -1.1269 *    -3.3808 *  0.0000     1          
    10  Na    c      0.0000       3.3808 *     1.1269 *  0.0000     1          
    11  Cl    c      2.2539 *    -1.1269 *     3.3808 *  0.0000     2          
    12  Cl    c      2.2539 *     3.3808 *    -1.1269 *  0.0000     2          
    13  Na    c      2.2539 *     1.1269 *    -3.3808 *  0.0000     2          
    14  Na    c      2.2539 *    -3.3808 *     1.1269 *  0.0000     2          
    15  O     c     -4.5078 *     1.1269 *     1.1269 *  0.0000     2          
    16  Na    c     -4.5078 *     1.1269 *    -1.1269 *  0.0000     2          
    17  Na    c     -4.5078 *    -1.1269 *     1.1269 *  0.0000     2          
    18  O     c      0.0000      -3.3808 *    -3.3808 *  0.0000     1          
    19  Na    c      0.0000      -3.3808 *     3.3808 *  0.0000     1          
    20  Na    c      0.0000       3.3808 *    -3.3808 *  0.0000     1          
    21  Cl    c      2.2539 *     3.3808 *     3.3808 *  0.0000     2          
    22  Na    c      2.2539 *    -3.3808 *    -3.3808 *  0.0000     2          
    23  O     c      0.0000       1.1269 *     5.6347 *  0.0000     1          
    24  O     c      0.0000       5.6347 *     1.1269 *  0.0000     1          
    25  Na    c      0.0000       1.1269 *    -5.6347 *  0.0000     1          
    26  Na    c      0.0000       5.6347 *    -1.1269 *  0.0000     1          
    27  Na    c      0.0000      -1.1269 *     5.6347 *  0.0000     1          
    28  Na    c      0.0000      -5.6347 *     1.1269 *  0.0000     1          
    29  O     c     -4.5078 *     1.1269 *    -3.3808 *  0.0000     2          
    30  O     c     -4.5078 *    -3.3808 *     1.1269 *  0.0000     2          
    31  Na    c     -4.5078 *     1.1269 *     3.3808 *  0.0000     2          
    32  Na    c     -4.5078 *    -3.3808 *    -1.1269 *  0.0000     2          
    33  Na    c     -4.5078 *    -1.1269 *    -3.3808 *  0.0000     2          
    34  Na    c     -4.5078 *     3.3808 *     1.1269 *  0.0000     2          
    35  Cl    c      2.2539 *    -1.1269 *    -5.6347 *  0.0000     2          
    36  Cl    c      2.2539 *    -5.6347 *    -1.1269 *  0.0000     2          
    37  Na    c      2.2539 *     1.1269 *     5.6347 *  0.0000     2          
    38  Na    c      2.2539 *     5.6347 *     1.1269 *  0.0000     2          
    39  O     c      0.0000       5.6347 *    -3.3808 *  0.0000     1          
    40  O     c      0.0000      -3.3808 *     5.6347 *  0.0000     1          
    41  Na    c      0.0000       5.6347 *     3.3808 *  0.0000     1          
    42  Na    c      0.0000      -3.3808 *    -5.6347 *  0.0000     1          
    43  Na    c      0.0000       3.3808 *     5.6347 *  0.0000     1          
    44  Na    c      0.0000      -5.6347 *    -3.3808 *  0.0000     1          
    45  O     c      4.5078 *    -3.3808 *    -3.3808 *  0.0000     2          
    46  Na    c      4.5078 *    -3.3808 *     3.3808 *  0.0000     2          
    47  Na    c      4.5078 *     3.3808 *    -3.3808 *  0.0000     2          
    48  Cl    c      2.2539 *     3.3808 *    -5.6347 *  0.0000     2          
    49  Cl    c      2.2539 *    -5.6347 *     3.3808 *  0.0000     2          
    50  Na    c      2.2539 *     5.6347 *    -3.3808 *  0.0000     2          
    51  Na    c      2.2539 *    -3.3808 *     5.6347 *  0.0000     2          
    52  Cl    c      6.7617 *    -1.1269 *    -1.1269 *  0.0000     2          
    53  Na    c      6.7617 *     1.1269 *     1.1269 *  0.0000     2          
    54  O     c     -4.5078 *     1.1269 *     5.6347 *  0.0000     2          
    55  Na    c     -4.5078 *     1.1269 *    -5.6347 *  0.0000     2          
    56  Na    c     -4.5078 *    -1.1269 *     5.6347 *  0.0000     2          
    57  O     c      4.5078 *     5.6347 *     1.1269 *  0.0000     2          
    58  Na    c      4.5078 *     5.6347 *    -1.1269 *  0.0000     2          
    59  Na    c      4.5078 *    -5.6347 *     1.1269 *  0.0000     2          
    60  Cl    c      6.7617 *    -1.1269 *     3.3808 *  0.0000     2          
    61  Na    c      6.7617 *     1.1269 *    -3.3808 *  0.0000     2          
    62  Cl    c      6.7617 *     3.3808 *    -1.1269 *  0.0000     2          
    63  Na    c      6.7617 *    -3.3808 *     1.1269 *  0.0000     2          
    64  O     c      0.0000       5.6347 *     5.6347 *  0.0000     1          
    65  Na    c      0.0000       5.6347 *    -5.6347 *  0.0000     1          
    66  Na    c      0.0000      -5.6347 *     5.6347 *  0.0000     1          
    67  O     c     -4.5078 *    -3.3808 *     5.6347 *  0.0000     2          
    68  Na    c     -4.5078 *    -3.3808 *    -5.6347 *  0.0000     2          
    69  Na    c     -4.5078 *     3.3808 *     5.6347 *  0.0000     2          
    70  O     c      0.0000       1.1269 *    -7.8886 *  0.0000     1          
    71  O     c      0.0000      -7.8886 *     1.1269 *  0.0000     1          
    72  O     c      4.5078 *     5.6347 *    -3.3808 *  0.0000     2          
    73  Na    c      0.0000       1.1269 *     7.8886 *  0.0000     1          
    74  Na    c      0.0000      -7.8886 *    -1.1269 *  0.0000     1          
    75  Na    c      4.5078 *     5.6347 *     3.3808 *  0.0000     2          
    76  Na    c      0.0000      -1.1269 *    -7.8886 *  0.0000     1          
    77  Na    c      0.0000       7.8886 *     1.1269 *  0.0000     1          
    78  Na    c      4.5078 *    -5.6347 *    -3.3808 *  0.0000     2          
    79  Cl    c      2.2539 *    -5.6347 *    -5.6347 *  0.0000     2          
    80  Na    c      2.2539 *     5.6347 *     5.6347 *  0.0000     2          
    81  Cl    c      2.2539 *    -1.1269 *     7.8886 *  0.0000     2          
    82  Na    c      2.2539 *     1.1269 *    -7.8886 *  0.0000     2          
    83  Cl    c      2.2539 *     7.8886 *    -1.1269 *  0.0000     2          
    84  Cl    c      6.7617 *     3.3808 *     3.3808 *  0.0000     2          
    85  Na    c      2.2539 *    -7.8886 *     1.1269 *  0.0000     2          
    86  Na    c      6.7617 *    -3.3808 *    -3.3808 *  0.0000     2          
    87  O     c      0.0000      -3.3808 *    -7.8886 *  0.0000     1          
    88  O     c      0.0000      -7.8886 *    -3.3808 *  0.0000     1          
    89  Na    c      0.0000      -3.3808 *     7.8886 *  0.0000     1          
    90  Na    c      0.0000      -7.8886 *     3.3808 *  0.0000     1          
    91  Na    c      0.0000       3.3808 *    -7.8886 *  0.0000     1          
    92  Na    c      0.0000       7.8886 *    -3.3808 *  0.0000     1          
    93  Cl    c      2.2539 *     3.3808 *     7.8886 *  0.0000     2          
    94  Cl    c      6.7617 *    -1.1269 *    -5.6347 *  0.0000     2          
    95  Na    c      2.2539 *    -3.3808 *    -7.8886 *  0.0000     2          
    96  Na    c      6.7617 *     1.1269 *     5.6347 *  0.0000     2          
    97  Cl    c      2.2539 *     7.8886 *     3.3808 *  0.0000     2          
    98  Cl    c      6.7617 *    -5.6347 *    -1.1269 *  0.0000     2          
    99  Na    c      2.2539 *    -7.8886 *    -3.3808 *  0.0000     2          
   100  Na    c      6.7617 *     5.6347 *     1.1269 *  0.0000     2          
   101  O     c      4.5078 *     5.6347 *     5.6347 *  0.0000     2          
   102  O     c      4.5078 *    -7.8886 *     1.1269 *  0.0000     2          
   103  O     c      9.0156 *     1.1269 *     1.1269 *  0.0000     2          
   104  O     c     -4.5078 *     1.1269 *    -7.8886 *  0.0000     2          
   105  Na    c      4.5078 *     5.6347 *    -5.6347 *  0.0000     2          
   106  Na    c      4.5078 *    -7.8886 *    -1.1269 *  0.0000     2          
   107  Na    c      9.0156 *     1.1269 *    -1.1269 *  0.0000     2          
   108  Na    c     -4.5078 *     1.1269 *     7.8886 *  0.0000     2          
   109  Na    c      4.5078 *     7.8886 *     1.1269 *  0.0000     2          
   110  Na    c      4.5078 *    -5.6347 *     5.6347 *  0.0000     2          
   111  Na    c      9.0156 *    -1.1269 *     1.1269 *  0.0000     2          
   112  Na    c     -4.5078 *    -1.1269 *    -7.8886 *  0.0000     2          
   113  Cl    c      6.7617 *     3.3808 *    -5.6347 *  0.0000     2          
   114  Na    c      6.7617 *    -3.3808 *     5.6347 *  0.0000     2          
   115  Cl    c      6.7617 *    -5.6347 *     3.3808 *  0.0000     2          
   116  Na    c      6.7617 *     5.6347 *    -3.3808 *  0.0000     2          
   117  O     c      0.0000       5.6347 *    -7.8886 *  0.0000     1          
   118  O     c      0.0000      -7.8886 *     5.6347 *  0.0000     1          
   119  O     c      9.0156 *    -3.3808 *     1.1269 *  0.0000     2          
   120  O     c     -4.5078 *    -3.3808 *    -7.8886 *  0.0000     2          
   121  Na    c      0.0000       5.6347 *     7.8886 *  0.0000     1          
   122  Na    c      0.0000      -7.8886 *    -5.6347 *  0.0000     1          
   123  Na    c      9.0156 *    -3.3808 *    -1.1269 *  0.0000     2          
   124  Na    c     -4.5078 *    -3.3808 *     7.8886 *  0.0000     2          
   125  Na    c      0.0000       7.8886 *     5.6347 *  0.0000     1          
   126  Na    c      0.0000      -5.6347 *    -7.8886 *  0.0000     1          
   127  Na    c      9.0156 *     3.3808 *     1.1269 *  0.0000     2          
   128  Na    c     -4.5078 *     3.3808 *    -7.8886 *  0.0000     2          
   129  O     c      4.5078 *    -7.8886 *    -3.3808 *  0.0000     2          
   130  O     c      9.0156 *     1.1269 *    -3.3808 *  0.0000     2          
   131  Na    c      4.5078 *    -7.8886 *     3.3808 *  0.0000     2          
   132  Na    c      9.0156 *     1.1269 *     3.3808 *  0.0000     2          
   133  Na    c      4.5078 *     7.8886 *    -3.3808 *  0.0000     2          
   134  Na    c      9.0156 *    -1.1269 *    -3.3808 *  0.0000     2          
   135  Cl    c      2.2539 *     7.8886 *    -5.6347 *  0.0000     2          
   136  Cl    c      2.2539 *    -5.6347 *     7.8886 *  0.0000     2          
   137  Na    c      2.2539 *     5.6347 *    -7.8886 *  0.0000     2          
   138  Na    c      2.2539 *    -7.8886 *     5.6347 *  0.0000     2          
   139  O     c      0.0000      10.1425 *     1.1269 *  0.0000     1          
   140  Na    c      0.0000      10.1425 *    -1.1269 *  0.0000     1          
   141  Na    c      0.0000     -10.1425 *     1.1269 *  0.0000     1          
   142  O     c      0.0000       1.1269 *    10.1425 *  0.0000     1          
   143  O     c      9.0156 *    -3.3808 *    -3.3808 *  0.0000     2          
   144  Na    c      0.0000       1.1269 *   -10.1425 *  0.0000     1          
   145  Na    c      9.0156 *    -3.3808 *     3.3808 *  0.0000     2          
   146  Na    c      0.0000      -1.1269 *    10.1425 *  0.0000     1          
   147  Na    c      9.0156 *     3.3808 *    -3.3808 *  0.0000     2          
   148  Cl    c      6.7617 *    -5.6347 *    -5.6347 *  0.0000     2          
   149  Na    c      6.7617 *     5.6347 *     5.6347 *  0.0000     2          
   150  Cl    c      2.2539 *    -1.1269 *   -10.1425 *  0.0000     2          
   151  Cl    c      2.2539 *   -10.1425 *    -1.1269 *  0.0000     2          
   152  Cl    c      6.7617 *    -1.1269 *     7.8886 *  0.0000     2          
   153  Cl    c      6.7617 *     7.8886 *    -1.1269 *  0.0000     2          
   154  Na    c      2.2539 *     1.1269 *    10.1425 *  0.0000     2          
   155  Na    c      2.2539 *    10.1425 *     1.1269 *  0.0000     2          
   156  Na    c      6.7617 *     1.1269 *    -7.8886 *  0.0000     2          
   157  Na    c      6.7617 *    -7.8886 *     1.1269 *  0.0000     2          
   158  O     c      4.5078 *     5.6347 *    -7.8886 *  0.0000     2          
   159  O     c      4.5078 *    -7.8886 *     5.6347 *  0.0000     2          
   160  O     c      9.0156 *     1.1269 *     5.6347 *  0.0000     2          
   161  O     c      9.0156 *     5.6347 *     1.1269 *  0.0000     2          
   162  Na    c      4.5078 *     5.6347 *     7.8886 *  0.0000     2          
   163  Na    c      4.5078 *    -7.8886 *    -5.6347 *  0.0000     2          
   164  Na    c      9.0156 *     1.1269 *    -5.6347 *  0.0000     2          
   165  Na    c      9.0156 *     5.6347 *    -1.1269 *  0.0000     2          
   166  Na    c      4.5078 *     7.8886 *     5.6347 *  0.0000     2          
   167  Na    c      4.5078 *    -5.6347 *    -7.8886 *  0.0000     2          
   168  Na    c      9.0156 *    -1.1269 *     5.6347 *  0.0000     2          
   169  Na    c      9.0156 *    -5.6347 *     1.1269 *  0.0000     2          
   170  O     c      0.0000      10.1425 *    -3.3808 *  0.0000     1          
   171  O     c      0.0000      -3.3808 *    10.1425 *  0.0000     1          
   172  Na    c      0.0000      10.1425 *     3.3808 *  0.0000     1          
   173  Na    c      0.0000      -3.3808 *   -10.1425 *  0.0000     1          
   174  Na    c      0.0000       3.3808 *    10.1425 *  0.0000     1          
   175  Na    c      0.0000     -10.1425 *    -3.3808 *  0.0000     1          
   176  Cl    c      2.2539 *     3.3808 *   -10.1425 *  0.0000     2          
   177  Cl    c      2.2539 *   -10.1425 *     3.3808 *  0.0000     2          
   178  Cl    c      6.7617 *     7.8886 *     3.3808 *  0.0000     2          
   179  Na    c      2.2539 *    10.1425 *    -3.3808 *  0.0000     2          
   180  Na    c      2.2539 *    -3.3808 *    10.1425 *  0.0000     2          
   181  Na    c      6.7617 *    -7.8886 *    -3.3808 *  0.0000     2          
   182  Cl    c      6.7617 *     3.3808 *     7.8886 *  0.0000     2          
   183  Na    c      6.7617 *    -3.3808 *    -7.8886 *  0.0000     2          
   184  O     c      9.0156 *    -3.3808 *     5.6347 *  0.0000     2          
   185  O     c     -4.5078 *    10.1425 *     1.1269 *  0.0000     2          
   186  Na    c      9.0156 *    -3.3808 *    -5.6347 *  0.0000     2          
   187  Na    c     -4.5078 *    10.1425 *    -1.1269 *  0.0000     2          
   188  Na    c      9.0156 *     3.3808 *     5.6347 *  0.0000     2          
   189  Na    c     -4.5078 *   -10.1425 *     1.1269 *  0.0000     2          
   190  O     c      0.0000      -7.8886 *    -7.8886 *  0.0000     1          
   191  O     c      4.5078 *     1.1269 *    10.1425 *  0.0000     2          
   192  O     c      9.0156 *     5.6347 *    -3.3808 *  0.0000     2          
   193  Na    c      0.0000      -7.8886 *     7.8886 *  0.0000     1          
   194  Na    c      4.5078 *     1.1269 *   -10.1425 *  0.0000     2          
   195  Na    c      9.0156 *     5.6347 *     3.3808 *  0.0000     2          
   196  Na    c      0.0000       7.8886 *    -7.8886 *  0.0000     1          
   197  Na    c      4.5078 *    -1.1269 *    10.1425 *  0.0000     2          
   198  Na    c      9.0156 *    -5.6347 *    -3.3808 *  0.0000     2          
   199  Cl    c     11.2695 *    -1.1269 *    -1.1269 *  0.0000     2          
   200  Na    c     11.2695 *     1.1269 *     1.1269 *  0.0000     2          
   201  Cl    c      2.2539 *     7.8886 *     7.8886 *  0.0000     2          
   202  Na    c      2.2539 *    -7.8886 *    -7.8886 *  0.0000     2          
   203  O     c      0.0000       5.6347 *    10.1425 *  0.0000     1          
   204  O     c      0.0000      10.1425 *     5.6347 *  0.0000     1          
   205  O     c     -4.5078 *    10.1425 *    -3.3808 *  0.0000     2          
   206  Na    c      0.0000       5.6347 *   -10.1425 *  0.0000     1          
   207  Na    c      0.0000      10.1425 *    -5.6347 *  0.0000     1          
   208  Na    c     -4.5078 *    10.1425 *     3.3808 *  0.0000     2          
   209  Na    c      0.0000      -5.6347 *    10.1425 *  0.0000     1          
   210  Na    c      0.0000     -10.1425 *     5.6347 *  0.0000     1          
   211  Na    c     -4.5078 *   -10.1425 *    -3.3808 *  0.0000     2          
   212  O     c      4.5078 *    -3.3808 *    10.1425 *  0.0000     2          
   213  Na    c      4.5078 *    -3.3808 *   -10.1425 *  0.0000     2          
   214  Na    c      4.5078 *     3.3808 *    10.1425 *  0.0000     2          
   215  Cl    c     11.2695 *    -1.1269 *     3.3808 *  0.0000     2          
   216  Cl    c     11.2695 *     3.3808 *    -1.1269 *  0.0000     2          
   217  Na    c     11.2695 *     1.1269 *    -3.3808 *  0.0000     2          
   218  Na    c     11.2695 *    -3.3808 *     1.1269 *  0.0000     2          
   219  Cl    c      2.2539 *    -5.6347 *   -10.1425 *  0.0000     2          
   220  Cl    c      2.2539 *   -10.1425 *    -5.6347 *  0.0000     2          
   221  Cl    c      6.7617 *     7.8886 *    -5.6347 *  0.0000     2          
   222  Na    c      2.2539 *     5.6347 *    10.1425 *  0.0000     2          
   223  Na    c      2.2539 *    10.1425 *     5.6347 *  0.0000     2          
   224  Na    c      6.7617 *    -7.8886 *     5.6347 *  0.0000     2          
   225  Cl    c      6.7617 *    -5.6347 *     7.8886 *  0.0000     2          
   226  Na    c      6.7617 *     5.6347 *    -7.8886 *  0.0000     2          
   227  O     c      9.0156 *     5.6347 *     5.6347 *  0.0000     2          
   228  O     c      9.0156 *    -7.8886 *     1.1269 *  0.0000     2          
   229  Na    c      9.0156 *     5.6347 *    -5.6347 *  0.0000     2          
   230  Na    c      9.0156 *    -7.8886 *    -1.1269 *  0.0000     2          
   231  Na    c      9.0156 *     7.8886 *     1.1269 *  0.0000     2          
   232  Na    c      9.0156 *    -5.6347 *     5.6347 *  0.0000     2          
   233  O     c      4.5078 *    -7.8886 *    -7.8886 *  0.0000     2          
   234  O     c      9.0156 *     1.1269 *    -7.8886 *  0.0000     2          
   235  Na    c      4.5078 *    -7.8886 *     7.8886 *  0.0000     2          
   236  Na    c      9.0156 *     1.1269 *     7.8886 *  0.0000     2          
   237  Na    c      4.5078 *     7.8886 *    -7.8886 *  0.0000     2          
   238  Na    c      9.0156 *    -1.1269 *    -7.8886 *  0.0000     2          
   239  Cl    c     11.2695 *     3.3808 *     3.3808 *  0.0000     2          
   240  Na    c     11.2695 *    -3.3808 *    -3.3808 *  0.0000     2          
   241  Cl    c      6.7617 *   -10.1425 *    -1.1269 *  0.0000     2          
   242  Na    c      6.7617 *    10.1425 *     1.1269 *  0.0000     2          
   243  Cl    c      6.7617 *    -1.1269 *   -10.1425 *  0.0000     2          
   244  Na    c      6.7617 *     1.1269 *    10.1425 *  0.0000     2          
   245  O     c      0.0000       1.1269 *   -12.3964 *  0.0000     1          
   246  O     c      0.0000     -12.3964 *     1.1269 *  0.0000     1          
   247  O     c      9.0156 *    -7.8886 *    -3.3808 *  0.0000     2          
   248  O     c     -4.5078 *    10.1425 *     5.6347 *  0.0000     2          
   249  Na    c      0.0000       1.1269 *    12.3964 *  0.0000     1          
   250  Na    c      0.0000     -12.3964 *    -1.1269 *  0.0000     1          
   251  Na    c      9.0156 *    -7.8886 *     3.3808 *  0.0000     2          
   252  Na    c     -4.5078 *    10.1425 *    -5.6347 *  0.0000     2          
   253  Na    c      0.0000      -1.1269 *   -12.3964 *  0.0000     1          
   254  Na    c      0.0000      12.3964 *     1.1269 *  0.0000     1          
   255  Na    c      9.0156 *     7.8886 *    -3.3808 *  0.0000     2          
   256  Na    c     -4.5078 *   -10.1425 *     5.6347 *  0.0000     2          
   257  O     c      4.5078 *     5.6347 *    10.1425 *  0.0000     2          
   258  O     c      9.0156 *    -3.3808 *    -7.8886 *  0.0000     2          
   259  Na    c      4.5078 *     5.6347 *   -10.1425 *  0.0000     2          
   260  Na    c      9.0156 *    -3.3808 *     7.8886 *  0.0000     2          
   261  Na    c      4.5078 *    -5.6347 *    10.1425 *  0.0000     2          
   262  Na    c      9.0156 *     3.3808 *    -7.8886 *  0.0000     2          
   263  Cl    c     11.2695 *    -1.1269 *    -5.6347 *  0.0000     2          
   264  Cl    c     11.2695 *    -5.6347 *    -1.1269 *  0.0000     2          
   265  Na    c     11.2695 *     1.1269 *     5.6347 *  0.0000     2          
   266  Na    c     11.2695 *     5.6347 *     1.1269 *  0.0000     2          
   267  Cl    c      2.2539 *    -1.1269 *    12.3964 *  0.0000     2          
   268  Cl    c      2.2539 *    12.3964 *    -1.1269 *  0.0000     2          
   269  Cl    c      6.7617 *   -10.1425 *     3.3808 *  0.0000     2          
   270  Na    c      2.2539 *     1.1269 *   -12.3964 *  0.0000     2          
   271  Na    c      2.2539 *   -12.3964 *     1.1269 *  0.0000     2          
   272  Na    c      6.7617 *    10.1425 *    -3.3808 *  0.0000     2          
   273  Cl    c      6.7617 *     3.3808 *   -10.1425 *  0.0000     2          
   274  Na    c      6.7617 *    -3.3808 *    10.1425 *  0.0000     2          
   275  O     c      0.0000      -3.3808 *   -12.3964 *  0.0000     1          
   276  O     c      0.0000     -12.3964 *    -3.3808 *  0.0000     1          
   277  Na    c      0.0000      -3.3808 *    12.3964 *  0.0000     1          
   278  Na    c      0.0000     -12.3964 *     3.3808 *  0.0000     1          
   279  Na    c      0.0000       3.3808 *   -12.3964 *  0.0000     1          
   280  Na    c      0.0000      12.3964 *    -3.3808 *  0.0000     1          
   281  O     c      0.0000      10.1425 *    -7.8886 *  0.0000     1          
   282  O     c      0.0000      -7.8886 *    10.1425 *  0.0000     1          
   283  Na    c      0.0000      10.1425 *     7.8886 *  0.0000     1          
   284  Na    c      0.0000      -7.8886 *   -10.1425 *  0.0000     1          
   285  Na    c      0.0000       7.8886 *    10.1425 *  0.0000     1          
   286  Na    c      0.0000     -10.1425 *    -7.8886 *  0.0000     1          
   287  O     s      0.0000       1.1269 *     1.1269 *  0.0000     1          
   288  Cl    s      2.2539 *    -1.1269 *    -1.1269 *  0.0000     2          
   289  O     s      0.0000       1.1269 *    -3.3808 *  0.0000     1          
   290  O     s      0.0000      -3.3808 *     1.1269 *  0.0000     1          
   291  Cl    s      2.2539 *    -1.1269 *     3.3808 *  0.0000     2          
   292  Cl    s      2.2539 *     3.3808 *    -1.1269 *  0.0000     2          
   293  O     s     -4.5078 *     1.1269 *     1.1269 *  0.0000     2          
   294  O     s      0.0000      -3.3808 *    -3.3808 *  0.0000     1          
   295  Cl    s      2.2539 *     3.3808 *     3.3808 *  0.0000     2          
   296  O     s      0.0000       1.1269 *     5.6347 *  0.0000     1          
   297  O     s      0.0000       5.6347 *     1.1269 *  0.0000     1          
   298  O     s     -4.5078 *     1.1269 *    -3.3808 *  0.0000     2          
   299  O     s     -4.5078 *    -3.3808 *     1.1269 *  0.0000     2          
   300  Cl    s      2.2539 *    -1.1269 *    -5.6347 *  0.0000     2          
   301  Cl    s      2.2539 *    -5.6347 *    -1.1269 *  0.0000     2          
   302  O     s      0.0000       5.6347 *    -3.3808 *  0.0000     1          
   303  O     s      0.0000      -3.3808 *     5.6347 *  0.0000     1          
   304  O     s      4.5078 *    -3.3808 *    -3.3808 *  0.0000     2          
   305  Cl    s      2.2539 *     3.3808 *    -5.6347 *  0.0000     2          
   306  Cl    s      2.2539 *    -5.6347 *     3.3808 *  0.0000     2          
   307  Cl    s      6.7617 *    -1.1269 *    -1.1269 *  0.0000     2          
   308  O     s     -4.5078 *     1.1269 *     5.6347 *  0.0000     2          
   309  O     s      4.5078 *     5.6347 *     1.1269 *  0.0000     2          
   310  Cl    s      6.7617 *    -1.1269 *     3.3808 *  0.0000     2          
   311  Cl    s      6.7617 *     3.3808 *    -1.1269 *  0.0000     2          
   312  O     s      0.0000       5.6347 *     5.6347 *  0.0000     1          
   313  O     s     -4.5078 *    -3.3808 *     5.6347 *  0.0000     2          
   314  O     s      0.0000       1.1269 *    -7.8886 *  0.0000     1          
   315  O     s      0.0000      -7.8886 *     1.1269 *  0.0000     1          
   316  O     s      4.5078 *     5.6347 *    -3.3808 *  0.0000     2          
   317  Cl    s      2.2539 *    -5.6347 *    -5.6347 *  0.0000     2          
   318  Cl    s      2.2539 *    -1.1269 *     7.8886 *  0.0000     2          
   319  Cl    s      2.2539 *     7.8886 *    -1.1269 *  0.0000     2          
   320  Cl    s      6.7617 *     3.3808 *     3.3808 *  0.0000     2          
   321  O     s      0.0000      -3.3808 *    -7.8886 *  0.0000     1          
   322  O     s      0.0000      -7.8886 *    -3.3808 *  0.0000     1          
   323  Cl    s      2.2539 *     3.3808 *     7.8886 *  0.0000     2          
   324  Cl    s      6.7617 *    -1.1269 *    -5.6347 *  0.0000     2          
   325  Cl    s      2.2539 *     7.8886 *     3.3808 *  0.0000     2          
   326  Cl    s      6.7617 *    -5.6347 *    -1.1269 *  0.0000     2          
   327  O     s      4.5078 *     5.6347 *     5.6347 *  0.0000     2          
   328  O     s      4.5078 *    -7.8886 *     1.1269 *  0.0000     2          
   329  O     s      9.0156 *     1.1269 *     1.1269 *  0.0000     2          
   330  O     s     -4.5078 *     1.1269 *    -7.8886 *  0.0000     2          
   331  Cl    s      6.7617 *     3.3808 *    -5.6347 *  0.0000     2          
   332  Cl    s      6.7617 *    -5.6347 *     3.3808 *  0.0000     2          
   333  O     s      0.0000       5.6347 *    -7.8886 *  0.0000     1          
   334  O     s      0.0000      -7.8886 *     5.6347 *  0.0000     1          
   335  O     s      9.0156 *    -3.3808 *     1.1269 *  0.0000     2          
   336  O     s     -4.5078 *    -3.3808 *    -7.8886 *  0.0000     2          
   337  O     s      4.5078 *    -7.8886 *    -3.3808 *  0.0000     2          
   338  O     s      9.0156 *     1.1269 *    -3.3808 *  0.0000     2          
   339  Cl    s      2.2539 *     7.8886 *    -5.6347 *  0.0000     2          
   340  Cl    s      2.2539 *    -5.6347 *     7.8886 *  0.0000     2          
   341  O     s      0.0000      10.1425 *     1.1269 *  0.0000     1          
   342  O     s      0.0000       1.1269 *    10.1425 *  0.0000     1          
   343  O     s      9.0156 *    -3.3808 *    -3.3808 *  0.0000     2          
   344  Cl    s      6.7617 *    -5.6347 *    -5.6347 *  0.0000     2          
   345  Cl    s      2.2539 *    -1.1269 *   -10.1425 *  0.0000     2          
   346  Cl    s      2.2539 *   -10.1425 *    -1.1269 *  0.0000     2          
   347  Cl    s      6.7617 *    -1.1269 *     7.8886 *  0.0000     2          
   348  Cl    s      6.7617 *     7.8886 *    -1.1269 *  0.0000     2          
   349  O     s      4.5078 *     5.6347 *    -7.8886 *  0.0000     2          
   350  O     s      4.5078 *    -7.8886 *     5.6347 *  0.0000     2          
   351  O     s      9.0156 *     1.1269 *     5.6347 *  0.0000     2          
   352  O     s      9.0156 *     5.6347 *     1.1269 *  0.0000     2          
   353  O     s      0.0000      10.1425 *    -3.3808 *  0.0000     1          
   354  O     s      0.0000      -3.3808 *    10.1425 *  0.0000     1          
   355  Cl    s      2.2539 *     3.3808 *   -10.1425 *  0.0000     2          
   356  Cl    s      2.2539 *   -10.1425 *     3.3808 *  0.0000     2          
   357  Cl    s      6.7617 *     7.8886 *     3.3808 *  0.0000     2          
   358  Cl    s      6.7617 *     3.3808 *     7.8886 *  0.0000     2          
   359  O     s      9.0156 *    -3.3808 *     5.6347 *  0.0000     2          
   360  O     s     -4.5078 *    10.1425 *     1.1269 *  0.0000     2          
   361  O     s      0.0000      -7.8886 *    -7.8886 *  0.0000     1          
   362  O     s      4.5078 *     1.1269 *    10.1425 *  0.0000     2          
   363  O     s      9.0156 *     5.6347 *    -3.3808 *  0.0000     2          
   364  Cl    s     11.2695 *    -1.1269 *    -1.1269 *  0.0000     2          
   365  Cl    s      2.2539 *     7.8886 *     7.8886 *  0.0000     2          
   366  O     s      0.0000       5.6347 *    10.1425 *  0.0000     1          
   367  O     s      0.0000      10.1425 *     5.6347 *  0.0000     1          
   368  O     s     -4.5078 *    10.1425 *    -3.3808 *  0.0000     2          
   369  O     s      4.5078 *    -3.3808 *    10.1425 *  0.0000     2          
   370  Cl    s     11.2695 *    -1.1269 *     3.3808 *  0.0000     2          
   371  Cl    s     11.2695 *     3.3808 *    -1.1269 *  0.0000     2          
   372  Cl    s      2.2539 *    -5.6347 *   -10.1425 *  0.0000     2          
   373  Cl    s      2.2539 *   -10.1425 *    -5.6347 *  0.0000     2          
   374  Cl    s      6.7617 *     7.8886 *    -5.6347 *  0.0000     2          
   375  Cl    s      6.7617 *    -5.6347 *     7.8886 *  0.0000     2          
   376  O     s      9.0156 *     5.6347 *     5.6347 *  0.0000     2          
   377  O     s      9.0156 *    -7.8886 *     1.1269 *  0.0000     2          
   378  O     s      4.5078 *    -7.8886 *    -7.8886 *  0.0000     2          
   379  O     s      9.0156 *     1.1269 *    -7.8886 *  0.0000     2          
   380  Cl    s     11.2695 *     3.3808 *     3.3808 *  0.0000     2          
   381  Cl    s      6.7617 *   -10.1425 *    -1.1269 *  0.0000     2          
   382  Cl    s      6.7617 *    -1.1269 *   -10.1425 *  0.0000     2          
   383  O     s      0.0000       1.1269 *   -12.3964 *  0.0000     1          
   384  O     s      0.0000     -12.3964 *     1.1269 *  0.0000     1          
   385  O     s      9.0156 *    -7.8886 *    -3.3808 *  0.0000     2          
   386  O     s     -4.5078 *    10.1425 *     5.6347 *  0.0000     2          
   387  O     s      4.5078 *     5.6347 *    10.1425 *  0.0000     2          
   388  O     s      9.0156 *    -3.3808 *    -7.8886 *  0.0000     2          
   389  Cl    s     11.2695 *    -1.1269 *    -5.6347 *  0.0000     2          
   390  Cl    s     11.2695 *    -5.6347 *    -1.1269 *  0.0000     2          
   391  Cl    s      2.2539 *    -1.1269 *    12.3964 *  0.0000     2          
   392  Cl    s      2.2539 *    12.3964 *    -1.1269 *  0.0000     2          
   393  Cl    s      6.7617 *   -10.1425 *     3.3808 *  0.0000     2          
   394  Cl    s      6.7617 *     3.3808 *   -10.1425 *  0.0000     2          
   395  O     s      0.0000      -3.3808 *   -12.3964 *  0.0000     1          
   396  O     s      0.0000     -12.3964 *    -3.3808 *  0.0000     1          
   397  O     s      0.0000      10.1425 *    -7.8886 *  0.0000     1          
   398  O     s      0.0000      -7.8886 *    10.1425 *  0.0000     1          
--------------------------------------------------------------------------------

  Components of defect energy : 

--------------------------------------------------------------------------------
  Region 1 - region 1                   =     10.42638500 eV
  Region 1 - region 2a (unrelaxed)      =      0.32735709 eV
  Region 1 - 2a (relaxed - correction)  =     -0.41504188 eV
  Region 1 (Total)                      =     10.33870021 eV
  Region 2a                             =      0.20744959 eV
  Region 2b                             =     -0.32778882 eV
--------------------------------------------------------------------------------
  Total defect energy                   =     10.21836098 eV
--------------------------------------------------------------------------------

  Largest displacement in region 2 =   0.0195 Angstroms


  Number of variables =     1081

  Maximum number of calculations  =        1000
  Maximum Hessian update interval =          10
  Maximum step size               =   1.0000000
  Maximum parameter tolerance     =   0.0000100
  Maximum function  tolerance     =   0.0000100
  Maximum gradient  tolerance     =   0.0010000

  Symmetry adapted optimisation

  Symmetry to be used for second derivatives

  Newton-Raphson optimiser to be used

  BFGS hessian update to be used

  Lower half triangular hessian to be used

  Start of defect optimisation :

  Cycle:      0 Defect Energy:  10.218361  Gnorm:     0.019400  CPU:    9.920
  ** Hessian calculated **
  Cycle:      1 Defect Energy:   8.661407  Gnorm:     0.011316  CPU:   22.930
  Cycle:      2 Defect Energy:   8.090999  Gnorm:     0.010290  CPU:   33.569
  Cycle:      3 Defect Energy:   7.815752  Gnorm:     0.008534  CPU:   45.799
  Cycle:      4 Defect Energy:   7.338315  Gnorm:     0.008759  CPU:   59.502
  Cycle:      5 Defect Energy:   6.868345  Gnorm:     0.006143  CPU:   73.383
  Cycle:      6 Defect Energy:   6.399182  Gnorm:     0.005769  CPU:   83.276
  Cycle:      7 Defect Energy:   5.939224  Gnorm:     0.007110  CPU:   94.354
  Cycle:      8 Defect Energy:   5.633397  Gnorm:     0.003504  CPU:  102.729
  Cycle:      9 Defect Energy:   5.548042  Gnorm:     0.002684  CPU:  108.563
  Cycle:     10 Defect Energy:   5.470101  Gnorm:     0.002115  CPU:  111.217
  ** Hessian calculated **
  Cycle:     11 Defect Energy:   5.404328  Gnorm:     0.001951  CPU:  117.669
  Cycle:     12 Defect Energy:   5.363847  Gnorm:     0.001844  CPU:  120.127
  ** Hessian calculated **
  Cycle:     13 Defect Energy:   5.226358  Gnorm:     0.001451  CPU:  125.979
  Cycle:     14 Defect Energy:   5.109911  Gnorm:     0.001053  CPU:  128.404
  Cycle:     15 Defect Energy:   5.041384  Gnorm:     0.000596  CPU:  130.662
  Cycle:     16 Defect Energy:   5.012657  Gnorm:     0.000398  CPU:  132.950
  Cycle:     17 Defect Energy:   5.014641  Gnorm:     0.000468  CPU:  135.115
  ** Hessian calculated **
  Cycle:     18 Defect Energy:   5.003580  Gnorm:     0.000335  CPU:  144.052
  Cycle:     19 Defect Energy:   4.997728  Gnorm:     0.000244  CPU:  146.770
  Cycle:     20 Defect Energy:   4.994394  Gnorm:     0.000174  CPU:  149.451
  Cycle:     21 Defect Energy:   4.992479  Gnorm:     0.000125  CPU:  152.021
  Cycle:     22 Defect Energy:   4.991347  Gnorm:     0.000088  CPU:  154.560
  Cycle:     23 Defect Energy:   4.990634  Gnorm:     0.000061  CPU:  157.012
  Cycle:     24 Defect Energy:   4.990182  Gnorm:     0.000038  CPU:  159.495
  Cycle:     25 Defect Energy:   4.990103  Gnorm:     0.000040  CPU:  161.757
  ** Hessian calculated **
  Cycle:     26 Defect Energy:   4.989861  Gnorm:     0.000028  CPU:  167.427
  Cycle:     27 Defect Energy:   4.989749  Gnorm:     0.000019  CPU:  169.595
  Cycle:     28 Defect Energy:   4.989684  Gnorm:     0.000014  CPU:  171.782
  Cycle:     29 Defect Energy:   4.989646  Gnorm:     0.000011  CPU:  177.437
  ** Hessian calculated **


  **** Optimisation achieved ****


  Final defect energy  =        4.98964602
  Final defect Gnorm   =        0.00000669

  Components of defect energy : 

--------------------------------------------------------------------------------
  Region 1 - region 1                   =      6.09400147 eV
  Region 1 - region 2a (unrelaxed)      =     -0.59791083 eV
  Region 1 - 2a (relaxed - correction)  =     -0.35712311 eV
  Region 1 (Total)                      =      5.13896753 eV
  Region 2a                             =      0.17847275 eV
  Region 2b                             =     -0.32779426 eV
--------------------------------------------------------------------------------
  Total defect energy                   =      4.98964602 eV
--------------------------------------------------------------------------------

  Largest displacement in region 2 =   0.0195 Angstroms

  Final coordinates of region 1 :

--------------------------------------------------------------------------------
   No.  Atomic        x           y           z          Radius      Charge
        Label       (Angs)      (Angs)      (Angs)       (Angs)       (e) 
--------------------------------------------------------------------------------
     1  Na    c     2.253894    1.081869    1.172025    0.000000    1.000000
     2  O     c     2.253894    2.600858    2.602872    0.000000    0.183000
     3  Cl    c     4.582128   -0.028502   -0.031051    0.000000    1.485000
     4  Cl    c    -0.074341   -0.028502   -0.031051    0.000000    1.485000
     5  Na    c     4.502002    2.630381    2.625908    0.000000    1.000000
     6  Na    c     0.005785    2.630381    2.625908    0.000000    1.000000
     7  O     c     2.253894    2.308034   -2.297852    0.000000    0.183000
     8  O     c     2.253894   -2.245134    2.292612    0.000000    0.183000
     9  Na    c     2.253894    1.815687    4.630668    0.000000    1.000000
    10  Na    c     2.253894   -2.255867    0.060001    0.000000    1.000000
    11  Na    c     2.253894    0.072997   -2.329696    0.000000    1.000000
    12  Na    c     2.253894    4.618707    1.791152    0.000000    1.000000
    13  Cl    c     4.636347    0.027570    4.641792    0.000000    1.485000
    14  Cl    c    -0.128560    0.027570    4.641792    0.000000    1.485000
    15  Cl    c     4.640328    4.639328    0.024728    0.000000    1.485000
    16  Cl    c    -0.132541    4.639328    0.024728    0.000000    1.485000
    17  Na    c     4.430946    2.278707   -1.930574    0.000000    1.000000
    18  Na    c     0.076841    2.278707   -1.930574    0.000000    1.000000
    19  Na    c     4.436980   -1.897810    2.272585    0.000000    1.000000
    20  Na    c     0.070807   -1.897810    2.272585    0.000000    1.000000
    21  O     c    -2.241976    2.314759    2.310431    0.000000    0.183000
    22  O     c     6.749763    2.314759    2.310431    0.000000    0.183000
    23  Na    c    -2.189133    2.274816    0.055127    0.000000    1.000000
    24  Na    c     6.696920    2.274816    0.055127    0.000000    1.000000
    25  Na    c    -2.241439    0.056097    2.229376    0.000000    1.000000
    26  Na    c     6.749226    0.056097    2.229376    0.000000    1.000000
    27  O     c     2.253894   -2.219696   -2.229190    0.000000    0.183000
    28  Na    c     2.253894   -1.719733    4.474227    0.000000    1.000000
    29  Na    c     2.253894    4.468586   -1.710887    0.000000    1.000000
    30  Cl    c     4.656665    4.671136    4.639275    0.000000    1.485000
    31  Cl    c    -0.148878    4.671136    4.639275    0.000000    1.485000
    32  Na    c     4.497657   -2.203609   -2.212328    0.000000    1.000000
    33  Na    c     0.010130   -2.203609   -2.212328    0.000000    1.000000
    34  O     c     2.253894    2.192712    6.856732    0.000000    0.183000
    35  O     c     2.253894    6.845507    2.197630    0.000000    0.183000
    36  Na    c     2.253894    2.618662   -4.497330    0.000000    1.000000
    37  Na    c     2.253894    7.297842   -0.023293    0.000000    1.000000
    38  Na    c     2.253894   -0.023538    7.315428    0.000000    1.000000
    39  Na    c     2.253894   -4.467937    2.548213    0.000000    1.000000
    40  O     c    -2.203342    2.264835   -2.209695    0.000000    0.183000
    41  O     c     6.711129    2.264835   -2.209695    0.000000    0.183000
    42  O     c    -2.203363   -2.212064    2.265042    0.000000    0.183000
    43  O     c     6.711151   -2.212064    2.265042    0.000000    0.183000
    44  Na    c    -2.397934    2.229552    4.558561    0.000000    1.000000
    45  Na    c     6.905722    2.229552    4.558561    0.000000    1.000000
    46  Na    c    -2.216750   -2.277759    0.009394    0.000000    1.000000
    47  Na    c     6.724537   -2.277759    0.009394    0.000000    1.000000
    48  Na    c    -2.203881    0.009873   -2.241378    0.000000    1.000000
    49  Na    c     6.711668    0.009873   -2.241378    0.000000    1.000000
    50  Na    c    -2.402804    4.562830    2.245344    0.000000    1.000000
    51  Na    c     6.910592    4.562830    2.245344    0.000000    1.000000
    52  Cl    c     4.574096   -0.092428   -4.559813    0.000000    1.485000
    53  Cl    c    -0.066309   -0.092428   -4.559813    0.000000    1.485000
    54  Cl    c     4.556641   -4.554262   -0.096173    0.000000    1.485000
    55  Cl    c    -0.048854   -4.554262   -0.096173    0.000000    1.485000
    56  Na    c     4.525967    2.088565    6.777369    0.000000    1.000000
    57  Na    c    -0.018180    2.088565    6.777369    0.000000    1.000000
    58  Na    c     4.521448    6.752145    2.164077    0.000000    1.000000
    59  Na    c    -0.013661    6.752145    2.164077    0.000000    1.000000
    60  O     c     2.253894    6.736101   -2.227794    0.000000    0.183000
    61  O     c     2.253894   -2.219032    6.747250    0.000000    0.183000
    62  Na    c     2.253894    6.463819    4.432673    0.000000    1.000000
    63  Na    c     2.253894   -2.370470   -4.489236    0.000000    1.000000
    64  Na    c     2.253894    4.435752    6.510459    0.000000    1.000000
    65  Na    c     2.253894   -4.480899   -2.250505    0.000000    1.000000
    66  O     c     6.756902   -2.248155   -2.249521    0.000000    0.183000
    67  O     c    -2.249115   -2.248155   -2.249521    0.000000    0.183000
    68  Na    c     6.792920   -2.148169    4.513416    0.000000    1.000000
    69  Na    c    -2.285133   -2.148169    4.513416    0.000000    1.000000
    70  Na    c     6.833157    4.513139   -2.177568    0.000000    1.000000
    71  Na    c    -2.325370    4.513139   -2.177568    0.000000    1.000000
    72  Cl    c     4.587860    4.576618   -4.605735    0.000000    1.485000
    73  Cl    c    -0.080073    4.576618   -4.605735    0.000000    1.485000
    74  Cl    c     4.573362   -4.608435    4.565117    0.000000    1.485000
    75  Cl    c    -0.065575   -4.608435    4.565117    0.000000    1.485000
    76  Na    c     4.507635    6.646790   -2.181181    0.000000    1.000000
    77  Na    c     0.000152    6.646790   -2.181181    0.000000    1.000000
    78  Na    c     4.511174   -2.122731    6.683578    0.000000    1.000000
    79  Na    c    -0.003387   -2.122731    6.683578    0.000000    1.000000
    80  Cl    c     9.018187    0.051045    0.048660    0.000000    1.485000
    81  Cl    c    -4.510400    0.051045    0.048660    0.000000    1.485000
    82  Na    c     9.003348    2.246784    2.201744    0.000000    1.000000
    83  Na    c    -4.495561    2.246784    2.201744    0.000000    1.000000
    84  O     c    -2.279498    2.266671    6.805305    0.000000    0.183000
    85  O     c     6.787285    2.266671    6.805305    0.000000    0.183000
    86  Na    c    -1.983139    2.304077   -4.463755    0.000000    1.000000
    87  Na    c     6.490926    2.304077   -4.463755    0.000000    1.000000
    88  Na    c    -2.454890    0.004230    6.813037    0.000000    1.000000
    89  Na    c     6.962677    0.004230    6.813037    0.000000    1.000000
    90  O     c     6.784615    6.806468    2.264712    0.000000    0.183000
    91  O     c    -2.276827    6.806468    2.264712    0.000000    0.183000
    92  Na    c     6.856456    6.813966    0.001750    0.000000    1.000000
    93  Na    c    -2.348668    6.813966    0.001750    0.000000    1.000000
    94  Na    c     6.467996   -4.462861    2.322926    0.000000    1.000000
    95  Na    c    -1.960209   -4.462861    2.322926    0.000000    1.000000
    96  Cl    c     9.027251    0.019057    4.488632    0.000000    1.485000
    97  Cl    c    -4.519464    0.019057    4.488632    0.000000    1.485000
    98  Na    c     8.978459    2.190264   -2.310532    0.000000    1.000000
    99  Na    c    -4.470672    2.190264   -2.310532    0.000000    1.000000
   100  Cl    c     9.026275    4.493348    0.030698    0.000000    1.485000
   101  Cl    c    -4.518488    4.493348    0.030698    0.000000    1.485000
   102  Na    c     8.976586   -2.358451    2.232684    0.000000    1.000000
   103  Na    c    -4.468799   -2.358451    2.232684    0.000000    1.000000
   104  O     c     2.253894    6.714660    6.705656    0.000000    0.183000
   105  Na    c     2.253894    6.342564   -4.486714    0.000000    1.000000
   106  Na    c     2.253894   -4.477379    6.351569    0.000000    1.000000
   107  O     c    -2.265047   -2.257826    6.767663    0.000000    0.183000
   108  O     c     6.772834   -2.257826    6.767663    0.000000    0.183000
   109  Na    c    -2.182067   -2.250441   -4.503661    0.000000    1.000000
   110  Na    c     6.689855   -2.250441   -4.503661    0.000000    1.000000
   111  Na    c    -2.057982    4.518447    6.766393    0.000000    1.000000
   112  Na    c     6.565769    4.518447    6.766393    0.000000    1.000000
   113  O     c     2.253894    2.268722   -6.769145    0.000000    0.183000
   114  O     c     2.253894   -6.759768    2.269945    0.000000    0.183000
   115  O     c     6.768391    6.769453   -2.260210    0.000000    0.183000
   116  O     c    -2.260604    6.769453   -2.260210    0.000000    0.183000
   117  Na    c     2.253894    2.658440    9.050895    0.000000    1.000000
   118  Na    c     2.253894   -6.513416    0.025096    0.000000    1.000000
   119  Na    c     6.677777    6.733814    4.521380    0.000000    1.000000
   120  Na    c    -2.169990    6.733814    4.521380    0.000000    1.000000
   121  Na    c     2.253894    0.026402   -6.433379    0.000000    1.000000
   122  Na    c     2.253894    9.043915    2.657623    0.000000    1.000000
   123  Na    c     6.692016   -4.501746   -2.278743    0.000000    1.000000
   124  Na    c    -2.184229   -4.501746   -2.278743    0.000000    1.000000
   125  Cl    c     4.498019   -4.505783   -4.498844    0.000000    1.485000
   126  Cl    c     0.009768   -4.505783   -4.498844    0.000000    1.485000
   127  Na    c     4.506611    6.821006    6.749978    0.000000    1.000000
   128  Na    c     0.001176    6.821006    6.749978    0.000000    1.000000
   129  Cl    c     4.562849   -0.010374    9.068374    0.000000    1.485000
   130  Cl    c    -0.055062   -0.010374    9.068374    0.000000    1.485000
   131  Na    c     4.501997    2.281751   -6.849479    0.000000    1.000000
   132  Na    c     0.005790    2.281751   -6.849479    0.000000    1.000000
   133  Cl    c     4.564300    9.073845   -0.009599    0.000000    1.485000
   134  Cl    c    -0.056512    9.073845   -0.009599    0.000000    1.485000
   135  Cl    c     9.074105    4.505777    4.511369    0.000000    1.485000
   136  Cl    c    -4.566318    4.505777    4.511369    0.000000    1.485000
   137  Na    c     4.500907   -6.848788    2.306355    0.000000    1.000000
   138  Na    c     0.006880   -6.848788    2.306355    0.000000    1.000000
   139  Na    c     9.004177   -2.269414   -2.292664    0.000000    1.000000
   140  Na    c    -4.496390   -2.269414   -2.292664    0.000000    1.000000
   141  O     c     2.253894   -2.228606   -6.749329    0.000000    0.183000
   142  O     c     2.253894   -6.742075   -2.235376    0.000000    0.183000
   143  Na    c     2.253894   -2.684080    8.983127    0.000000    1.000000
   144  Na    c     2.253894   -7.053501    4.505611    0.000000    1.000000
   145  Na    c     2.253894    4.504228   -7.109062    0.000000    1.000000
   146  Na    c     2.253894    8.978231   -2.673406    0.000000    1.000000
   147  Cl    c     4.536324    4.513997    9.066664    0.000000    1.485000
   148  Cl    c    -0.028536    4.513997    9.066664    0.000000    1.485000
   149  Cl    c     9.053354   -0.013547   -4.502332    0.000000    1.485000
   150  Cl    c    -4.545567   -0.013547   -4.502332    0.000000    1.485000
   151  Na    c     4.505254   -2.210129   -6.769072    0.000000    1.000000
   152  Na    c     0.002533   -2.210129   -6.769072    0.000000    1.000000
   153  Na    c     9.026269    2.494478    6.875293    0.000000    1.000000
   154  Na    c    -4.518481    2.494478    6.875293    0.000000    1.000000
   155  Cl    c     4.537279    9.063140    4.525524    0.000000    1.485000
   156  Cl    c    -0.029491    9.063140    4.525524    0.000000    1.485000
   157  Cl    c     9.055231   -4.500768   -0.011983    0.000000    1.485000
   158  Cl    c    -4.547443   -4.500768   -0.011983    0.000000    1.485000
   159  Na    c     4.504238   -6.763787   -2.234842    0.000000    1.000000
   160  Na    c     0.003549   -6.763787   -2.234842    0.000000    1.000000
   161  Na    c     9.027316    6.911120    2.352733    0.000000    1.000000
   162  Na    c    -4.519528    6.911120    2.352733    0.000000    1.000000
   163  O     c     6.776452    6.770502    6.777315    0.000000    0.183000
   164  O     c    -2.268664    6.770502    6.777315    0.000000    0.183000
   165  O     c     6.753805   -6.728333    2.251937    0.000000    0.183000
   166  O     c    -2.246018   -6.728333    2.251937    0.000000    0.183000
   167  O     c    11.254459    2.252659    2.253275    0.000000    0.183000
   168  O     c    -6.746671    2.252659    2.253275    0.000000    0.183000
   169  O     c    -2.247082    2.251843   -6.733289    0.000000    0.183000
   170  O     c     6.754869    2.251843   -6.733289    0.000000    0.183000
   171  Na    c     6.676621    6.691286   -4.509111    0.000000    1.000000
   172  Na    c    -2.168834    6.691286   -4.509111    0.000000    1.000000
   173  Na    c     6.720272   -6.661857   -0.000455    0.000000    1.000000
   174  Na    c    -2.212485   -6.661857   -0.000455    0.000000    1.000000
   175  Na    c    11.223379    2.217824   -0.001828    0.000000    1.000000
   176  Na    c    -6.715591    2.217824   -0.001828    0.000000    1.000000
   177  Na    c    -2.212447    2.284470    9.040750    0.000000    1.000000
   178  Na    c     6.720234    2.284470    9.040750    0.000000    1.000000
   179  Na    c     6.690400    9.040211    2.310854    0.000000    1.000000
   180  Na    c    -2.182613    9.040211    2.310854    0.000000    1.000000
   181  Na    c     6.606285   -4.506482    6.693890    0.000000    1.000000
   182  Na    c    -2.098498   -4.506482    6.693890    0.000000    1.000000
   183  Na    c    11.175738   -0.001088    2.240075    0.000000    1.000000
   184  Na    c    -6.667951   -0.001088    2.240075    0.000000    1.000000
   185  Na    c    -2.243810    0.000418   -6.674795    0.000000    1.000000
   186  Na    c     6.751597    0.000418   -6.674795    0.000000    1.000000
   187  Cl    c     9.058200    4.535387   -4.502229    0.000000    1.485000
   188  Cl    c    -4.550413    4.535387   -4.502229    0.000000    1.485000
   189  Na    c     9.011881   -2.475303    6.814876    0.000000    1.000000
   190  Na    c    -4.504094   -2.475303    6.814876    0.000000    1.000000
   191  Cl    c     9.061001   -4.504096    4.536366    0.000000    1.485000
   192  Cl    c    -4.553213   -4.504096    4.536366    0.000000    1.485000
   193  Na    c     9.012294    6.868232   -2.376889    0.000000    1.000000
   194  Na    c    -4.504507    6.868232   -2.376889    0.000000    1.000000
[...]
    318 y          0.000000     -0.010269    -0.010269    Cartesian    0.00
    318 z          9.015574      9.068324     0.052750    Cartesian    0.59
    319 x          4.507787      4.557312     0.049525    Cartesian    1.10
    319 y          9.015574      9.076735     0.061161    Cartesian    0.68
    319 z          0.000000     -0.010091    -0.010091    Cartesian    0.00
    320 x          9.015574      9.078021     0.062446    Cartesian    0.69
    320 y          4.507787      4.502985    -0.004802    Cartesian   -0.11
    320 z          4.507787      4.511414     0.003626    Cartesian    0.08
    321 x          2.253894      2.253894     0.000000    Cartesian    0.00
    321 y         -2.253894     -2.228620     0.025273    Cartesian   -1.12
    321 z         -6.761681     -6.749304     0.012376    Cartesian   -0.18
    322 x          2.253894      2.253894     0.000000    Cartesian    0.00
    322 y         -6.761681     -6.742042     0.019639    Cartesian   -0.29
    322 z         -2.253894     -2.235380     0.018514    Cartesian   -0.82
    323 x          4.507787      4.536143     0.028356    Cartesian    0.63
    323 y          4.507787      4.510416     0.002629    Cartesian    0.06
    323 z          9.015574      9.069915     0.054341    Cartesian    0.60
    324 x          9.015574      9.058401     0.042827    Cartesian    0.48
    324 y          0.000000     -0.013174    -0.013174    Cartesian    0.00
    324 z         -4.507787     -4.504164     0.003623    Cartesian   -0.08
    325 x          4.507787      4.535742     0.027955    Cartesian    0.62
    325 y          9.015574      9.066584     0.051009    Cartesian    0.57
    325 z          4.507787      4.523750     0.015963    Cartesian    0.35
    326 x          9.015574      9.060554     0.044980    Cartesian    0.50
    326 y         -4.507787     -4.503025     0.004762    Cartesian   -0.11
    326 z          0.000000     -0.010500    -0.010500    Cartesian    0.00
    327 x          6.761681      6.776438     0.014757    Cartesian    0.22
    327 y          6.761681      6.770506     0.008825    Cartesian    0.13
    327 z          6.761681      6.777319     0.015638    Cartesian    0.23
    328 x          6.761681      6.753780    -0.007901    Cartesian   -0.12
    328 y         -6.761681     -6.728342     0.033339    Cartesian   -0.49
    328 z          2.253894      2.251938    -0.001956    Cartesian   -0.09
    329 x         11.269468     11.254414    -0.015054    Cartesian   -0.13
    329 y          2.253894      2.252642    -0.001251    Cartesian   -0.06
    329 z          2.253894      2.253260    -0.000633    Cartesian   -0.03
    330 x         -2.253894     -2.247062     0.006832    Cartesian   -0.30
    330 y          2.253894      2.251841    -0.002053    Cartesian   -0.09
    330 z         -6.761681     -6.733303     0.028378    Cartesian   -0.42
    331 x          9.015574      9.064620     0.049046    Cartesian    0.54
    331 y          4.507787      4.538162     0.030375    Cartesian    0.67
    331 z         -4.507787     -4.503404     0.004383    Cartesian   -0.10
    332 x          9.015574      9.067374     0.051800    Cartesian    0.57
    332 y         -4.507787     -4.503831     0.003957    Cartesian   -0.09
    332 z          4.507787      4.540521     0.032734    Cartesian    0.73
    333 x          2.253894      2.253894     0.000000    Cartesian    0.00
    333 y          6.761681      6.742830    -0.018851    Cartesian   -0.28
    333 z         -6.761681     -6.749938     0.011743    Cartesian   -0.17
    334 x          2.253894      2.253894     0.000000    Cartesian    0.00
    334 y         -6.761681     -6.746307     0.015374    Cartesian   -0.23
    334 z          6.761681      6.746833    -0.014848    Cartesian   -0.22
    335 x         11.269468     11.252031    -0.017437    Cartesian   -0.15
    335 y         -2.253894     -2.249921     0.003972    Cartesian   -0.18
    335 z          2.253894      2.255610     0.001716    Cartesian    0.08
    336 x         -2.253894     -2.256772    -0.002878    Cartesian    0.13
    336 y         -2.253894     -2.254956    -0.001063    Cartesian    0.05
    336 z         -6.761681     -6.761028     0.000652    Cartesian   -0.01
    337 x          6.761681      6.763435     0.001754    Cartesian    0.03
    337 y         -6.761681     -6.760056     0.001625    Cartesian   -0.02
    337 z         -2.253894     -2.256116    -0.002222    Cartesian    0.10
    338 x         11.269468     11.254049    -0.015419    Cartesian   -0.14
    338 y          2.253894      2.256996     0.003102    Cartesian    0.14
    338 z         -2.253894     -2.251447     0.002447    Cartesian   -0.11
    339 x          4.507787      4.537953     0.030165    Cartesian    0.67
    339 y          9.015574      9.077981     0.062407    Cartesian    0.69
    339 z         -4.507787     -4.519895    -0.012108    Cartesian    0.27
    340 x          4.507787      4.543593     0.035806    Cartesian    0.79
    340 y         -4.507787     -4.514669    -0.006882    Cartesian    0.15
    340 z          9.015574      9.080609     0.065035    Cartesian    0.72
    341 x          2.253894      2.253894     0.000000    Cartesian    0.00
    341 y         11.269468     11.266889    -0.002579    Cartesian   -0.02
    341 z          2.253894      2.246615    -0.007279    Cartesian   -0.32
    342 x          2.253894      2.253894     0.000000    Cartesian    0.00
    342 y          2.253894      2.247674    -0.006220    Cartesian   -0.28
    342 z         11.269468     11.269479     0.000011    Cartesian    0.00
    343 x         11.269468     11.266746    -0.002722    Cartesian   -0.02
    343 y         -2.253894     -2.250377     0.003517    Cartesian   -0.16
    343 z         -2.253894     -2.253131     0.000763    Cartesian   -0.03
    344 x          9.015574      9.057781     0.042207    Cartesian    0.47
    344 y         -4.507787     -4.506776     0.001011    Cartesian   -0.02
    344 z         -4.507787     -4.510338    -0.002551    Cartesian    0.06
    345 x          4.507787      4.502098    -0.005689    Cartesian   -0.13
    345 y          0.000000      0.009822     0.009822    Cartesian    0.00
    345 z         -9.015574     -9.056412    -0.040837    Cartesian    0.45
    346 x          4.507787      4.501007    -0.006780    Cartesian   -0.15
    346 y         -9.015574     -9.047796    -0.032222    Cartesian    0.36
    346 z          0.000000      0.015638     0.015638    Cartesian    0.00
    347 x          9.015574      9.035774     0.020200    Cartesian    0.22
    347 y          0.000000     -0.003880    -0.003880    Cartesian    0.00
    347 z          9.015574      9.046563     0.030989    Cartesian    0.34
    348 x          9.015574      9.044041     0.028466    Cartesian    0.32
    348 y          9.015574      9.023348     0.007773    Cartesian    0.09
    348 z          0.000000     -0.002211    -0.002211    Cartesian    0.00
    349 x          6.761681      6.766835     0.005154    Cartesian    0.08
    349 y          6.761681      6.765435     0.003754    Cartesian    0.06
    349 z         -6.761681     -6.760401     0.001280    Cartesian   -0.02
    350 x          6.761681      6.763954     0.002274    Cartesian    0.03
    350 y         -6.761681     -6.756891     0.004790    Cartesian   -0.07
    350 z          6.761681      6.765074     0.003393    Cartesian    0.05
    351 x         11.269468     11.266870    -0.002598    Cartesian   -0.02
    351 y          2.253894      2.254074     0.000180    Cartesian    0.01
    351 z          6.761681      6.767074     0.005393    Cartesian    0.08
    352 x         11.269468     11.272203     0.002734    Cartesian    0.02
    352 y          6.761681      6.770666     0.008985    Cartesian    0.13
    352 z          2.253894      2.254099     0.000206    Cartesian    0.01
    353 x          2.253894      2.253894     0.000000    Cartesian    0.00
    353 y         11.269468     11.233590    -0.035878    Cartesian   -0.32
    353 z         -2.253894     -2.255110    -0.001217    Cartesian    0.05
    354 x          2.253894      2.253894     0.000000    Cartesian    0.00
    354 y         -2.253894     -2.257203    -0.003309    Cartesian    0.15
    354 z         11.269468     11.233914    -0.035554    Cartesian   -0.32
    355 x          4.507787      4.516362     0.008574    Cartesian    0.19
    355 y          4.507787      4.515531     0.007743    Cartesian    0.17
    355 z         -9.015574     -9.019284    -0.003710    Cartesian    0.04
    356 x          4.507787      4.503165    -0.004623    Cartesian   -0.10
    356 y         -9.015574     -9.010206     0.005369    Cartesian   -0.06
    356 z          4.507787      4.515402     0.007615    Cartesian    0.17
    357 x          9.015574      9.049100     0.033526    Cartesian    0.37
    357 y          9.015574      9.049859     0.034284    Cartesian    0.38
    357 z          4.507787      4.490086    -0.017701    Cartesian   -0.39
    358 x          9.015574      9.048009     0.032435    Cartesian    0.36
    358 y          4.507787      4.500774    -0.007014    Cartesian   -0.16
    358 z          9.015574      9.051720     0.036146    Cartesian    0.40
    359 x         11.269468     11.261333    -0.008135    Cartesian   -0.07
    359 y         -2.253894     -2.263034    -0.009140    Cartesian    0.41
    359 z          6.761681      6.761687     0.000006    Cartesian    0.00
    360 x         -2.253894     -2.249582     0.004311    Cartesian   -0.19
    360 y         11.269468     11.282214     0.012746    Cartesian    0.11
    360 z          2.253894      2.253791    -0.000103    Cartesian   -0.00
    361 x          2.253894      2.253894     0.000000    Cartesian    0.00
    361 y         -6.761681     -6.750037     0.011644    Cartesian   -0.17
    361 z         -6.761681     -6.759472     0.002209    Cartesian   -0.03
    362 x          6.761681      6.760513    -0.001168    Cartesian   -0.02
    362 y          2.253894      2.251981    -0.001913    Cartesian   -0.08
    362 z         11.269468     11.283101     0.013633    Cartesian    0.12
    363 x         11.269468     11.264661    -0.004807    Cartesian   -0.04
    363 y          6.761681      6.765882     0.004202    Cartesian    0.06
    363 z         -2.253894     -2.256411    -0.002517    Cartesian    0.11
    364 x         13.523362     13.550942     0.027581    Cartesian    0.20
    364 y          0.000000     -0.008742    -0.008742    Cartesian    0.00
    364 z          0.000000     -0.003736    -0.003736    Cartesian    0.00
    365 x          4.507787      4.516271     0.008484    Cartesian    0.19
    365 y          9.015574      9.030200     0.014626    Cartesian    0.16
    365 z          9.015574      9.033993     0.018418    Cartesian    0.20
    366 x          2.253894      2.253894     0.000000    Cartesian    0.00
    366 y          6.761681      6.741348    -0.020333    Cartesian   -0.30
    366 z         11.269468     11.261459    -0.008009    Cartesian   -0.07
    367 x          2.253894      2.253894     0.000000    Cartesian    0.00
    367 y         11.269468     11.261403    -0.008065    Cartesian   -0.07
    367 z          6.761681      6.741227    -0.020454    Cartesian   -0.30
    368 x         -2.253894     -2.252381     0.001513    Cartesian   -0.07
    368 y         11.269468     11.270779     0.001311    Cartesian    0.01
    368 z         -2.253894     -2.251150     0.002743    Cartesian   -0.12
    369 x          6.761681      6.762598     0.000917    Cartesian    0.01
    369 y         -2.253894     -2.251528     0.002366    Cartesian   -0.10
    369 z         11.269468     11.271667     0.002199    Cartesian    0.02
    370 x         13.523362     13.583640     0.060278    Cartesian    0.45
    370 y          0.000000      0.002334     0.002334    Cartesian    0.00
    370 z          4.507787      4.501295    -0.006492    Cartesian   -0.14
    371 x         13.523362     13.570282     0.046920    Cartesian    0.35
    371 y          4.507787      4.504994    -0.002793    Cartesian   -0.06
    371 z          0.000000     -0.001288    -0.001288    Cartesian    0.00
    372 x          4.507787      4.520847     0.013059    Cartesian    0.29
    372 y         -4.507787     -4.538781    -0.030994    Cartesian    0.69
    372 z         -9.015574     -9.019374    -0.003800    Cartesian    0.04
    373 x          4.507787      4.520514     0.012727    Cartesian    0.28
    373 y         -9.015574     -9.026096    -0.010521    Cartesian    0.12
    373 z         -4.507787     -4.535415    -0.027628    Cartesian    0.61
    374 x          9.015574      9.046252     0.030678    Cartesian    0.34
    374 y          9.015574      9.037375     0.021801    Cartesian    0.24
    374 z         -4.507787     -4.502085     0.005703    Cartesian   -0.13
    375 x          9.015574      9.051091     0.035517    Cartesian    0.39
    375 y         -4.507787     -4.508422    -0.000635    Cartesian    0.01
    375 z          9.015574      9.033647     0.018073    Cartesian    0.20
    376 x         11.269468     11.286166     0.016698    Cartesian    0.15
    376 y          6.761681      6.753703    -0.007978    Cartesian   -0.12
    376 z          6.761681      6.762233     0.000552    Cartesian    0.01
    377 x         11.269468     11.266411    -0.003057    Cartesian   -0.03
    377 y         -6.761681     -6.752663     0.009018    Cartesian   -0.13
    377 z          2.253894      2.253050    -0.000844    Cartesian   -0.04
    378 x          6.761681      6.764867     0.003186    Cartesian    0.05
    378 y         -6.761681     -6.763920    -0.002239    Cartesian    0.03
    378 z         -6.761681     -6.762364    -0.000683    Cartesian    0.01
    379 x         11.269468     11.266375    -0.003093    Cartesian   -0.03
    379 y          2.253894      2.258047     0.004153    Cartesian    0.18
    379 z         -6.761681     -6.752891     0.008790    Cartesian   -0.13
    380 x         13.523362     13.541288     0.017927    Cartesian    0.13
    380 y          4.507787      4.543183     0.035396    Cartesian    0.79
    380 z          4.507787      4.540565     0.032778    Cartesian    0.73
    381 x          9.015574      9.013116    -0.002459    Cartesian   -0.03
    381 y         -9.015574     -9.064162    -0.048588    Cartesian    0.54
    381 z          0.000000     -0.007661    -0.007661    Cartesian    0.00
    382 x          9.015574      9.005176    -0.010398    Cartesian   -0.12
    382 y          0.000000     -0.004644    -0.004644    Cartesian    0.00
    382 z         -9.015574     -9.064198    -0.048624    Cartesian    0.54
    383 x          2.253894      2.253894     0.000000    Cartesian    0.00
    383 y          2.253894      2.232851    -0.021043    Cartesian   -0.93
    383 z        -11.269468    -11.260364     0.009104    Cartesian   -0.08
    384 x          2.253894      2.253894     0.000000    Cartesian    0.00
    384 y        -11.269468    -11.260097     0.009371    Cartesian   -0.08
    384 z          2.253894      2.235353    -0.018541    Cartesian   -0.82
    385 x         11.269468     11.273072     0.003604    Cartesian    0.03
    385 y         -6.761681     -6.764293    -0.002612    Cartesian    0.04
    385 z         -2.253894     -2.253811     0.000082    Cartesian   -0.00
    386 x         -2.253894     -2.261536    -0.007643    Cartesian    0.34
    386 y         11.269468     11.270919     0.001451    Cartesian    0.01
    386 z          6.761681      6.765953     0.004272    Cartesian    0.06
    387 x          6.761681      6.766024     0.004343    Cartesian    0.06
    387 y          6.761681      6.766846     0.005165    Cartesian    0.08
    387 z         11.269468     11.273215     0.003747    Cartesian    0.03
    388 x         11.269468     11.273730     0.004262    Cartesian    0.04
    388 y         -2.253894     -2.256280    -0.002387    Cartesian    0.11
    388 z         -6.761681     -6.763190    -0.001510    Cartesian    0.02
    389 x         13.523362     13.542372     0.019010    Cartesian    0.14
    389 y          0.000000      0.002692     0.002692    Cartesian    0.00
    389 z         -4.507787     -4.522198    -0.014410    Cartesian    0.32
    390 x         13.523362     13.547128     0.023766    Cartesian    0.18
    390 y         -4.507787     -4.528832    -0.021045    Cartesian    0.47
    390 z          0.000000      0.003140     0.003140    Cartesian    0.00
    391 x          4.507787      4.479513    -0.028274    Cartesian   -0.63
    391 y          0.000000     -0.002627    -0.002627    Cartesian    0.00
    391 z         13.523362     13.591751     0.068389    Cartesian    0.51
    392 x          4.507787      4.475327    -0.032460    Cartesian   -0.72
    392 y         13.523362     13.592376     0.069014    Cartesian    0.51
    392 z          0.000000     -0.002020    -0.002020    Cartesian    0.00
    393 x          9.015574      9.024768     0.009194    Cartesian    0.10
    393 y         -9.015574     -9.053174    -0.037599    Cartesian    0.42
    393 z          4.507787      4.518216     0.010429    Cartesian    0.23
    394 x          9.015574      9.035525     0.019951    Cartesian    0.22
    394 y          4.507787      4.517909     0.010122    Cartesian    0.22
    394 z         -9.015574     -9.049340    -0.033765    Cartesian    0.37
    395 x          2.253894      2.253894     0.000000    Cartesian    0.00
    395 y         -2.253894     -2.246391     0.007503    Cartesian   -0.33
    395 z        -11.269468    -11.280037    -0.010569    Cartesian    0.09
    396 x          2.253894      2.253894     0.000000    Cartesian    0.00
    396 y        -11.269468    -11.276533    -0.007065    Cartesian    0.06
    396 z         -2.253894     -2.252111     0.001783    Cartesian   -0.08
    397 x          2.253894      2.253894     0.000000    Cartesian    0.00
    397 y         11.269468     11.284303     0.014835    Cartesian    0.13
    397 z         -6.761681     -6.744875     0.016805    Cartesian   -0.25
    398 x          2.253894      2.253894     0.000000    Cartesian    0.00
    398 y         -6.761681     -6.743978     0.017703    Cartesian   -0.26
    398 z         11.269468     11.285249     0.015781    Cartesian    0.14
--------------------------------------------------------------------------------


  Time to end of optimisation  =      184.3005 seconds


  Peak dynamic memory used =     144.25 MB 


  Timing analysis for GULP :

--------------------------------------------------------------------------------
  Task / Subroutine                                          Time (Seconds)
--------------------------------------------------------------------------------
  Calculation of reciprocal space energy and derivatives          0.0006
  Calculation of reciprocal space energy using symmetry           0.0009
  Calculation of real space energy and derivatives                0.0035
  Calculation of real space energy using symmetry                 0.0085
  Calculation for region 1 energy and derivatives (2-b)          61.8962
  Calculation for region 2a energy                              117.1339
  Calculation for region 2b energy                                0.0149
  Calculation and manipulation of Hessian matrix                  0.2130
  Calculation of matrix inversion                                 4.6224
  Symmetry generation of equivalent positions                     0.0042
--------------------------------------------------------------------------------
  Total CPU time                                                184.3006
--------------------------------------------------------------------------------


  Dump file written as Na3OCl.grs


  Job Finished at 18:15.06  3rd December   2020                               

