********************************************************************************
*                       GENERAL UTILITY LATTICE PROGRAM                        *
*                                 Julian Gale                                  *
*                       Curtin Institute for Computation                       *
*                    School of Molecular and Life Sciences                     *
*                    Curtin University, Western Australia                      *
********************************************************************************
* Version = 5.2.0 * Last modified =  10th September 2020                       *
********************************************************************************
*  optimise     - perform optimisation run                                     *
*  conp         - constant pressure calculation                                *
*  property     - calculate properties for final geometry                      *
*  defect       - perform defect calculation after bulk run                    *
*  compare      - compare initial and final structures                         *
********************************************************************************

  Job Started  at 18:15.06  3rd December   2020                               

  Number of CPUs =     1


  Total number of configurations input =      1

********************************************************************************
*  Input for Configuration =   1                                               *
********************************************************************************

  Formula = ClONa3                                                      

  Number of irreducible atoms/shells =       5


  Total number atoms/shells =       7

  Dimensionality = 3               :  Bulk   


  Symmetry :

  Crystal family                   :  Cubic       
  Crystal class  (Groth - 1921)    :  Cubic Hexakisoctahedral              

  Space group (centrosymmetric)    :  P M 3 M         

  Patterson group                  :  P m -3 m 

  Cartesian lattice vectors (Angstroms) :

        4.504000    0.000000    0.000000
        0.000000    4.504000    0.000000
        0.000000    0.000000    4.504000

  Cell parameters (Angstroms/Degrees):

  a =       4.5040    alpha =  90.0000
  b =       4.5040    beta  =  90.0000
  c =       4.5040    gamma =  90.0000

  Initial cell volume =          91.368216 Angs**3

  Temperature of configuration =   0.00     K 

  Pressure of configuration =         0.000 GPa 

  Fractional coordinates of asymmetric unit :

--------------------------------------------------------------------------------
   No.  Atomic       x           y          z         Charge      Occupancy
        Label      (Frac)      (Frac)     (Frac)        (e)         (Frac)  
--------------------------------------------------------------------------------
      1 Cl    c    0.000000    0.000000    0.000000     1.48500    1.000000    
      2 O     c    0.500000    0.500000    0.500000     0.18300    1.000000    
      3 Na    c    0.500000    0.500000    0.000000     1.00000    1.000000    
      4 Cl    s    0.000000    0.000000    0.000000    -2.48500    1.000000    
      5 O     s    0.500000    0.500000    0.500000    -2.18300    1.000000    
--------------------------------------------------------------------------------


  Constraints : 

--------------------------------------------------------------------------------
  Constraint no.      Unconstrained     Constrained    Coefficient    Offset
                         Variable         Variable
--------------------------------------------------------------------------------
           1              Strain 1        Strain 2       1.00000      0.0000
           2              Strain 1        Strain 3       1.00000      0.0000
--------------------------------------------------------------------------------


********************************************************************************
*  General input information                                                   *
********************************************************************************

  Species output for all configurations : 

--------------------------------------------------------------------------------
  Species    Type    Atomic    Atomic    Charge       Radii (Angs)     Library
                     Number     Mass       (e)     Cova   Ionic  VDW   Symbol
--------------------------------------------------------------------------------
    Na       Core       11      22.99   1.000000   0.970  0.000  2.300          
    O        Core        8      16.00   0.183000   0.730  0.000  1.360          
    O        Shell       8       0.00  -2.183000   0.730  0.000  0.000          
    Cl       Core       17      35.45   1.485000   0.990  0.000  1.650          
    Cl       Shell      17       0.00  -2.485000   0.990  0.000  0.000          
    Mg       Core       12      24.31   0.415000   1.100  0.000  0.000          
    Mg       Shell      12       0.00   1.585000   1.100  0.000  0.000          
    Ca       Core       20      40.08  -1.135000   0.990  0.000  0.000          
    Ca       Shell      20       0.00   3.135000   0.990  0.000  0.000          
    Sr       Core       38      87.62  -1.251000   1.120  0.000  0.000          
    Sr       Shell      38       0.00   3.251000   1.120  0.000  0.000          
    Ba       Core       56     137.33  -7.203000   1.340  0.000  0.000          
    Ba       Shell      56       0.00   9.203000   1.340  0.000  0.000          
--------------------------------------------------------------------------------


  Lattice summation method               =    Ewald          (3-D)
                                         =    Parry          (2-D)
                                         =    Saunders et al (1-D)
  Accuracy factor for lattice sums       =   12.000


  Analytic derivatives to be used

  Time limit = Infinity

  Maximum range for interatomic potentials =    100000.000000 Angstroms

  General interatomic potentials :

--------------------------------------------------------------------------------
Atom  Types   Potential      Parameter       Value         Units   Cutoffs(Ang)
  1     2                                                            Min /  Max 
--------------------------------------------------------------------------------
O    c O    s Spring (c-s)  Spring k 2       593.71600    eV*Ang^-2 0.000  0.800
                            Spring k 4       0.0000000    eV*Ang^-4 
--------------------------------------------------------------------------------
Cl   c Cl   s Spring (c-s)  Spring k 2       29.380000    eV*Ang^-2 0.000  0.800
                            Spring k 4       0.0000000    eV*Ang^-4 
--------------------------------------------------------------------------------
Mg   c Mg   s Spring (c-s)  Spring k 2       361.60000    eV*Ang^-2 0.000  0.800
                            Spring k 4       0.0000000    eV*Ang^-4 
--------------------------------------------------------------------------------
Ca   c Ca   s Spring (c-s)  Spring k 2       110.20000    eV*Ang^-2 0.000  0.800
                            Spring k 4       0.0000000    eV*Ang^-4 
--------------------------------------------------------------------------------
Sr   c Sr   s Spring (c-s)  Spring k 2       71.700000    eV*Ang^-2 0.000  0.800
                            Spring k 4       0.0000000    eV*Ang^-4 
--------------------------------------------------------------------------------
Ba   c Ba   s Spring (c-s)  Spring k 2       495.20000    eV*Ang^-2 0.000  0.800
                            Spring k 4       0.0000000    eV*Ang^-4 
--------------------------------------------------------------------------------
Na   c Na   c Buckingham    Buckingham A     1788.1900    eV        0.000 12.000
                            Buckingham rho  0.15900000    Ang       
                            Buckingham C     0.0000000    eV*Ang^6  
--------------------------------------------------------------------------------
Na   c O    s Buckingham    Buckingham A     1226.8400    eV        0.000 12.000
                            Buckingham rho  0.30700000    Ang       
                            Buckingham C     0.0000000    eV*Ang^6  
--------------------------------------------------------------------------------
Na   c Cl   s Buckingham    Buckingham A     2314.7000    eV        0.000 12.000
                            Buckingham rho  0.29000000    Ang       
                            Buckingham C     0.0000000    eV*Ang^6  
--------------------------------------------------------------------------------
O    s O    s Buckingham    Buckingham A     22764.300    eV        0.000 12.000
                            Buckingham rho  0.14900000    Ang       
                            Buckingham C     13.190000    eV*Ang^6  
--------------------------------------------------------------------------------
O    s Cl   s Buckingham    Buckingham A     8286.9100    eV        0.000 12.000
                            Buckingham rho  0.25900000    Ang       
                            Buckingham C     62.200000    eV*Ang^6  
--------------------------------------------------------------------------------
Cl   s Cl   s Buckingham    Buckingham A     1227.2000    eV        0.000 12.000
                            Buckingham rho  0.32100000    Ang       
                            Buckingham C     14.530000    eV*Ang^6  
--------------------------------------------------------------------------------
O    s Mg   s Buckingham    Buckingham A     1428.5000    eV        0.000 12.000
                            Buckingham rho  0.29450000    Ang       
                            Buckingham C     0.0000000    eV*Ang^6  
--------------------------------------------------------------------------------
Mg   s Cl   s Buckingham    Buckingham A     4914.5400    eV        0.000 12.000
                            Buckingham rho  0.25700000    Ang       
                            Buckingham C     0.0000000    eV*Ang^6  
--------------------------------------------------------------------------------
O    s Ca   s Buckingham    Buckingham A     1090.4000    eV        0.000 12.000
                            Buckingham rho  0.34370000    Ang       
                            Buckingham C     0.0000000    eV*Ang^6  
--------------------------------------------------------------------------------
Cl   s Ca   s Buckingham    Buckingham A     2302.0000    eV        0.000 12.000
                            Buckingham rho  0.34020000    Ang       
                            Buckingham C     0.0000000    eV*Ang^6  
--------------------------------------------------------------------------------
O    s Sr   s Buckingham    Buckingham A     959.10000    eV        0.000 12.000
                            Buckingham rho  0.37210000    Ang       
                            Buckingham C     0.0000000    eV*Ang^6  
--------------------------------------------------------------------------------
Cl   s Sr   s Buckingham    Buckingham A     2191.0900    eV        0.000 12.000
                            Buckingham rho  0.34570000    Ang       
                            Buckingham C     0.0000000    eV*Ang^6  
--------------------------------------------------------------------------------
O    s Ba   s Buckingham    Buckingham A     905.70000    eV        0.000 12.000
                            Buckingham rho  0.39760000    Ang       
                            Buckingham C     0.0000000    eV*Ang^6  
--------------------------------------------------------------------------------
Cl   s Ba   s Buckingham    Buckingham A     2704.5500    eV        0.000 12.000
                            Buckingham rho  0.35280000    Ang       
                            Buckingham C     0.0000000    eV*Ang^6  
--------------------------------------------------------------------------------

********************************************************************************
*  Output for configuration   1                                                *
********************************************************************************


  Components of energy : 

--------------------------------------------------------------------------------
  Interatomic potentials     =           5.13022605 eV    
  Monopole - monopole (real) =         -10.03624526 eV    
  Monopole - monopole (recip)=         -29.53581274 eV    
  Monopole - monopole (total)=         -39.57205800 eV    
--------------------------------------------------------------------------------
  Total lattice energy       =         -34.44183194 eV    
--------------------------------------------------------------------------------
  Total lattice energy       =           -3323.1103 kJ/(mole unit cells)
--------------------------------------------------------------------------------


  Number of variables =        1

  Maximum number of calculations  =          1000
  Maximum Hessian update interval =            10
  Maximum step size               =   1.000000000
  Maximum parameter tolerance     =   0.000010000
  Maximum function  tolerance     =   0.000010000
  Maximum gradient  tolerance     =   0.001000000
  Maximum gradient  component     =   0.010000000

  Symmetry constrained optimisation

  Symmetry used for second derivatives

  Cell parameters to be optimised using strains

  Newton-Raphson optimiser to be used

  BFGS hessian update to be used

  Lower half triangular hessian to be used

  Start of bulk optimisation :

  Cycle:      0 Energy:       -34.441832  Gnorm:      0.196570  CPU:    0.017
  ** Hessian calculated **
  Cycle:      1 Energy:       -34.441914  Gnorm:      0.000103  CPU:    0.021


  **** Optimisation achieved ****


  Final energy =     -34.44191447 eV
  Final Gnorm  =       0.00000000

  Components of energy : 

--------------------------------------------------------------------------------
  Interatomic potentials     =           5.09689708 eV    
  Monopole - monopole (real) =         -10.02781331 eV    
  Monopole - monopole (recip)=         -29.51099824 eV    
  Monopole - monopole (total)=         -39.53881155 eV    
--------------------------------------------------------------------------------
  Total lattice energy       =         -34.44191447 eV    
--------------------------------------------------------------------------------
  Total lattice energy       =           -3323.1183 kJ/(mole unit cells)
--------------------------------------------------------------------------------

  Final asymmetric unit coordinates :

--------------------------------------------------------------------------------
   No.  Atomic        x           y           z         Radius
        Label       (Frac)      (Frac)      (Frac)       (Angs) 
--------------------------------------------------------------------------------
     1  Cl    c     0.000000    0.000000    0.000000    0.000000
     2  O     c     0.500000    0.500000    0.500000    0.000000
     3  Na    c     0.500000    0.500000    0.000000    0.000000
     4  Cl    s     0.000000    0.000000    0.000000    0.000000
     5  O     s     0.500000    0.500000    0.500000    0.000000
--------------------------------------------------------------------------------

  Final Cartesian lattice vectors (Angstroms) :

        4.507787    0.000000    0.000000
        0.000000    4.507787    0.000000
        0.000000    0.000000    4.507787


  Final cell parameters and derivatives :

--------------------------------------------------------------------------------
       a            4.507787 Angstrom     dE/de1(xx)     0.000000 eV/strain
       b            4.507787 Angstrom     dE/de2(yy)     0.000000 eV/strain
       c            4.507787 Angstrom     dE/de3(zz)     0.000000 eV/strain
       alpha       90.000000 Degrees      dE/de4(yz)     0.000000 eV/strain
       beta        90.000000 Degrees      dE/de5(xz)     0.000000 eV/strain
       gamma       90.000000 Degrees      dE/de6(xy)     0.000000 eV/strain
--------------------------------------------------------------------------------

  Primitive cell volume =            91.598892 Angs**3

  Density of cell =      2.183054 g/cm**3

  Non-primitive cell volume =            91.598892 Angs**3


  Final internal derivatives :

--------------------------------------------------------------------------------
   No.  Atomic          a             b             c           Radius
        Label          (eV)          (eV)          (eV)        (eV/Angs)
--------------------------------------------------------------------------------
      1 Cl    c       0.000000      0.000000      0.000000      0.000000
      2 O     c       0.000000      0.000000      0.000000      0.000000
      3 Na    c       0.000000      0.000000      0.000000      0.000000
      4 Cl    s       0.000000      0.000000      0.000000      0.000000
      5 O     s       0.000000      0.000000      0.000000      0.000000
--------------------------------------------------------------------------------
  Maximum abs         0.000000      0.000000      0.000000      0.000000
--------------------------------------------------------------------------------

  Comparison of initial and final structures : 

--------------------------------------------------------------------------------
  Parameter   Initial value   Final value   Difference    Units      Percent
--------------------------------------------------------------------------------
    Volume        91.368216     91.598892     0.230676    Angs**3      0.25
    a              4.504000      4.507787     0.003787    Angstroms    0.08
    b              4.504000      4.507787     0.003787    Angstroms    0.08
    c              4.504000      4.507787     0.003787    Angstroms    0.08
    alpha         90.000000     90.000000     0.000000    Degrees      0.00
    beta          90.000000     90.000000     0.000000    Degrees      0.00
    gamma         90.000000     90.000000     0.000000    Degrees      0.00
      1 x          0.000000      0.000000     0.000000    Fractional   0.00
      1 y          0.000000      0.000000     0.000000    Fractional   0.00
      1 z          0.000000      0.000000     0.000000    Fractional   0.00
      2 x          0.500000      0.500000     0.000000    Fractional   0.00
      2 y          0.500000      0.500000     0.000000    Fractional   0.00
      2 z          0.500000      0.500000     0.000000    Fractional   0.00
      3 x          0.500000      0.500000     0.000000    Fractional   0.00
      3 y          0.500000      0.500000     0.000000    Fractional   0.00
      3 z          0.000000      0.000000     0.000000    Fractional   0.00
      4 x          0.000000      0.000000     0.000000    Fractional   0.00
      4 y          0.000000      0.000000     0.000000    Fractional   0.00
      4 z          0.000000      0.000000     0.000000    Fractional   0.00
      5 x          0.500000      0.500000     0.000000    Fractional   0.00
      5 y          0.500000      0.500000     0.000000    Fractional   0.00
      5 z          0.500000      0.500000     0.000000    Fractional   0.00
--------------------------------------------------------------------------------


  Born effective charge tensors : 

-------------------------------------------------------------------------------
  Atom             x           y             z
-------------------------------------------------------------------------------
    1 Cl    x      -1.0181     -0.0000      0.0000
            y      -0.0000     -1.0181      0.0000
            z       0.0000      0.0000     -1.0181
-------------------------------------------------------------------------------
    2 O     x      -2.2647      0.0000     -0.0000
            y       0.0000     -2.2647     -0.0000
            z      -0.0000     -0.0000     -2.2647
-------------------------------------------------------------------------------
    3 Na    x       1.2258     -0.0000      0.0000
            y      -0.0000      1.2258     -0.0000
            z       0.0000     -0.0000      0.8313
-------------------------------------------------------------------------------




  Elastic Constant Matrix: (Units=GPa)

-------------------------------------------------------------------------------
  Indices      1         2         3         4         5         6    
-------------------------------------------------------------------------------
       1     95.8177   20.0737   20.0737   -0.0000   -0.0000    0.0000
       2     20.0737   95.8177   20.0737   -0.0000   -0.0000    0.0000
       3     20.0737   20.0737   95.8177   -0.0000   -0.0000    0.0000
       4     -0.0000   -0.0000   -0.0000   20.0737   -0.0000    0.0000
       5     -0.0000   -0.0000   -0.0000   -0.0000   20.0737    0.0000
       6      0.0000    0.0000    0.0000    0.0000    0.0000   20.0737
-------------------------------------------------------------------------------


  Elastic Compliance Matrix: (Units=1/GPa)

-------------------------------------------------------------------------------
  Indices      1         2         3         4         5         6    
-------------------------------------------------------------------------------
       1    0.011253 -0.001949 -0.001949  0.000000  0.000000 -0.000000
       2   -0.001949  0.011253 -0.001949  0.000000  0.000000  0.000000
       3   -0.001949 -0.001949  0.011253  0.000000  0.000000 -0.000000
       4    0.000000  0.000000  0.000000  0.049816  0.000000 -0.000000
       5    0.000000  0.000000  0.000000  0.000000  0.049816 -0.000000
       6   -0.000000  0.000000 -0.000000 -0.000000 -0.000000  0.049816
-------------------------------------------------------------------------------

  Mechanical properties :

-------------------------------------------------------------------------------
  Convention :                    Reuss         Voigt         Hill
-------------------------------------------------------------------------------
  Bulk  Modulus (GPa)     =      45.32174      45.32174      45.32174
  Shear Modulus (GPa)     =      24.72085      27.19304      25.95695
-------------------------------------------------------------------------------
  Velocity S-wave (km/s)  =       3.36511       3.52937       3.44822
  Velocity P-wave (km/s)  =       5.98827       6.11304       6.05098
-------------------------------------------------------------------------------
  Compressibility (1/GPa) =    0.02206447
-------------------------------------------------------------------------------
  Stress axis :                     x             y             z
-------------------------------------------------------------------------------
  Youngs Moduli (GPa)     =      88.86373      88.86373      88.86373
-------------------------------------------------------------------------------
  Poissons Ratio (x)      =                     0.17321       0.17321
  Poissons Ratio (y)      =       0.17321                     0.17321
  Poissons Ratio (z)      =       0.17321       0.17321
-------------------------------------------------------------------------------


  Piezoelectric Strain Matrix: (Units=C/m**2)

-------------------------------------------------------------------------------
  Indices      1         2         3         4         5         6    
-------------------------------------------------------------------------------
       x    -0.00000  -0.00000  -0.00000   0.00000  -0.00000  -0.00000
       y    -0.00000  -0.00000   0.00000  -0.00000   0.00000   0.00000
       z    -0.00000  -0.00000  -0.00000  -0.00000   0.00000   0.00000
-------------------------------------------------------------------------------


  Piezoelectric Stress Matrix: (Units=10**-11 C/N)

-------------------------------------------------------------------------------
  Indices      1         2         3         4         5         6    
-------------------------------------------------------------------------------
       x    -0.00000   0.00000   0.00000   0.00000  -0.00000  -0.00000
       y    -0.00000  -0.00000   0.00000  -0.00000   0.00000   0.00000
       z     0.00000   0.00000  -0.00000  -0.00000   0.00000   0.00000
-------------------------------------------------------------------------------


  Static dielectric constant tensor : 

-------------------------------------------------------------------------------
              x         y         z
-------------------------------------------------------------------------------
       x    22.84729   0.00000   0.00000
       y     0.00000  22.84729  -0.00000
       z     0.00000  -0.00000  22.84729
--------------------------------------------------------------------------------

  High frequency dielectric constant tensor : 

-------------------------------------------------------------------------------
              x         y         z
-------------------------------------------------------------------------------
       x     1.47557   0.00000  -0.00000
       y     0.00000   1.47557  -0.00000
       z    -0.00000  -0.00000   1.47557
-------------------------------------------------------------------------------

  Static refractive indices : 

-------------------------------------------------------------------------------
    1 =    4.77988      2 =    4.77988      3 =    4.77988
-------------------------------------------------------------------------------

  High frequency refractive indices : 

-------------------------------------------------------------------------------
    1 =    1.21473      2 =    1.21473      3 =    1.21473
-------------------------------------------------------------------------------


  Time to end of optimisation =       0.0317 seconds

********************************************************************************
*  Defect calculation for configuration   1 :                                  *
********************************************************************************

  Total number of defects =      3

  Total charge on defect  =  -1.00

  Defect centre is at   0.5000   0.2500   0.2500  Frac

  Region 1 radius =  13.0000      Number of ions =    685

  Number of symmetry inequivalent region 1 ions  =    398

  Region 2 radius =  21.0000      Number of ions =   2280

  Number of symmetry inequivalent region 2a ions =   1222

  Region 2a mode = 4 : screened electrostatics due to region 1 
                       neglect correction to region 1 forces from 2a
                       region 2a displacements based on defects only

  Region 2a ions will only interact with defects in region 1

  Vacancies:

--------------------------------------------------------------------------------
    Specification type     Symbol/Number         x          y          z
--------------------------------------------------------------------------------
    Fractional                               0.500000   0.500000   0.000000
    Fractional                               0.500000   0.000000   0.500000
--------------------------------------------------------------------------------

  Interstitials:

--------------------------------------------------------------------------------
    Specification type     Symbol/Number         x          y          z
--------------------------------------------------------------------------------
    Atom/Fractional         Na               0.500000   0.270000   0.230000
--------------------------------------------------------------------------------


  Symmetry reduced region 1 (Relative to defect centre) :

--------------------------------------------------------------------------------
   No.   Atomic       x            y             z       Radius  Multiplicity   
         Label      (Angs)       (Angs)        (Angs)    (Angs)     
--------------------------------------------------------------------------------
     1  Na    c      0.0000       0.0902      -0.0902    0.0000     1    Defect
     2  O     c      0.0000       1.1269 *     1.1269 *  0.0000     1          
     3  Cl    c      2.2539 *    -1.1269 *    -1.1269 *  0.0000     2          
     4  Na    c      2.2539 *     1.1269 *     1.1269 *  0.0000     2          
     5  O     c      0.0000       1.1269 *    -3.3808 *  0.0000     1          
     6  O     c      0.0000      -3.3808 *     1.1269 *  0.0000     1          
     7  Na    c      0.0000       1.1269 *     3.3808 *  0.0000     1          
     8  Na    c      0.0000      -3.3808 *    -1.1269 *  0.0000     1          
     9  Na    c      0.0000      -1.1269 *    -3.3808 *  0.0000     1          
    10  Na    c      0.0000       3.3808 *     1.1269 *  0.0000     1          
    11  Cl    c      2.2539 *    -1.1269 *     3.3808 *  0.0000     2          
    12  Cl    c      2.2539 *     3.3808 *    -1.1269 *  0.0000     2          
    13  Na    c      2.2539 *     1.1269 *    -3.3808 *  0.0000     2          
    14  Na    c      2.2539 *    -3.3808 *     1.1269 *  0.0000     2          
    15  O     c     -4.5078 *     1.1269 *     1.1269 *  0.0000     2          
    16  Na    c     -4.5078 *     1.1269 *    -1.1269 *  0.0000     2          
    17  Na    c     -4.5078 *    -1.1269 *     1.1269 *  0.0000     2          
    18  O     c      0.0000      -3.3808 *    -3.3808 *  0.0000     1          
    19  Na    c      0.0000      -3.3808 *     3.3808 *  0.0000     1          
    20  Na    c      0.0000       3.3808 *    -3.3808 *  0.0000     1          
    21  Cl    c      2.2539 *     3.3808 *     3.3808 *  0.0000     2          
    22  Na    c      2.2539 *    -3.3808 *    -3.3808 *  0.0000     2          
    23  O     c      0.0000       1.1269 *     5.6347 *  0.0000     1          
    24  O     c      0.0000       5.6347 *     1.1269 *  0.0000     1          
    25  Na    c      0.0000       1.1269 *    -5.6347 *  0.0000     1          
    26  Na    c      0.0000       5.6347 *    -1.1269 *  0.0000     1          
    27  Na    c      0.0000      -1.1269 *     5.6347 *  0.0000     1          
    28  Na    c      0.0000      -5.6347 *     1.1269 *  0.0000     1          
    29  O     c     -4.5078 *     1.1269 *    -3.3808 *  0.0000     2          
    30  O     c     -4.5078 *    -3.3808 *     1.1269 *  0.0000     2          
    31  Na    c     -4.5078 *     1.1269 *     3.3808 *  0.0000     2          
    32  Na    c     -4.5078 *    -3.3808 *    -1.1269 *  0.0000     2          
    33  Na    c     -4.5078 *    -1.1269 *    -3.3808 *  0.0000     2          
    34  Na    c     -4.5078 *     3.3808 *     1.1269 *  0.0000     2          
    35  Cl    c      2.2539 *    -1.1269 *    -5.6347 *  0.0000     2          
    36  Cl    c      2.2539 *    -5.6347 *    -1.1269 *  0.0000     2          
    37  Na    c      2.2539 *     1.1269 *     5.6347 *  0.0000     2          
    38  Na    c      2.2539 *     5.6347 *     1.1269 *  0.0000     2          
    39  O     c      0.0000       5.6347 *    -3.3808 *  0.0000     1          
    40  O     c      0.0000      -3.3808 *     5.6347 *  0.0000     1          
    41  Na    c      0.0000       5.6347 *     3.3808 *  0.0000     1          
    42  Na    c      0.0000      -3.3808 *    -5.6347 *  0.0000     1          
    43  Na    c      0.0000       3.3808 *     5.6347 *  0.0000     1          
    44  Na    c      0.0000      -5.6347 *    -3.3808 *  0.0000     1          
    45  O     c      4.5078 *    -3.3808 *    -3.3808 *  0.0000     2          
    46  Na    c      4.5078 *    -3.3808 *     3.3808 *  0.0000     2          
    47  Na    c      4.5078 *     3.3808 *    -3.3808 *  0.0000     2          
    48  Cl    c      2.2539 *     3.3808 *    -5.6347 *  0.0000     2          
    49  Cl    c      2.2539 *    -5.6347 *     3.3808 *  0.0000     2          
    50  Na    c      2.2539 *     5.6347 *    -3.3808 *  0.0000     2          
    51  Na    c      2.2539 *    -3.3808 *     5.6347 *  0.0000     2          
    52  Cl    c      6.7617 *    -1.1269 *    -1.1269 *  0.0000     2          
    53  Na    c      6.7617 *     1.1269 *     1.1269 *  0.0000     2          
    54  O     c     -4.5078 *     1.1269 *     5.6347 *  0.0000     2          
    55  Na    c     -4.5078 *     1.1269 *    -5.6347 *  0.0000     2          
    56  Na    c     -4.5078 *    -1.1269 *     5.6347 *  0.0000     2          
    57  O     c      4.5078 *     5.6347 *     1.1269 *  0.0000     2          
    58  Na    c      4.5078 *     5.6347 *    -1.1269 *  0.0000     2          
    59  Na    c      4.5078 *    -5.6347 *     1.1269 *  0.0000     2          
    60  Cl    c      6.7617 *    -1.1269 *     3.3808 *  0.0000     2          
    61  Na    c      6.7617 *     1.1269 *    -3.3808 *  0.0000     2          
    62  Cl    c      6.7617 *     3.3808 *    -1.1269 *  0.0000     2          
    63  Na    c      6.7617 *    -3.3808 *     1.1269 *  0.0000     2          
    64  O     c      0.0000       5.6347 *     5.6347 *  0.0000     1          
    65  Na    c      0.0000       5.6347 *    -5.6347 *  0.0000     1          
    66  Na    c      0.0000      -5.6347 *     5.6347 *  0.0000     1          
    67  O     c     -4.5078 *    -3.3808 *     5.6347 *  0.0000     2          
    68  Na    c     -4.5078 *    -3.3808 *    -5.6347 *  0.0000     2          
    69  Na    c     -4.5078 *     3.3808 *     5.6347 *  0.0000     2          
    70  O     c      0.0000       1.1269 *    -7.8886 *  0.0000     1          
    71  O     c      0.0000      -7.8886 *     1.1269 *  0.0000     1          
    72  O     c      4.5078 *     5.6347 *    -3.3808 *  0.0000     2          
    73  Na    c      0.0000       1.1269 *     7.8886 *  0.0000     1          
    74  Na    c      0.0000      -7.8886 *    -1.1269 *  0.0000     1          
    75  Na    c      4.5078 *     5.6347 *     3.3808 *  0.0000     2          
    76  Na    c      0.0000      -1.1269 *    -7.8886 *  0.0000     1          
    77  Na    c      0.0000       7.8886 *     1.1269 *  0.0000     1          
    78  Na    c      4.5078 *    -5.6347 *    -3.3808 *  0.0000     2          
    79  Cl    c      2.2539 *    -5.6347 *    -5.6347 *  0.0000     2          
    80  Na    c      2.2539 *     5.6347 *     5.6347 *  0.0000     2          
    81  Cl    c      2.2539 *    -1.1269 *     7.8886 *  0.0000     2          
    82  Na    c      2.2539 *     1.1269 *    -7.8886 *  0.0000     2          
    83  Cl    c      2.2539 *     7.8886 *    -1.1269 *  0.0000     2          
    84  Cl    c      6.7617 *     3.3808 *     3.3808 *  0.0000     2          
    85  Na    c      2.2539 *    -7.8886 *     1.1269 *  0.0000     2          
    86  Na    c      6.7617 *    -3.3808 *    -3.3808 *  0.0000     2          
    87  O     c      0.0000      -3.3808 *    -7.8886 *  0.0000     1          
    88  O     c      0.0000      -7.8886 *    -3.3808 *  0.0000     1          
    89  Na    c      0.0000      -3.3808 *     7.8886 *  0.0000     1          
    90  Na    c      0.0000      -7.8886 *     3.3808 *  0.0000     1          
    91  Na    c      0.0000       3.3808 *    -7.8886 *  0.0000     1          
    92  Na    c      0.0000       7.8886 *    -3.3808 *  0.0000     1          
    93  Cl    c      2.2539 *     3.3808 *     7.8886 *  0.0000     2          
    94  Cl    c      6.7617 *    -1.1269 *    -5.6347 *  0.0000     2          
    95  Na    c      2.2539 *    -3.3808 *    -7.8886 *  0.0000     2          
    96  Na    c      6.7617 *     1.1269 *     5.6347 *  0.0000     2          
    97  Cl    c      2.2539 *     7.8886 *     3.3808 *  0.0000     2          
    98  Cl    c      6.7617 *    -5.6347 *    -1.1269 *  0.0000     2          
    99  Na    c      2.2539 *    -7.8886 *    -3.3808 *  0.0000     2          
   100  Na    c      6.7617 *     5.6347 *     1.1269 *  0.0000     2          
   101  O     c      4.5078 *     5.6347 *     5.6347 *  0.0000     2          
   102  O     c      4.5078 *    -7.8886 *     1.1269 *  0.0000     2          
   103  O     c      9.0156 *     1.1269 *     1.1269 *  0.0000     2          
   104  O     c     -4.5078 *     1.1269 *    -7.8886 *  0.0000     2          
   105  Na    c      4.5078 *     5.6347 *    -5.6347 *  0.0000     2          
   106  Na    c      4.5078 *    -7.8886 *    -1.1269 *  0.0000     2          
   107  Na    c      9.0156 *     1.1269 *    -1.1269 *  0.0000     2          
   108  Na    c     -4.5078 *     1.1269 *     7.8886 *  0.0000     2          
   109  Na    c      4.5078 *     7.8886 *     1.1269 *  0.0000     2          
   110  Na    c      4.5078 *    -5.6347 *     5.6347 *  0.0000     2          
   111  Na    c      9.0156 *    -1.1269 *     1.1269 *  0.0000     2          
   112  Na    c     -4.5078 *    -1.1269 *    -7.8886 *  0.0000     2          
   113  Cl    c      6.7617 *     3.3808 *    -5.6347 *  0.0000     2          
   114  Na    c      6.7617 *    -3.3808 *     5.6347 *  0.0000     2          
   115  Cl    c      6.7617 *    -5.6347 *     3.3808 *  0.0000     2          
   116  Na    c      6.7617 *     5.6347 *    -3.3808 *  0.0000     2          
   117  O     c      0.0000       5.6347 *    -7.8886 *  0.0000     1          
   118  O     c      0.0000      -7.8886 *     5.6347 *  0.0000     1          
   119  O     c      9.0156 *    -3.3808 *     1.1269 *  0.0000     2          
   120  O     c     -4.5078 *    -3.3808 *    -7.8886 *  0.0000     2          
   121  Na    c      0.0000       5.6347 *     7.8886 *  0.0000     1          
   122  Na    c      0.0000      -7.8886 *    -5.6347 *  0.0000     1          
   123  Na    c      9.0156 *    -3.3808 *    -1.1269 *  0.0000     2          
   124  Na    c     -4.5078 *    -3.3808 *     7.8886 *  0.0000     2          
   125  Na    c      0.0000       7.8886 *     5.6347 *  0.0000     1          
   126  Na    c      0.0000      -5.6347 *    -7.8886 *  0.0000     1          
   127  Na    c      9.0156 *     3.3808 *     1.1269 *  0.0000     2          
   128  Na    c     -4.5078 *     3.3808 *    -7.8886 *  0.0000     2          
   129  O     c      4.5078 *    -7.8886 *    -3.3808 *  0.0000     2          
   130  O     c      9.0156 *     1.1269 *    -3.3808 *  0.0000     2          
   131  Na    c      4.5078 *    -7.8886 *     3.3808 *  0.0000     2          
   132  Na    c      9.0156 *     1.1269 *     3.3808 *  0.0000     2          
   133  Na    c      4.5078 *     7.8886 *    -3.3808 *  0.0000     2          
   134  Na    c      9.0156 *    -1.1269 *    -3.3808 *  0.0000     2          
   135  Cl    c      2.2539 *     7.8886 *    -5.6347 *  0.0000     2          
   136  Cl    c      2.2539 *    -5.6347 *     7.8886 *  0.0000     2          
   137  Na    c      2.2539 *     5.6347 *    -7.8886 *  0.0000     2          
   138  Na    c      2.2539 *    -7.8886 *     5.6347 *  0.0000     2          
   139  O     c      0.0000      10.1425 *     1.1269 *  0.0000     1          
   140  Na    c      0.0000      10.1425 *    -1.1269 *  0.0000     1          
   141  Na    c      0.0000     -10.1425 *     1.1269 *  0.0000     1          
   142  O     c      0.0000       1.1269 *    10.1425 *  0.0000     1          
   143  O     c      9.0156 *    -3.3808 *    -3.3808 *  0.0000     2          
   144  Na    c      0.0000       1.1269 *   -10.1425 *  0.0000     1          
   145  Na    c      9.0156 *    -3.3808 *     3.3808 *  0.0000     2          
   146  Na    c      0.0000      -1.1269 *    10.1425 *  0.0000     1          
   147  Na    c      9.0156 *     3.3808 *    -3.3808 *  0.0000     2          
   148  Cl    c      6.7617 *    -5.6347 *    -5.6347 *  0.0000     2          
   149  Na    c      6.7617 *     5.6347 *     5.6347 *  0.0000     2          
   150  Cl    c      2.2539 *    -1.1269 *   -10.1425 *  0.0000     2          
   151  Cl    c      2.2539 *   -10.1425 *    -1.1269 *  0.0000     2          
   152  Cl    c      6.7617 *    -1.1269 *     7.8886 *  0.0000     2          
   153  Cl    c      6.7617 *     7.8886 *    -1.1269 *  0.0000     2          
   154  Na    c      2.2539 *     1.1269 *    10.1425 *  0.0000     2          
   155  Na    c      2.2539 *    10.1425 *     1.1269 *  0.0000     2          
   156  Na    c      6.7617 *     1.1269 *    -7.8886 *  0.0000     2          
   157  Na    c      6.7617 *    -7.8886 *     1.1269 *  0.0000     2          
   158  O     c      4.5078 *     5.6347 *    -7.8886 *  0.0000     2          
   159  O     c      4.5078 *    -7.8886 *     5.6347 *  0.0000     2          
   160  O     c      9.0156 *     1.1269 *     5.6347 *  0.0000     2          
   161  O     c      9.0156 *     5.6347 *     1.1269 *  0.0000     2          
   162  Na    c      4.5078 *     5.6347 *     7.8886 *  0.0000     2          
   163  Na    c      4.5078 *    -7.8886 *    -5.6347 *  0.0000     2          
   164  Na    c      9.0156 *     1.1269 *    -5.6347 *  0.0000     2          
   165  Na    c      9.0156 *     5.6347 *    -1.1269 *  0.0000     2          
   166  Na    c      4.5078 *     7.8886 *     5.6347 *  0.0000     2          
   167  Na    c      4.5078 *    -5.6347 *    -7.8886 *  0.0000     2          
   168  Na    c      9.0156 *    -1.1269 *     5.6347 *  0.0000     2          
   169  Na    c      9.0156 *    -5.6347 *     1.1269 *  0.0000     2          
   170  O     c      0.0000      10.1425 *    -3.3808 *  0.0000     1          
   171  O     c      0.0000      -3.3808 *    10.1425 *  0.0000     1          
   172  Na    c      0.0000      10.1425 *     3.3808 *  0.0000     1          
   173  Na    c      0.0000      -3.3808 *   -10.1425 *  0.0000     1          
   174  Na    c      0.0000       3.3808 *    10.1425 *  0.0000     1          
   175  Na    c      0.0000     -10.1425 *    -3.3808 *  0.0000     1          
   176  Cl    c      2.2539 *     3.3808 *   -10.1425 *  0.0000     2          
   177  Cl    c      2.2539 *   -10.1425 *     3.3808 *  0.0000     2          
   178  Cl    c      6.7617 *     7.8886 *     3.3808 *  0.0000     2          
   179  Na    c      2.2539 *    10.1425 *    -3.3808 *  0.0000     2          
   180  Na    c      2.2539 *    -3.3808 *    10.1425 *  0.0000     2          
   181  Na    c      6.7617 *    -7.8886 *    -3.3808 *  0.0000     2          
   182  Cl    c      6.7617 *     3.3808 *     7.8886 *  0.0000     2          
   183  Na    c      6.7617 *    -3.3808 *    -7.8886 *  0.0000     2          
   184  O     c      9.0156 *    -3.3808 *     5.6347 *  0.0000     2          
   185  O     c     -4.5078 *    10.1425 *     1.1269 *  0.0000     2          
   186  Na    c      9.0156 *    -3.3808 *    -5.6347 *  0.0000     2          
   187  Na    c     -4.5078 *    10.1425 *    -1.1269 *  0.0000     2          
   188  Na    c      9.0156 *     3.3808 *     5.6347 *  0.0000     2          
   189  Na    c     -4.5078 *   -10.1425 *     1.1269 *  0.0000     2          
   190  O     c      0.0000      -7.8886 *    -7.8886 *  0.0000     1          
   191  O     c      4.5078 *     1.1269 *    10.1425 *  0.0000     2          
   192  O     c      9.0156 *     5.6347 *    -3.3808 *  0.0000     2          
   193  Na    c      0.0000      -7.8886 *     7.8886 *  0.0000     1          
   194  Na    c      4.5078 *     1.1269 *   -10.1425 *  0.0000     2          
   195  Na    c      9.0156 *     5.6347 *     3.3808 *  0.0000     2          
   196  Na    c      0.0000       7.8886 *    -7.8886 *  0.0000     1          
   197  Na    c      4.5078 *    -1.1269 *    10.1425 *  0.0000     2          
   198  Na    c      9.0156 *    -5.6347 *    -3.3808 *  0.0000     2          
   199  Cl    c     11.2695 *    -1.1269 *    -1.1269 *  0.0000     2          
   200  Na    c     11.2695 *     1.1269 *     1.1269 *  0.0000     2          
   201  Cl    c      2.2539 *     7.8886 *     7.8886 *  0.0000     2          
   202  Na    c      2.2539 *    -7.8886 *    -7.8886 *  0.0000     2          
   203  O     c      0.0000       5.6347 *    10.1425 *  0.0000     1          
   204  O     c      0.0000      10.1425 *     5.6347 *  0.0000     1          
   205  O     c     -4.5078 *    10.1425 *    -3.3808 *  0.0000     2          
   206  Na    c      0.0000       5.6347 *   -10.1425 *  0.0000     1          
   207  Na    c      0.0000      10.1425 *    -5.6347 *  0.0000     1          
   208  Na    c     -4.5078 *    10.1425 *     3.3808 *  0.0000     2          
   209  Na    c      0.0000      -5.6347 *    10.1425 *  0.0000     1          
   210  Na    c      0.0000     -10.1425 *     5.6347 *  0.0000     1          
   211  Na    c     -4.5078 *   -10.1425 *    -3.3808 *  0.0000     2          
   212  O     c      4.5078 *    -3.3808 *    10.1425 *  0.0000     2          
   213  Na    c      4.5078 *    -3.3808 *   -10.1425 *  0.0000     2          
   214  Na    c      4.5078 *     3.3808 *    10.1425 *  0.0000     2          
   215  Cl    c     11.2695 *    -1.1269 *     3.3808 *  0.0000     2          
   216  Cl    c     11.2695 *     3.3808 *    -1.1269 *  0.0000     2          
   217  Na    c     11.2695 *     1.1269 *    -3.3808 *  0.0000     2          
   218  Na    c     11.2695 *    -3.3808 *     1.1269 *  0.0000     2          
   219  Cl    c      2.2539 *    -5.6347 *   -10.1425 *  0.0000     2          
   220  Cl    c      2.2539 *   -10.1425 *    -5.6347 *  0.0000     2          
   221  Cl    c      6.7617 *     7.8886 *    -5.6347 *  0.0000     2          
   222  Na    c      2.2539 *     5.6347 *    10.1425 *  0.0000     2          
   223  Na    c      2.2539 *    10.1425 *     5.6347 *  0.0000     2          
   224  Na    c      6.7617 *    -7.8886 *     5.6347 *  0.0000     2          
   225  Cl    c      6.7617 *    -5.6347 *     7.8886 *  0.0000     2          
   226  Na    c      6.7617 *     5.6347 *    -7.8886 *  0.0000     2          
   227  O     c      9.0156 *     5.6347 *     5.6347 *  0.0000     2          
   228  O     c      9.0156 *    -7.8886 *     1.1269 *  0.0000     2          
   229  Na    c      9.0156 *     5.6347 *    -5.6347 *  0.0000     2          
   230  Na    c      9.0156 *    -7.8886 *    -1.1269 *  0.0000     2          
   231  Na    c      9.0156 *     7.8886 *     1.1269 *  0.0000     2          
   232  Na    c      9.0156 *    -5.6347 *     5.6347 *  0.0000     2          
   233  O     c      4.5078 *    -7.8886 *    -7.8886 *  0.0000     2          
   234  O     c      9.0156 *     1.1269 *    -7.8886 *  0.0000     2          
   235  Na    c      4.5078 *    -7.8886 *     7.8886 *  0.0000     2          
   236  Na    c      9.0156 *     1.1269 *     7.8886 *  0.0000     2          
   237  Na    c      4.5078 *     7.8886 *    -7.8886 *  0.0000     2          
   238  Na    c      9.0156 *    -1.1269 *    -7.8886 *  0.0000     2          
   239  Cl    c     11.2695 *     3.3808 *     3.3808 *  0.0000     2          
   240  Na    c     11.2695 *    -3.3808 *    -3.3808 *  0.0000     2          
   241  Cl    c      6.7617 *   -10.1425 *    -1.1269 *  0.0000     2          
   242  Na    c      6.7617 *    10.1425 *     1.1269 *  0.0000     2          
   243  Cl    c      6.7617 *    -1.1269 *   -10.1425 *  0.0000     2          
   244  Na    c      6.7617 *     1.1269 *    10.1425 *  0.0000     2          
   245  O     c      0.0000       1.1269 *   -12.3964 *  0.0000     1          
   246  O     c      0.0000     -12.3964 *     1.1269 *  0.0000     1          
   247  O     c      9.0156 *    -7.8886 *    -3.3808 *  0.0000     2          
   248  O     c     -4.5078 *    10.1425 *     5.6347 *  0.0000     2          
   249  Na    c      0.0000       1.1269 *    12.3964 *  0.0000     1          
   250  Na    c      0.0000     -12.3964 *    -1.1269 *  0.0000     1          
   251  Na    c      9.0156 *    -7.8886 *     3.3808 *  0.0000     2          
   252  Na    c     -4.5078 *    10.1425 *    -5.6347 *  0.0000     2          
   253  Na    c      0.0000      -1.1269 *   -12.3964 *  0.0000     1          
   254  Na    c      0.0000      12.3964 *     1.1269 *  0.0000     1          
   255  Na    c      9.0156 *     7.8886 *    -3.3808 *  0.0000     2          
   256  Na    c     -4.5078 *   -10.1425 *     5.6347 *  0.0000     2          
   257  O     c      4.5078 *     5.6347 *    10.1425 *  0.0000     2          
   258  O     c      9.0156 *    -3.3808 *    -7.8886 *  0.0000     2          
   259  Na    c      4.5078 *     5.6347 *   -10.1425 *  0.0000     2          
   260  Na    c      9.0156 *    -3.3808 *     7.8886 *  0.0000     2          
   261  Na    c      4.5078 *    -5.6347 *    10.1425 *  0.0000     2          
   262  Na    c      9.0156 *     3.3808 *    -7.8886 *  0.0000     2          
   263  Cl    c     11.2695 *    -1.1269 *    -5.6347 *  0.0000     2          
   264  Cl    c     11.2695 *    -5.6347 *    -1.1269 *  0.0000     2          
   265  Na    c     11.2695 *     1.1269 *     5.6347 *  0.0000     2          
   266  Na    c     11.2695 *     5.6347 *     1.1269 *  0.0000     2          
   267  Cl    c      2.2539 *    -1.1269 *    12.3964 *  0.0000     2          
   268  Cl    c      2.2539 *    12.3964 *    -1.1269 *  0.0000     2          
   269  Cl    c      6.7617 *   -10.1425 *     3.3808 *  0.0000     2          
   270  Na    c      2.2539 *     1.1269 *   -12.3964 *  0.0000     2          
   271  Na    c      2.2539 *   -12.3964 *     1.1269 *  0.0000     2          
   272  Na    c      6.7617 *    10.1425 *    -3.3808 *  0.0000     2          
   273  Cl    c      6.7617 *     3.3808 *   -10.1425 *  0.0000     2          
   274  Na    c      6.7617 *    -3.3808 *    10.1425 *  0.0000     2          
   275  O     c      0.0000      -3.3808 *   -12.3964 *  0.0000     1          
   276  O     c      0.0000     -12.3964 *    -3.3808 *  0.0000     1          
   277  Na    c      0.0000      -3.3808 *    12.3964 *  0.0000     1          
   278  Na    c      0.0000     -12.3964 *     3.3808 *  0.0000     1          
   279  Na    c      0.0000       3.3808 *   -12.3964 *  0.0000     1          
   280  Na    c      0.0000      12.3964 *    -3.3808 *  0.0000     1          
   281  O     c      0.0000      10.1425 *    -7.8886 *  0.0000     1          
   282  O     c      0.0000      -7.8886 *    10.1425 *  0.0000     1          
   283  Na    c      0.0000      10.1425 *     7.8886 *  0.0000     1          
   284  Na    c      0.0000      -7.8886 *   -10.1425 *  0.0000     1          
   285  Na    c      0.0000       7.8886 *    10.1425 *  0.0000     1          
   286  Na    c      0.0000     -10.1425 *    -7.8886 *  0.0000     1          
   287  O     s      0.0000       1.1269 *     1.1269 *  0.0000     1          
   288  Cl    s      2.2539 *    -1.1269 *    -1.1269 *  0.0000     2          
   289  O     s      0.0000       1.1269 *    -3.3808 *  0.0000     1          
   290  O     s      0.0000      -3.3808 *     1.1269 *  0.0000     1          
   291  Cl    s      2.2539 *    -1.1269 *     3.3808 *  0.0000     2          
   292  Cl    s      2.2539 *     3.3808 *    -1.1269 *  0.0000     2          
   293  O     s     -4.5078 *     1.1269 *     1.1269 *  0.0000     2          
   294  O     s      0.0000      -3.3808 *    -3.3808 *  0.0000     1          
   295  Cl    s      2.2539 *     3.3808 *     3.3808 *  0.0000     2          
   296  O     s      0.0000       1.1269 *     5.6347 *  0.0000     1          
   297  O     s      0.0000       5.6347 *     1.1269 *  0.0000     1          
   298  O     s     -4.5078 *     1.1269 *    -3.3808 *  0.0000     2          
   299  O     s     -4.5078 *    -3.3808 *     1.1269 *  0.0000     2          
   300  Cl    s      2.2539 *    -1.1269 *    -5.6347 *  0.0000     2          
   301  Cl    s      2.2539 *    -5.6347 *    -1.1269 *  0.0000     2          
   302  O     s      0.0000       5.6347 *    -3.3808 *  0.0000     1          
   303  O     s      0.0000      -3.3808 *     5.6347 *  0.0000     1          
   304  O     s      4.5078 *    -3.3808 *    -3.3808 *  0.0000     2          
   305  Cl    s      2.2539 *     3.3808 *    -5.6347 *  0.0000     2          
   306  Cl    s      2.2539 *    -5.6347 *     3.3808 *  0.0000     2          
   307  Cl    s      6.7617 *    -1.1269 *    -1.1269 *  0.0000     2          
   308  O     s     -4.5078 *     1.1269 *     5.6347 *  0.0000     2          
   309  O     s      4.5078 *     5.6347 *     1.1269 *  0.0000     2          
   310  Cl    s      6.7617 *    -1.1269 *     3.3808 *  0.0000     2          
   311  Cl    s      6.7617 *     3.3808 *    -1.1269 *  0.0000     2          
   312  O     s      0.0000       5.6347 *     5.6347 *  0.0000     1          
   313  O     s     -4.5078 *    -3.3808 *     5.6347 *  0.0000     2          
   314  O     s      0.0000       1.1269 *    -7.8886 *  0.0000     1          
   315  O     s      0.0000      -7.8886 *     1.1269 *  0.0000     1          
   316  O     s      4.5078 *     5.6347 *    -3.3808 *  0.0000     2          
   317  Cl    s      2.2539 *    -5.6347 *    -5.6347 *  0.0000     2          
   318  Cl    s      2.2539 *    -1.1269 *     7.8886 *  0.0000     2          
   319  Cl    s      2.2539 *     7.8886 *    -1.1269 *  0.0000     2          
   320  Cl    s      6.7617 *     3.3808 *     3.3808 *  0.0000     2          
   321  O     s      0.0000      -3.3808 *    -7.8886 *  0.0000     1          
   322  O     s      0.0000      -7.8886 *    -3.3808 *  0.0000     1          
   323  Cl    s      2.2539 *     3.3808 *     7.8886 *  0.0000     2          
   324  Cl    s      6.7617 *    -1.1269 *    -5.6347 *  0.0000     2          
   325  Cl    s      2.2539 *     7.8886 *     3.3808 *  0.0000     2          
   326  Cl    s      6.7617 *    -5.6347 *    -1.1269 *  0.0000     2          
   327  O     s      4.5078 *     5.6347 *     5.6347 *  0.0000     2          
   328  O     s      4.5078 *    -7.8886 *     1.1269 *  0.0000     2          
   329  O     s      9.0156 *     1.1269 *     1.1269 *  0.0000     2          
   330  O     s     -4.5078 *     1.1269 *    -7.8886 *  0.0000     2          
   331  Cl    s      6.7617 *     3.3808 *    -5.6347 *  0.0000     2          
   332  Cl    s      6.7617 *    -5.6347 *     3.3808 *  0.0000     2          
   333  O     s      0.0000       5.6347 *    -7.8886 *  0.0000     1          
   334  O     s      0.0000      -7.8886 *     5.6347 *  0.0000     1          
   335  O     s      9.0156 *    -3.3808 *     1.1269 *  0.0000     2          
   336  O     s     -4.5078 *    -3.3808 *    -7.8886 *  0.0000     2          
   337  O     s      4.5078 *    -7.8886 *    -3.3808 *  0.0000     2          
   338  O     s      9.0156 *     1.1269 *    -3.3808 *  0.0000     2          
   339  Cl    s      2.2539 *     7.8886 *    -5.6347 *  0.0000     2          
   340  Cl    s      2.2539 *    -5.6347 *     7.8886 *  0.0000     2          
   341  O     s      0.0000      10.1425 *     1.1269 *  0.0000     1          
   342  O     s      0.0000       1.1269 *    10.1425 *  0.0000     1          
   343  O     s      9.0156 *    -3.3808 *    -3.3808 *  0.0000     2          
   344  Cl    s      6.7617 *    -5.6347 *    -5.6347 *  0.0000     2          
   345  Cl    s      2.2539 *    -1.1269 *   -10.1425 *  0.0000     2          
   346  Cl    s      2.2539 *   -10.1425 *    -1.1269 *  0.0000     2          
   347  Cl    s      6.7617 *    -1.1269 *     7.8886 *  0.0000     2          
   348  Cl    s      6.7617 *     7.8886 *    -1.1269 *  0.0000     2          
   349  O     s      4.5078 *     5.6347 *    -7.8886 *  0.0000     2          
   350  O     s      4.5078 *    -7.8886 *     5.6347 *  0.0000     2          
   351  O     s      9.0156 *     1.1269 *     5.6347 *  0.0000     2          
   352  O     s      9.0156 *     5.6347 *     1.1269 *  0.0000     2          
   353  O     s      0.0000      10.1425 *    -3.3808 *  0.0000     1          
   354  O     s      0.0000      -3.3808 *    10.1425 *  0.0000     1          
   355  Cl    s      2.2539 *     3.3808 *   -10.1425 *  0.0000     2          
   356  Cl    s      2.2539 *   -10.1425 *     3.3808 *  0.0000     2          
   357  Cl    s      6.7617 *     7.8886 *     3.3808 *  0.0000     2          
   358  Cl    s      6.7617 *     3.3808 *     7.8886 *  0.0000     2          
   359  O     s      9.0156 *    -3.3808 *     5.6347 *  0.0000     2          
   360  O     s     -4.5078 *    10.1425 *     1.1269 *  0.0000     2          
   361  O     s      0.0000      -7.8886 *    -7.8886 *  0.0000     1          
   362  O     s      4.5078 *     1.1269 *    10.1425 *  0.0000     2          
   363  O     s      9.0156 *     5.6347 *    -3.3808 *  0.0000     2          
   364  Cl    s     11.2695 *    -1.1269 *    -1.1269 *  0.0000     2          
   365  Cl    s      2.2539 *     7.8886 *     7.8886 *  0.0000     2          
   366  O     s      0.0000       5.6347 *    10.1425 *  0.0000     1          
   367  O     s      0.0000      10.1425 *     5.6347 *  0.0000     1          
   368  O     s     -4.5078 *    10.1425 *    -3.3808 *  0.0000     2          
   369  O     s      4.5078 *    -3.3808 *    10.1425 *  0.0000     2          
   370  Cl    s     11.2695 *    -1.1269 *     3.3808 *  0.0000     2          
   371  Cl    s     11.2695 *     3.3808 *    -1.1269 *  0.0000     2          
   372  Cl    s      2.2539 *    -5.6347 *   -10.1425 *  0.0000     2          
   373  Cl    s      2.2539 *   -10.1425 *    -5.6347 *  0.0000     2          
   374  Cl    s      6.7617 *     7.8886 *    -5.6347 *  0.0000     2          
   375  Cl    s      6.7617 *    -5.6347 *     7.8886 *  0.0000     2          
   376  O     s      9.0156 *     5.6347 *     5.6347 *  0.0000     2          
   377  O     s      9.0156 *    -7.8886 *     1.1269 *  0.0000     2          
   378  O     s      4.5078 *    -7.8886 *    -7.8886 *  0.0000     2          
   379  O     s      9.0156 *     1.1269 *    -7.8886 *  0.0000     2          
   380  Cl    s     11.2695 *     3.3808 *     3.3808 *  0.0000     2          
   381  Cl    s      6.7617 *   -10.1425 *    -1.1269 *  0.0000     2          
   382  Cl    s      6.7617 *    -1.1269 *   -10.1425 *  0.0000     2          
   383  O     s      0.0000       1.1269 *   -12.3964 *  0.0000     1          
   384  O     s      0.0000     -12.3964 *     1.1269 *  0.0000     1          
   385  O     s      9.0156 *    -7.8886 *    -3.3808 *  0.0000     2          
   386  O     s     -4.5078 *    10.1425 *     5.6347 *  0.0000     2          
   387  O     s      4.5078 *     5.6347 *    10.1425 *  0.0000     2          
   388  O     s      9.0156 *    -3.3808 *    -7.8886 *  0.0000     2          
   389  Cl    s     11.2695 *    -1.1269 *    -5.6347 *  0.0000     2          
   390  Cl    s     11.2695 *    -5.6347 *    -1.1269 *  0.0000     2          
   391  Cl    s      2.2539 *    -1.1269 *    12.3964 *  0.0000     2          
   392  Cl    s      2.2539 *    12.3964 *    -1.1269 *  0.0000     2          
   393  Cl    s      6.7617 *   -10.1425 *     3.3808 *  0.0000     2          
   394  Cl    s      6.7617 *     3.3808 *   -10.1425 *  0.0000     2          
   395  O     s      0.0000      -3.3808 *   -12.3964 *  0.0000     1          
   396  O     s      0.0000     -12.3964 *    -3.3808 *  0.0000     1          
   397  O     s      0.0000      10.1425 *    -7.8886 *  0.0000     1          
   398  O     s      0.0000      -7.8886 *    10.1425 *  0.0000     1          
--------------------------------------------------------------------------------

  Components of defect energy : 

--------------------------------------------------------------------------------
  Region 1 - region 1                   =     10.37573233 eV
  Region 1 - region 2a (unrelaxed)      =      0.32656699 eV
  Region 1 - 2a (relaxed - correction)  =     -0.41507943 eV
  Region 1 (Total)                      =     10.28721989 eV
  Region 2a                             =      0.20746834 eV
  Region 2b                             =     -0.32779463 eV
--------------------------------------------------------------------------------
  Total defect energy                   =     10.16689360 eV
--------------------------------------------------------------------------------

  Largest displacement in region 2 =   0.0197 Angstroms


  Number of variables =     1081

  Maximum number of calculations  =        1000
  Maximum Hessian update interval =          10
  Maximum step size               =   1.0000000
  Maximum parameter tolerance     =   0.0000100
  Maximum function  tolerance     =   0.0000100
  Maximum gradient  tolerance     =   0.0010000

  Symmetry adapted optimisation

  Symmetry to be used for second derivatives

  Newton-Raphson optimiser to be used

  BFGS hessian update to be used

  Lower half triangular hessian to be used

  Start of defect optimisation :

  Cycle:      0 Defect Energy:  10.166894  Gnorm:     0.019263  CPU:    6.726
  ** Hessian calculated **
  Cycle:      1 Defect Energy:   8.609820  Gnorm:     0.011175  CPU:   18.662
  Cycle:      2 Defect Energy:   8.043794  Gnorm:     0.010164  CPU:   34.396
  Cycle:      3 Defect Energy:   7.774544  Gnorm:     0.008437  CPU:   43.671
  Cycle:      4 Defect Energy:   7.308563  Gnorm:     0.008692  CPU:   59.618
  Cycle:      5 Defect Energy:   6.849233  Gnorm:     0.006075  CPU:   72.052
  Cycle:      6 Defect Energy:   6.359664  Gnorm:     0.006741  CPU:   83.211
  Cycle:      7 Defect Energy:   5.939479  Gnorm:     0.006451  CPU:   94.836
  Cycle:      8 Defect Energy:   5.606496  Gnorm:     0.003828  CPU:  108.023
  Cycle:      9 Defect Energy:   5.479724  Gnorm:     0.003650  CPU:  116.552
  Cycle:     10 Defect Energy:   5.436453  Gnorm:     0.002715  CPU:  118.886
  ** Hessian calculated **
  Cycle:     11 Defect Energy:   5.395155  Gnorm:     0.002574  CPU:  124.044
  Cycle:     12 Defect Energy:   5.332030  Gnorm:     0.002344  CPU:  130.230
  Cycle:     13 Defect Energy:   5.247593  Gnorm:     0.002004  CPU:  132.794
  Cycle:     14 Defect Energy:   5.156284  Gnorm:     0.001584  CPU:  135.492
  Cycle:     15 Defect Energy:   5.107728  Gnorm:     0.001310  CPU:  138.011
  Cycle:     16 Defect Energy:   5.052762  Gnorm:     0.000914  CPU:  140.684
  Cycle:     17 Defect Energy:   5.014118  Gnorm:     0.000519  CPU:  143.312
  Cycle:     18 Defect Energy:   4.998315  Gnorm:     0.000378  CPU:  145.886
  Cycle:     19 Defect Energy:   4.991280  Gnorm:     0.000248  CPU:  148.194
  ** Hessian calculated **
  Cycle:     20 Defect Energy:   4.990518  Gnorm:     0.000168  CPU:  153.798
  Cycle:     21 Defect Energy:   4.989792  Gnorm:     0.000143  CPU:  155.946
  Cycle:     22 Defect Energy:   4.988887  Gnorm:     0.000142  CPU:  158.152
  Cycle:     23 Defect Energy:   4.987920  Gnorm:     0.000151  CPU:  163.508
  Cycle:     24 Defect Energy:   4.987047  Gnorm:     0.000150  CPU:  166.154
  Cycle:     25 Defect Energy:   4.986305  Gnorm:     0.000162  CPU:  168.920
  Cycle:     26 Defect Energy:   4.985511  Gnorm:     0.000169  CPU:  171.508
  Cycle:     27 Defect Energy:   4.984778  Gnorm:     0.000175  CPU:  174.112
  Cycle:     28 Defect Energy:   4.983877  Gnorm:     0.000186  CPU:  176.493
  Cycle:     29 Defect Energy:   4.982858  Gnorm:     0.000207  CPU:  179.040
  ** Hessian calculated **
  Cycle:     30 Defect Energy:   4.982561  Gnorm:     0.000199  CPU:  184.768
  Cycle:     31 Defect Energy:   4.982193  Gnorm:     0.000196  CPU:  187.079
  Cycle:     32 Defect Energy:   4.981661  Gnorm:     0.000192  CPU:  189.375
  Cycle:     33 Defect Energy:   4.980932  Gnorm:     0.000189  CPU:  191.582
  Cycle:     34 Defect Energy:   4.979901  Gnorm:     0.000186  CPU:  195.928
  Cycle:     35 Defect Energy:   4.978502  Gnorm:     0.000189  CPU:  199.859
  Cycle:     36 Defect Energy:   4.976555  Gnorm:     0.000200  CPU:  202.528
  Cycle:     37 Defect Energy:   4.973995  Gnorm:     0.000224  CPU:  205.199
  Cycle:     38 Defect Energy:   4.970563  Gnorm:     0.000288  CPU:  207.877
  Cycle:     39 Defect Energy:   4.967448  Gnorm:     0.000339  CPU:  210.351
  ** Hessian calculated **
  Cycle:     40 Defect Energy:   4.965348  Gnorm:     0.000315  CPU:  216.409
  Cycle:     41 Defect Energy:   4.962448  Gnorm:     0.000303  CPU:  218.854
  Cycle:     42 Defect Energy:   4.958485  Gnorm:     0.000296  CPU:  221.120
  Cycle:     43 Defect Energy:   4.953112  Gnorm:     0.000289  CPU:  223.462
  Cycle:     44 Defect Energy:   4.945884  Gnorm:     0.000303  CPU:  225.632
  Cycle:     45 Defect Energy:   4.936084  Gnorm:     0.000335  CPU:  227.957
  Cycle:     46 Defect Energy:   4.922594  Gnorm:     0.000424  CPU:  234.332
  Cycle:     47 Defect Energy:   4.904092  Gnorm:     0.000547  CPU:  237.055
  Cycle:     48 Defect Energy:   4.881411  Gnorm:     0.000785  CPU:  239.744
  Cycle:     49 Defect Energy:   4.869735  Gnorm:     0.000858  CPU:  242.285
  ** Hessian calculated **
  Cycle:     50 Defect Energy:   4.857848  Gnorm:     0.000806  CPU:  248.566
  Cycle:     51 Defect Energy:   4.841891  Gnorm:     0.000785  CPU:  250.885
  Cycle:     52 Defect Energy:   4.820259  Gnorm:     0.000733  CPU:  253.295
  Cycle:     53 Defect Energy:   4.792483  Gnorm:     0.000695  CPU:  255.629
  Cycle:     54 Defect Energy:   4.759811  Gnorm:     0.000680  CPU:  257.919
  Cycle:     55 Defect Energy:   4.737375  Gnorm:     0.000678  CPU:  260.169
  Cycle:     56 Defect Energy:   4.721619  Gnorm:     0.000710  CPU:  262.326
  Cycle:     57 Defect Energy:   4.707946  Gnorm:     0.000731  CPU:  264.591
  Cycle:     58 Defect Energy:   4.695483  Gnorm:     0.000766  CPU:  270.900
  Cycle:     59 Defect Energy:   4.681666  Gnorm:     0.000799  CPU:  273.969
  ** Hessian calculated **
  Cycle:     60 Defect Energy:   4.640688  Gnorm:     0.000737  CPU:  281.248
  Cycle:     61 Defect Energy:   4.579903  Gnorm:     0.000611  CPU:  284.111
  Cycle:     62 Defect Energy:   4.529557  Gnorm:     0.000403  CPU:  286.749
  Cycle:     63 Defect Energy:   4.510401  Gnorm:     0.000280  CPU:  289.354
  Cycle:     64 Defect Energy:   4.500225  Gnorm:     0.000152  CPU:  291.949
  Cycle:     65 Defect Energy:   4.497195  Gnorm:     0.000097  CPU:  294.127
  Cycle:     66 Defect Energy:   4.495806  Gnorm:     0.000061  CPU:  296.288
  Cycle:     67 Defect Energy:   4.495391  Gnorm:     0.000034  CPU:  301.842
  Cycle:     68 Defect Energy:   4.495201  Gnorm:     0.000025  CPU:  304.543
  Cycle:     69 Defect Energy:   4.495141  Gnorm:     0.000017  CPU:  307.452
  ** Hessian calculated **
  Cycle:     70 Defect Energy:   4.495111  Gnorm:     0.000012  CPU:  314.490
  Cycle:     71 Defect Energy:   4.495096  Gnorm:     0.000008  CPU:  317.152


  **** Optimisation achieved ****


  Final defect energy  =        4.49508818
  Final defect Gnorm   =        0.00000581

  Components of defect energy : 

--------------------------------------------------------------------------------
  Region 1 - region 1                   =      5.49284689 eV
  Region 1 - region 2a (unrelaxed)      =     -0.49192657 eV
  Region 1 - 2a (relaxed - correction)  =     -0.35569202 eV
  Region 1 (Total)                      =      4.64522830 eV
  Region 2a                             =      0.17765734 eV
  Region 2b                             =     -0.32779746 eV
--------------------------------------------------------------------------------
  Total defect energy                   =      4.49508818 eV
--------------------------------------------------------------------------------

  Largest displacement in region 2 =   0.0197 Angstroms

  Final coordinates of region 1 :

--------------------------------------------------------------------------------
   No.  Atomic        x           y           z          Radius      Charge
        Label       (Angs)      (Angs)      (Angs)       (Angs)       (e) 
--------------------------------------------------------------------------------
     1  Na    c     2.253894    1.217103    1.036791    0.000000    1.000000
     2  O     c     2.253894    2.566733    2.635871    0.000000    0.183000
     3  Cl    c     4.526880   -0.063180   -0.037820    0.000000    1.485000
     4  Cl    c    -0.019093   -0.063180   -0.037820    0.000000    1.485000
     5  Na    c     4.498105    2.619102    2.623100    0.000000    1.000000
     6  Na    c     0.009683    2.619102    2.623100    0.000000    1.000000
     7  O     c     2.253894    2.278137   -2.260951    0.000000    0.183000
     8  O     c     2.253894   -2.282902    2.291213    0.000000    0.183000
     9  Na    c     2.253894    1.685609    4.621725    0.000000    1.000000
    10  Na    c     2.253894   -2.092680    0.064480    0.000000    1.000000
    11  Na    c     2.253894    0.049184   -2.427985    0.000000    1.000000
    12  Na    c     2.253894    4.629940    1.962334    0.000000    1.000000
    13  Cl    c     4.615853    0.014313    4.675327    0.000000    1.485000
    14  Cl    c    -0.108066    0.014313    4.675327    0.000000    1.485000
    15  Cl    c     4.555471    4.607620    0.056244    0.000000    1.485000
    16  Cl    c    -0.047684    4.607620    0.056244    0.000000    1.485000
    17  Na    c     4.441745    2.233195   -1.937805    0.000000    1.000000
    18  Na    c     0.066042    2.233195   -1.937805    0.000000    1.000000
    19  Na    c     4.444696   -2.019726    2.282736    0.000000    1.000000
    20  Na    c     0.063091   -2.019726    2.282736    0.000000    1.000000
    21  O     c    -2.242493    2.304171    2.317786    0.000000    0.183000
    22  O     c     6.750281    2.304171    2.317786    0.000000    0.183000
    23  Na    c    -2.216998    2.698941    0.067161    0.000000    1.000000
    24  Na    c     6.724785    2.698941    0.067161    0.000000    1.000000
    25  Na    c    -2.114069    0.068417    1.885363    0.000000    1.000000
    26  Na    c     6.621856    0.068417    1.885363    0.000000    1.000000
    27  O     c     2.253894   -2.230681   -2.235537    0.000000    0.183000
    28  Na    c     2.253894   -1.767089    4.464567    0.000000    1.000000
    29  Na    c     2.253894    4.451733   -1.691623    0.000000    1.000000
    30  Cl    c     4.659855    4.743107    4.559218    0.000000    1.485000
    31  Cl    c    -0.152068    4.743107    4.559218    0.000000    1.485000
    32  Na    c     4.504356   -2.195785   -2.237691    0.000000    1.000000
    33  Na    c     0.003431   -2.195785   -2.237691    0.000000    1.000000
    34  O     c     2.253894    2.215539    6.833666    0.000000    0.183000
    35  O     c     2.253894    6.859591    2.219660    0.000000    0.183000
    36  Na    c     2.253894    2.635490   -4.463600    0.000000    1.000000
    37  Na    c     2.253894    7.186086   -0.019650    0.000000    1.000000
    38  Na    c     2.253894   -0.018067    7.289450    0.000000    1.000000
    39  Na    c     2.253894   -4.488086    2.422721    0.000000    1.000000
    40  O     c    -2.217152    2.264737   -2.187266    0.000000    0.183000
    41  O     c     6.724940    2.264737   -2.187266    0.000000    0.183000
    42  O     c    -2.220455   -2.192816    2.256840    0.000000    0.183000
    43  O     c     6.728243   -2.192816    2.256840    0.000000    0.183000
    44  Na    c    -2.323842    1.868793    4.549215    0.000000    1.000000
    45  Na    c     6.831629    1.868793    4.549215    0.000000    1.000000
    46  Na    c    -2.176257   -2.618413    0.018501    0.000000    1.000000
    47  Na    c     6.684044   -2.618413    0.018501    0.000000    1.000000
    48  Na    c    -2.243488    0.013580   -1.850801    0.000000    1.000000
    49  Na    c     6.751275    0.013580   -1.850801    0.000000    1.000000
    50  Na    c    -2.428330    4.553322    2.661847    0.000000    1.000000
    51  Na    c     6.936117    4.553322    2.661847    0.000000    1.000000
    52  Cl    c     4.525542   -0.071017   -4.548437    0.000000    1.485000
    53  Cl    c    -0.017755   -0.071017   -4.548437    0.000000    1.485000
    54  Cl    c     4.510345   -4.562857   -0.079326    0.000000    1.485000
    55  Cl    c    -0.002558   -4.562857   -0.079326    0.000000    1.485000
    56  Na    c     4.523535    2.153682    6.818714    0.000000    1.000000
    57  Na    c    -0.015748    2.153682    6.818714    0.000000    1.000000
    58  Na    c     4.521711    6.708880    2.261255    0.000000    1.000000
    59  Na    c    -0.013924    6.708880    2.261255    0.000000    1.000000
    60  O     c     2.253894    6.727174   -2.240063    0.000000    0.183000
    61  O     c     2.253894   -2.228879    6.745103    0.000000    0.183000
    62  Na    c     2.253894    6.773685    4.472434    0.000000    1.000000
    63  Na    c     2.253894   -2.521902   -4.486325    0.000000    1.000000
    64  Na    c     2.253894    4.422570    6.268571    0.000000    1.000000
    65  Na    c     2.253894   -4.472480   -2.009510    0.000000    1.000000
    66  O     c     6.766935   -2.235072   -2.232381    0.000000    0.183000
    67  O     c    -2.259148   -2.235072   -2.232381    0.000000    0.183000
    68  Na    c     6.781837   -1.872473    4.507825    0.000000    1.000000
    69  Na    c    -2.274050   -1.872473    4.507825    0.000000    1.000000
    70  Na    c     6.716178    4.490818   -2.625774    0.000000    1.000000
    71  Na    c    -2.208391    4.490818   -2.625774    0.000000    1.000000
    72  Cl    c     4.556003    4.563464   -4.561844    0.000000    1.485000
    73  Cl    c    -0.048216    4.563464   -4.561844    0.000000    1.485000
    74  Cl    c     4.553466   -4.605140    4.546184    0.000000    1.485000
    75  Cl    c    -0.045678   -4.605140    4.546184    0.000000    1.485000
    76  Na    c     4.507087    6.687042   -2.276978    0.000000    1.000000
    77  Na    c     0.000700    6.687042   -2.276978    0.000000    1.000000
    78  Na    c     4.514095   -2.175028    6.691199    0.000000    1.000000
    79  Na    c    -0.006308   -2.175028    6.691199    0.000000    1.000000
    80  Cl    c     9.014633    0.042189    0.036298    0.000000    1.485000
    81  Cl    c    -4.506846    0.042189    0.036298    0.000000    1.485000
    82  Na    c     9.008275    2.127025    2.228495    0.000000    1.000000
    83  Na    c    -4.500488    2.127025    2.228495    0.000000    1.000000
    84  O     c    -2.276771    2.255203    6.784038    0.000000    0.183000
    85  O     c     6.784558    2.255203    6.784038    0.000000    0.183000
    86  Na    c    -2.103548    1.914642   -4.447756    0.000000    1.000000
    87  Na    c     6.611335    1.914642   -4.447756    0.000000    1.000000
    88  Na    c    -2.330848   -0.002132    7.123702    0.000000    1.000000
    89  Na    c     6.838635   -0.002132    7.123702    0.000000    1.000000
    90  O     c     6.787583    6.787946    2.255424    0.000000    0.183000
    91  O     c    -2.279796    6.787946    2.255424    0.000000    0.183000
    92  Na    c     6.704927    6.426558    0.010382    0.000000    1.000000
    93  Na    c    -2.197139    6.426558    0.010382    0.000000    1.000000
    94  Na    c     6.716886   -4.452162    2.605894    0.000000    1.000000
    95  Na    c    -2.209099   -4.452162    2.605894    0.000000    1.000000
    96  Cl    c     9.045701    0.004322    4.514676    0.000000    1.485000
    97  Cl    c    -4.537914    0.004322    4.514676    0.000000    1.485000
    98  Na    c     8.989388    2.242000   -2.231156    0.000000    1.000000
    99  Na    c    -4.481601    2.242000   -2.231156    0.000000    1.000000
   100  Cl    c     9.027536    4.541175    0.053487    0.000000    1.485000
   101  Cl    c    -4.519749    4.541175    0.053487    0.000000    1.485000
   102  Na    c     8.993494   -2.121812    2.206964    0.000000    1.000000
   103  Na    c    -4.485707   -2.121812    2.206964    0.000000    1.000000
   104  O     c     2.253894    6.685740    6.730180    0.000000    0.183000
   105  Na    c     2.253894    6.326980   -4.483314    0.000000    1.000000
   106  Na    c     2.253894   -4.475408    6.330140    0.000000    1.000000
   107  O     c    -2.269235   -2.252012    6.755787    0.000000    0.183000
   108  O     c     6.777022   -2.252012    6.755787    0.000000    0.183000
   109  Na    c    -2.236706   -1.928048   -4.490047    0.000000    1.000000
   110  Na    c     6.744493   -1.928048   -4.490047    0.000000    1.000000
   111  Na    c    -2.210290    4.511111    6.462430    0.000000    1.000000
   112  Na    c     6.718077    4.511111    6.462430    0.000000    1.000000
   113  O     c     2.253894    2.258087   -6.740358    0.000000    0.183000
   114  O     c     2.253894   -6.771275    2.268634    0.000000    0.183000
   115  O     c     6.770745    6.738863   -2.244934    0.000000    0.183000
   116  O     c    -2.262958    6.738863   -2.244934    0.000000    0.183000
   117  Na    c     2.253894    2.709384    9.026551    0.000000    1.000000
   118  Na    c     2.253894   -6.710996    0.017412    0.000000    1.000000
   119  Na    c     6.732249    7.071921    4.512146    0.000000    1.000000
   120  Na    c    -2.224462    7.071921    4.512146    0.000000    1.000000
   121  Na    c     2.253894    0.011493   -6.381562    0.000000    1.000000
   122  Na    c     2.253894    9.065661    2.494482    0.000000    1.000000
   123  Na    c     6.758286   -4.483134   -2.561109    0.000000    1.000000
   124  Na    c    -2.250498   -4.483134   -2.561109    0.000000    1.000000
   125  Cl    c     4.511111   -4.530741   -4.513803    0.000000    1.485000
   126  Cl    c    -0.003324   -4.530741   -4.513803    0.000000    1.485000
   127  Na    c     4.515466    6.705560    6.757941    0.000000    1.000000
   128  Na    c    -0.007678    6.705560    6.757941    0.000000    1.000000
   129  Cl    c     4.555988   -0.009426    9.055787    0.000000    1.485000
   130  Cl    c    -0.048200   -0.009426    9.055787    0.000000    1.485000
   131  Na    c     4.505913    2.189720   -6.751256    0.000000    1.000000
   132  Na    c     0.001874    2.189720   -6.751256    0.000000    1.000000
   133  Cl    c     4.530200    9.083168   -0.012974    0.000000    1.485000
   134  Cl    c    -0.022413    9.083168   -0.012974    0.000000    1.485000
   135  Cl    c     9.079076    4.508652    4.592418    0.000000    1.485000
   136  Cl    c    -4.571289    4.508652    4.592418    0.000000    1.485000
   137  Na    c     4.508975   -6.701080    2.330411    0.000000    1.000000
   138  Na    c    -0.001188   -6.701080    2.330411    0.000000    1.000000
   139  Na    c     9.011071   -2.211134   -2.223831    0.000000    1.000000
   140  Na    c    -4.503284   -2.211134   -2.223831    0.000000    1.000000
   141  O     c     2.253894   -2.236907   -6.743672    0.000000    0.183000
   142  O     c     2.253894   -6.732103   -2.247129    0.000000    0.183000
   143  Na    c     2.253894   -2.678841    8.978779    0.000000    1.000000
   144  Na    c     2.253894   -7.027860    4.506771    0.000000    1.000000
   145  Na    c     2.253894    4.491104   -7.102060    0.000000    1.000000
   146  Na    c     2.253894    8.975567   -2.624377    0.000000    1.000000
   147  Cl    c     4.563047    4.524150    9.094269    0.000000    1.485000
   148  Cl    c    -0.055259    4.524150    9.094269    0.000000    1.485000
   149  Cl    c     9.037304    0.003212   -4.521651    0.000000    1.485000
   150  Cl    c    -4.529517    0.003212   -4.521651    0.000000    1.485000
   151  Na    c     4.512951   -2.150459   -6.722669    0.000000    1.000000
[...]
    318 y          0.000000     -0.008378    -0.008378    Cartesian    0.00
    318 z          9.015574      9.054366     0.038791    Cartesian    0.43
    319 x          4.507787      4.531923     0.024136    Cartesian    0.54
    319 y          9.015574      9.089009     0.073434    Cartesian    0.81
    319 z          0.000000     -0.013077    -0.013077    Cartesian    0.00
    320 x          9.015574      9.080232     0.064657    Cartesian    0.72
    320 y          4.507787      4.508945     0.001158    Cartesian    0.03
    320 z          4.507787      4.592361     0.084574    Cartesian    1.88
    321 x          2.253894      2.253894     0.000000    Cartesian    0.00
    321 y         -2.253894     -2.236919     0.016975    Cartesian   -0.75
    321 z         -6.761681     -6.743660     0.018021    Cartesian   -0.27
    322 x          2.253894      2.253894     0.000000    Cartesian    0.00
    322 y         -6.761681     -6.732073     0.029608    Cartesian   -0.44
    322 z         -2.253894     -2.247107     0.006787    Cartesian   -0.30
    323 x          4.507787      4.563918     0.056131    Cartesian    1.25
    323 y          4.507787      4.522536     0.014749    Cartesian    0.33
    323 z          9.015574      9.101812     0.086237    Cartesian    0.96
    324 x          9.015574      9.041007     0.025433    Cartesian    0.28
    324 y          0.000000      0.003115     0.003115    Cartesian    0.00
    324 z         -4.507787     -4.525569    -0.017781    Cartesian    0.39
    325 x          4.507787      4.479097    -0.028690    Cartesian   -0.64
    325 y          9.015574      9.056409     0.040835    Cartesian    0.45
    325 z          4.507787      4.506983    -0.000805    Cartesian   -0.02
    326 x          9.015574      9.040758     0.025183    Cartesian    0.28
    326 y         -4.507787     -4.524400    -0.016612    Cartesian    0.37
    326 z          0.000000     -0.011951    -0.011951    Cartesian    0.00
    327 x          6.761681      6.781075     0.019394    Cartesian    0.29
    327 y          6.761681      6.767745     0.006064    Cartesian    0.09
    327 z          6.761681      6.768344     0.006664    Cartesian    0.10
    328 x          6.761681      6.764328     0.002648    Cartesian    0.04
    328 y         -6.761681     -6.722793     0.038888    Cartesian   -0.58
    328 z          2.253894      2.255712     0.001818    Cartesian    0.08
    329 x         11.269468     11.266358    -0.003110    Cartesian   -0.03
    329 y          2.253894      2.250556    -0.003338    Cartesian   -0.15
    329 z          2.253894      2.245324    -0.008570    Cartesian   -0.38
    330 x         -2.253894     -2.254962    -0.001068    Cartesian    0.05
    330 y          2.253894      2.242852    -0.011041    Cartesian   -0.49
    330 z         -6.761681     -6.718952     0.042728    Cartesian   -0.63
    331 x          9.015574      9.040102     0.024528    Cartesian    0.27
    331 y          4.507787      4.544458     0.036670    Cartesian    0.81
    331 z         -4.507787     -4.518066    -0.010279    Cartesian    0.23
    332 x          9.015574      9.036961     0.021386    Cartesian    0.24
    332 y         -4.507787     -4.535973    -0.028186    Cartesian    0.63
    332 z          4.507787      4.552748     0.044961    Cartesian    1.00
    333 x          2.253894      2.253894     0.000000    Cartesian    0.00
    333 y          6.761681      6.733302    -0.028379    Cartesian   -0.42
    333 z         -6.761681     -6.741359     0.020322    Cartesian   -0.30
    334 x          2.253894      2.253894     0.000000    Cartesian    0.00
    334 y         -6.761681     -6.732721     0.028960    Cartesian   -0.43
    334 z          6.761681      6.745912    -0.015769    Cartesian   -0.23
    335 x         11.269468     11.264668    -0.004800    Cartesian   -0.04
    335 y         -2.253894     -2.237468     0.016426    Cartesian   -0.73
    335 z          2.253894      2.241630    -0.012263    Cartesian   -0.54
    336 x         -2.253894     -2.266251    -0.012358    Cartesian    0.55
    336 y         -2.253894     -2.241936     0.011957    Cartesian   -0.53
    336 z         -6.761681     -6.749488     0.012193    Cartesian   -0.18
    337 x          6.761681      6.766281     0.004601    Cartesian    0.07
    337 y         -6.761681     -6.740029     0.021652    Cartesian   -0.32
    337 z         -2.253894     -2.255354    -0.001460    Cartesian    0.06
    338 x         11.269468     11.260015    -0.009453    Cartesian   -0.08
    338 y          2.253894      2.254397     0.000503    Cartesian    0.02
    338 z         -2.253894     -2.232155     0.021738    Cartesian   -0.96
    339 x          4.507787      4.520976     0.013188    Cartesian    0.29
    339 y          9.015574      9.048790     0.033216    Cartesian    0.37
    339 z         -4.507787     -4.524528    -0.016740    Cartesian    0.37
    340 x          4.507787      4.542007     0.034220    Cartesian    0.76
    340 y         -4.507787     -4.520183    -0.012396    Cartesian    0.27
    340 z          9.015574      9.102020     0.086445    Cartesian    0.96
    341 x          2.253894      2.253894     0.000000    Cartesian    0.00
    341 y         11.269468     11.288079     0.018611    Cartesian    0.17
    341 z          2.253894      2.245083    -0.008811    Cartesian   -0.39
    342 x          2.253894      2.253894     0.000000    Cartesian    0.00
    342 y          2.253894      2.251900    -0.001994    Cartesian   -0.09
    342 z         11.269468     11.248425    -0.021043    Cartesian   -0.19
    343 x         11.269468     11.267386    -0.002082    Cartesian   -0.02
    343 y         -2.253894     -2.246165     0.007728    Cartesian   -0.34
    343 z         -2.253894     -2.221919     0.031974    Cartesian   -1.42
    344 x          9.015574      9.058838     0.043264    Cartesian    0.48
    344 y         -4.507787     -4.528544    -0.020757    Cartesian    0.46
    344 z         -4.507787     -4.522405    -0.014618    Cartesian    0.32
    345 x          4.507787      4.504748    -0.003039    Cartesian   -0.07
    345 y          0.000000      0.002469     0.002469    Cartesian    0.00
    345 z         -9.015574     -9.029063    -0.013489    Cartesian    0.15
    346 x          4.507787      4.520590     0.012803    Cartesian    0.28
    346 y         -9.015574     -9.081205    -0.065631    Cartesian    0.73
    346 z          0.000000      0.013318     0.013318    Cartesian    0.00
    347 x          9.015574      9.052632     0.037058    Cartesian    0.41
    347 y          0.000000     -0.001586    -0.001586    Cartesian    0.00
    347 z          9.015574      9.055881     0.040306    Cartesian    0.45
    348 x          9.015574      9.040338     0.024763    Cartesian    0.27
    348 y          9.015574      9.055286     0.039712    Cartesian    0.44
    348 z          0.000000      0.006445     0.006445    Cartesian    0.00
    349 x          6.761681      6.768113     0.006432    Cartesian    0.10
    349 y          6.761681      6.768922     0.007241    Cartesian    0.11
    349 z         -6.761681     -6.738149     0.023532    Cartesian   -0.35
    350 x          6.761681      6.770773     0.009092    Cartesian    0.13
    350 y         -6.761681     -6.756741     0.004939    Cartesian   -0.07
    350 z          6.761681      6.751817    -0.009864    Cartesian   -0.15
    351 x         11.269468     11.280279     0.010811    Cartesian    0.10
    351 y          2.253894      2.236829    -0.017064    Cartesian   -0.76
    351 z          6.761681      6.755151    -0.006530    Cartesian   -0.10
    352 x         11.269468     11.273632     0.004164    Cartesian    0.04
    352 y          6.761681      6.742456    -0.019224    Cartesian   -0.28
    352 z          2.253894      2.258665     0.004771    Cartesian    0.21
    353 x          2.253894      2.253894     0.000000    Cartesian    0.00
    353 y         11.269468     11.238197    -0.031271    Cartesian   -0.28
    353 z         -2.253894     -2.264365    -0.010472    Cartesian    0.46
    354 x          2.253894      2.253894     0.000000    Cartesian    0.00
    354 y         -2.253894     -2.253183     0.000710    Cartesian   -0.03
    354 z         11.269468     11.225385    -0.044083    Cartesian   -0.39
    355 x          4.507787      4.548497     0.040710    Cartesian    0.90
    355 y          4.507787      4.499426    -0.008362    Cartesian   -0.19
    355 z         -9.015574     -9.058324    -0.042750    Cartesian    0.47
    356 x          4.507787      4.502834    -0.004954    Cartesian   -0.11
    356 y         -9.015574     -9.011123     0.004451    Cartesian   -0.05
    356 z          4.507787      4.516909     0.009122    Cartesian    0.20
    357 x          9.015574      9.088350     0.072775    Cartesian    0.81
    357 y          9.015574      9.034464     0.018889    Cartesian    0.21
    357 z          4.507787      4.514172     0.006385    Cartesian    0.14
    358 x          9.015574      9.041664     0.026089    Cartesian    0.29
    358 y          4.507787      4.501335    -0.006452    Cartesian   -0.14
    358 z          9.015574      9.062898     0.047324    Cartesian    0.52
    359 x         11.269468     11.271511     0.002043    Cartesian    0.02
    359 y         -2.253894     -2.242865     0.011029    Cartesian   -0.49
    359 z          6.761681      6.752285    -0.009396    Cartesian   -0.14
    360 x         -2.253894     -2.255569    -0.001675    Cartesian    0.07
    360 y         11.269468     11.268692    -0.000776    Cartesian   -0.01
    360 z          2.253894      2.239699    -0.014194    Cartesian   -0.63
    361 x          2.253894      2.253894     0.000000    Cartesian    0.00
    361 y         -6.761681     -6.733525     0.028156    Cartesian   -0.42
    361 z         -6.761681     -6.769081    -0.007400    Cartesian    0.11
    362 x          6.761681      6.762014     0.000333    Cartesian    0.00
    362 y          2.253894      2.264036     0.010142    Cartesian    0.45
    362 z         11.269468     11.268575    -0.000893    Cartesian   -0.01
    363 x         11.269468     11.270073     0.000605    Cartesian    0.01
    363 y          6.761681      6.728654    -0.033026    Cartesian   -0.49
    363 z         -2.253894     -2.251234     0.002659    Cartesian   -0.12
    364 x         13.523362     13.578048     0.054687    Cartesian    0.40
    364 y          0.000000     -0.000769    -0.000769    Cartesian    0.00
    364 z          0.000000     -0.016575    -0.016575    Cartesian    0.00
    365 x          4.507787      4.530387     0.022600    Cartesian    0.50
    365 y          9.015574      9.054166     0.038591    Cartesian    0.43
    365 z          9.015574      9.026829     0.011255    Cartesian    0.12
    366 x          2.253894      2.253894     0.000000    Cartesian    0.00
    366 y          6.761681      6.731991    -0.029690    Cartesian   -0.44
    366 z         11.269468     11.258753    -0.010715    Cartesian   -0.10
    367 x          2.253894      2.253894     0.000000    Cartesian    0.00
    367 y         11.269468     11.259151    -0.010317    Cartesian   -0.09
    367 z          6.761681      6.762305     0.000624    Cartesian    0.01
    368 x         -2.253894     -2.262190    -0.008296    Cartesian    0.37
    368 y         11.269468     11.257350    -0.012118    Cartesian   -0.11
    368 z         -2.253894     -2.234185     0.019709    Cartesian   -0.87
    369 x          6.761681      6.762879     0.001198    Cartesian    0.02
    369 y         -2.253894     -2.264025    -0.010131    Cartesian    0.45
    369 z         11.269468     11.259485    -0.009983    Cartesian   -0.09
    370 x         13.523362     13.572955     0.049594    Cartesian    0.37
    370 y          0.000000      0.000048     0.000048    Cartesian    0.00
    370 z          4.507787      4.504905    -0.002882    Cartesian   -0.06
    371 x         13.523362     13.582348     0.058987    Cartesian    0.44
    371 y          4.507787      4.506267    -0.001520    Cartesian   -0.03
    371 z          0.000000      0.002012     0.002012    Cartesian    0.00
    372 x          4.507787      4.541924     0.034137    Cartesian    0.76
    372 y         -4.507787     -4.518137    -0.010350    Cartesian    0.23
    372 z         -9.015574     -9.051227    -0.035652    Cartesian    0.40
    373 x          4.507787      4.525370     0.017583    Cartesian    0.39
    373 y         -9.015574     -9.034856    -0.019281    Cartesian    0.21
    373 z         -4.507787     -4.546472    -0.038685    Cartesian    0.86
    374 x          9.015574      9.071521     0.055947    Cartesian    0.62
    374 y          9.015574      9.040837     0.025263    Cartesian    0.28
    374 z         -4.507787     -4.518551    -0.010764    Cartesian    0.24
    375 x          9.015574      9.040502     0.024927    Cartesian    0.28
    375 y         -4.507787     -4.504575     0.003212    Cartesian   -0.07
    375 z          9.015574      9.060407     0.044832    Cartesian    0.50
    376 x         11.269468     11.281962     0.012494    Cartesian    0.11
    376 y          6.761681      6.764076     0.002395    Cartesian    0.04
    376 z          6.761681      6.749397    -0.012284    Cartesian   -0.18
    377 x         11.269468     11.264128    -0.005340    Cartesian   -0.05
    377 y         -6.761681     -6.743876     0.017805    Cartesian   -0.26
    377 z          2.253894      2.264142     0.010248    Cartesian    0.45
    378 x          6.761681      6.766053     0.004372    Cartesian    0.06
    378 y         -6.761681     -6.772417    -0.010736    Cartesian    0.16
    378 z         -6.761681     -6.743491     0.018190    Cartesian   -0.27
    379 x         11.269468     11.268745    -0.000723    Cartesian   -0.01
    379 y          2.253894      2.239275    -0.014619    Cartesian   -0.65
    379 z         -6.761681     -6.738158     0.023522    Cartesian   -0.35
    380 x         13.523362     13.575573     0.052211    Cartesian    0.39
    380 y          4.507787      4.519078     0.011291    Cartesian    0.25
    380 z          4.507787      4.497705    -0.010083    Cartesian   -0.22
    381 x          9.015574      8.983182    -0.032393    Cartesian   -0.36
    381 y         -9.015574     -9.073481    -0.057907    Cartesian    0.64
    381 z          0.000000     -0.001775    -0.001775    Cartesian    0.00
    382 x          9.015574      9.088025     0.072451    Cartesian    0.80
    382 y          0.000000     -0.002661    -0.002661    Cartesian    0.00
    382 z         -9.015574     -9.041058    -0.025484    Cartesian    0.28
    383 x          2.253894      2.253894     0.000000    Cartesian    0.00
    383 y          2.253894      2.227372    -0.026521    Cartesian   -1.18
    383 z        -11.269468    -11.254273     0.015195    Cartesian   -0.13
    384 x          2.253894      2.253894     0.000000    Cartesian    0.00
    384 y        -11.269468    -11.266799     0.002669    Cartesian   -0.02
    384 z          2.253894      2.245820    -0.008074    Cartesian   -0.36
    385 x         11.269468     11.277745     0.008276    Cartesian    0.07
    385 y         -6.761681     -6.743413     0.018268    Cartesian   -0.27
    385 z         -2.253894     -2.256402    -0.002508    Cartesian    0.11
    386 x         -2.253894     -2.259832    -0.005938    Cartesian    0.26
    386 y         11.269468     11.255303    -0.014165    Cartesian   -0.13
    386 z          6.761681      6.772299     0.010618    Cartesian    0.16
    387 x          6.761681      6.764688     0.003007    Cartesian    0.04
    387 y          6.761681      6.756478    -0.005203    Cartesian   -0.08
    387 z         11.269468     11.278814     0.009346    Cartesian    0.08
    388 x         11.269468     11.268352    -0.001116    Cartesian   -0.01
    388 y         -2.253894     -2.247090     0.006803    Cartesian   -0.30
    388 z         -6.761681     -6.759009     0.002672    Cartesian   -0.04
    389 x         13.523362     13.564033     0.040671    Cartesian    0.30
    389 y          0.000000     -0.004732    -0.004732    Cartesian    0.00
    389 z         -4.507787     -4.494697     0.013091    Cartesian   -0.29
    390 x         13.523362     13.571793     0.048432    Cartesian    0.36
    390 y         -4.507787     -4.523243    -0.015456    Cartesian    0.34
    390 z          0.000000      0.002147     0.002147    Cartesian    0.00
    391 x          4.507787      4.463093    -0.044694    Cartesian   -0.99
    391 y          0.000000     -0.000917    -0.000917    Cartesian    0.00
    391 z         13.523362     13.596793     0.073432    Cartesian    0.54
    392 x          4.507787      4.539360     0.031573    Cartesian    0.70
    392 y         13.523362     13.586755     0.063394    Cartesian    0.47
    392 z          0.000000     -0.000474    -0.000474    Cartesian    0.00
    393 x          9.015574      9.083703     0.068128    Cartesian    0.76
    393 y         -9.015574     -9.037979    -0.022404    Cartesian    0.25
    393 z          4.507787      4.522344     0.014557    Cartesian    0.32
    394 x          9.015574      8.984078    -0.031497    Cartesian   -0.35
    394 y          4.507787      4.519181     0.011393    Cartesian    0.25
    394 z         -9.015574     -9.068259    -0.052684    Cartesian    0.58
    395 x          2.253894      2.253894     0.000000    Cartesian    0.00
    395 y         -2.253894     -2.239885     0.014009    Cartesian   -0.62
    395 z        -11.269468    -11.279155    -0.009687    Cartesian    0.09
    396 x          2.253894      2.253894     0.000000    Cartesian    0.00
    396 y        -11.269468    -11.266369     0.003099    Cartesian   -0.03
    396 z         -2.253894     -2.265068    -0.011174    Cartesian    0.50
    397 x          2.253894      2.253894     0.000000    Cartesian    0.00
    397 y         11.269468     11.281276     0.011808    Cartesian    0.10
    397 z         -6.761681     -6.748051     0.013629    Cartesian   -0.20
    398 x          2.253894      2.253894     0.000000    Cartesian    0.00
    398 y         -6.761681     -6.745603     0.016078    Cartesian   -0.24
    398 z         11.269468     11.287395     0.017927    Cartesian    0.16
--------------------------------------------------------------------------------


  Time to end of optimisation  =      319.6980 seconds


  Peak dynamic memory used =     144.25 MB 


  Timing analysis for GULP :

--------------------------------------------------------------------------------
  Task / Subroutine                                          Time (Seconds)
--------------------------------------------------------------------------------
  Calculation of reciprocal space energy and derivatives          0.0007
  Calculation of reciprocal space energy using symmetry           0.0011
  Calculation of real space energy and derivatives                0.0041
  Calculation of real space energy using symmetry                 0.0100
  Calculation for region 1 energy and derivatives (2-b)         110.6124
  Calculation for region 2a energy                              201.4504
  Calculation for region 2b energy                                0.0309
  Calculation and manipulation of Hessian matrix                  0.2426
  Calculation of matrix inversion                                 6.6922
  Symmetry generation of equivalent positions                     0.0050
--------------------------------------------------------------------------------
  Total CPU time                                                319.6981
--------------------------------------------------------------------------------


  Dump file written as Na3OCl.grs


  Job Finished at 18:20.50  3rd December   2020                               

