********************************************************************************
*                       GENERAL UTILITY LATTICE PROGRAM                        *
*                                 Julian Gale                                  *
*                       Curtin Institute for Computation                       *
*                    School of Molecular and Life Sciences                     *
*                    Curtin University, Western Australia                      *
********************************************************************************
* Version = 5.2.0 * Last modified =  10th September 2020                       *
********************************************************************************
*  optimise     - perform optimisation run                                     *
*  conp         - constant pressure calculation                                *
*  property     - calculate properties for final geometry                      *
*  defect       - perform defect calculation after bulk run                    *
*  compare      - compare initial and final structures                         *
********************************************************************************

  Job Started  at 18:19.03  3rd December   2020                               

  Number of CPUs =     1


  Total number of configurations input =      1

********************************************************************************
*  Input for Configuration =   1                                               *
********************************************************************************

  Formula = ClONa3                                                      

  Number of irreducible atoms/shells =       5


  Total number atoms/shells =       7

  Dimensionality = 3               :  Bulk   


  Symmetry :

  Crystal family                   :  Cubic       
  Crystal class  (Groth - 1921)    :  Cubic Hexakisoctahedral              

  Space group (centrosymmetric)    :  P M 3 M         

  Patterson group                  :  P m -3 m 

  Cartesian lattice vectors (Angstroms) :

        4.504000    0.000000    0.000000
        0.000000    4.504000    0.000000
        0.000000    0.000000    4.504000

  Cell parameters (Angstroms/Degrees):

  a =       4.5040    alpha =  90.0000
  b =       4.5040    beta  =  90.0000
  c =       4.5040    gamma =  90.0000

  Initial cell volume =          91.368216 Angs**3

  Temperature of configuration =   0.00     K 

  Pressure of configuration =         0.000 GPa 

  Fractional coordinates of asymmetric unit :

--------------------------------------------------------------------------------
   No.  Atomic       x           y          z         Charge      Occupancy
        Label      (Frac)      (Frac)     (Frac)        (e)         (Frac)  
--------------------------------------------------------------------------------
      1 Cl    c    0.000000    0.000000    0.000000     1.48500    1.000000    
      2 O     c    0.500000    0.500000    0.500000     0.18300    1.000000    
      3 Na    c    0.500000    0.500000    0.000000     1.00000    1.000000    
      4 Cl    s    0.000000    0.000000    0.000000    -2.48500    1.000000    
      5 O     s    0.500000    0.500000    0.500000    -2.18300    1.000000    
--------------------------------------------------------------------------------


  Constraints : 

--------------------------------------------------------------------------------
  Constraint no.      Unconstrained     Constrained    Coefficient    Offset
                         Variable         Variable
--------------------------------------------------------------------------------
           1              Strain 1        Strain 2       1.00000      0.0000
           2              Strain 1        Strain 3       1.00000      0.0000
--------------------------------------------------------------------------------


********************************************************************************
*  General input information                                                   *
********************************************************************************

  Species output for all configurations : 

--------------------------------------------------------------------------------
  Species    Type    Atomic    Atomic    Charge       Radii (Angs)     Library
                     Number     Mass       (e)     Cova   Ionic  VDW   Symbol
--------------------------------------------------------------------------------
    Na       Core       11      22.99   1.000000   0.970  0.000  2.300          
    O        Core        8      16.00   0.183000   0.730  0.000  1.360          
    O        Shell       8       0.00  -2.183000   0.730  0.000  0.000          
    Cl       Core       17      35.45   1.485000   0.990  0.000  1.650          
    Cl       Shell      17       0.00  -2.485000   0.990  0.000  0.000          
    Mg       Core       12      24.31   0.415000   1.100  0.000  0.000          
    Mg       Shell      12       0.00   1.585000   1.100  0.000  0.000          
    Ca       Core       20      40.08  -1.135000   0.990  0.000  0.000          
    Ca       Shell      20       0.00   3.135000   0.990  0.000  0.000          
    Sr       Core       38      87.62  -1.251000   1.120  0.000  0.000          
    Sr       Shell      38       0.00   3.251000   1.120  0.000  0.000          
    Ba       Core       56     137.33  -7.203000   1.340  0.000  0.000          
    Ba       Shell      56       0.00   9.203000   1.340  0.000  0.000          
--------------------------------------------------------------------------------


  Lattice summation method               =    Ewald          (3-D)
                                         =    Parry          (2-D)
                                         =    Saunders et al (1-D)
  Accuracy factor for lattice sums       =   12.000


  Analytic derivatives to be used

  Time limit = Infinity

  Maximum range for interatomic potentials =    100000.000000 Angstroms

  General interatomic potentials :

--------------------------------------------------------------------------------
Atom  Types   Potential      Parameter       Value         Units   Cutoffs(Ang)
  1     2                                                            Min /  Max 
--------------------------------------------------------------------------------
O    c O    s Spring (c-s)  Spring k 2       593.71600    eV*Ang^-2 0.000  0.800
                            Spring k 4       0.0000000    eV*Ang^-4 
--------------------------------------------------------------------------------
Cl   c Cl   s Spring (c-s)  Spring k 2       29.380000    eV*Ang^-2 0.000  0.800
                            Spring k 4       0.0000000    eV*Ang^-4 
--------------------------------------------------------------------------------
Mg   c Mg   s Spring (c-s)  Spring k 2       361.60000    eV*Ang^-2 0.000  0.800
                            Spring k 4       0.0000000    eV*Ang^-4 
--------------------------------------------------------------------------------
Ca   c Ca   s Spring (c-s)  Spring k 2       110.20000    eV*Ang^-2 0.000  0.800
                            Spring k 4       0.0000000    eV*Ang^-4 
--------------------------------------------------------------------------------
Sr   c Sr   s Spring (c-s)  Spring k 2       71.700000    eV*Ang^-2 0.000  0.800
                            Spring k 4       0.0000000    eV*Ang^-4 
--------------------------------------------------------------------------------
Ba   c Ba   s Spring (c-s)  Spring k 2       495.20000    eV*Ang^-2 0.000  0.800
                            Spring k 4       0.0000000    eV*Ang^-4 
--------------------------------------------------------------------------------
Na   c Na   c Buckingham    Buckingham A     1788.1900    eV        0.000 12.000
                            Buckingham rho  0.15900000    Ang       
                            Buckingham C     0.0000000    eV*Ang^6  
--------------------------------------------------------------------------------
Na   c O    s Buckingham    Buckingham A     1226.8400    eV        0.000 12.000
                            Buckingham rho  0.30700000    Ang       
                            Buckingham C     0.0000000    eV*Ang^6  
--------------------------------------------------------------------------------
Na   c Cl   s Buckingham    Buckingham A     2314.7000    eV        0.000 12.000
                            Buckingham rho  0.29000000    Ang       
                            Buckingham C     0.0000000    eV*Ang^6  
--------------------------------------------------------------------------------
O    s O    s Buckingham    Buckingham A     22764.300    eV        0.000 12.000
                            Buckingham rho  0.14900000    Ang       
                            Buckingham C     13.190000    eV*Ang^6  
--------------------------------------------------------------------------------
O    s Cl   s Buckingham    Buckingham A     8286.9100    eV        0.000 12.000
                            Buckingham rho  0.25900000    Ang       
                            Buckingham C     62.200000    eV*Ang^6  
--------------------------------------------------------------------------------
Cl   s Cl   s Buckingham    Buckingham A     1227.2000    eV        0.000 12.000
                            Buckingham rho  0.32100000    Ang       
                            Buckingham C     14.530000    eV*Ang^6  
--------------------------------------------------------------------------------
O    s Mg   s Buckingham    Buckingham A     1428.5000    eV        0.000 12.000
                            Buckingham rho  0.29450000    Ang       
                            Buckingham C     0.0000000    eV*Ang^6  
--------------------------------------------------------------------------------
Mg   s Cl   s Buckingham    Buckingham A     4914.5400    eV        0.000 12.000
                            Buckingham rho  0.25700000    Ang       
                            Buckingham C     0.0000000    eV*Ang^6  
--------------------------------------------------------------------------------
O    s Ca   s Buckingham    Buckingham A     1090.4000    eV        0.000 12.000
                            Buckingham rho  0.34370000    Ang       
                            Buckingham C     0.0000000    eV*Ang^6  
--------------------------------------------------------------------------------
Cl   s Ca   s Buckingham    Buckingham A     2302.0000    eV        0.000 12.000
                            Buckingham rho  0.34020000    Ang       
                            Buckingham C     0.0000000    eV*Ang^6  
--------------------------------------------------------------------------------
O    s Sr   s Buckingham    Buckingham A     959.10000    eV        0.000 12.000
                            Buckingham rho  0.37210000    Ang       
                            Buckingham C     0.0000000    eV*Ang^6  
--------------------------------------------------------------------------------
Cl   s Sr   s Buckingham    Buckingham A     2191.0900    eV        0.000 12.000
                            Buckingham rho  0.34570000    Ang       
                            Buckingham C     0.0000000    eV*Ang^6  
--------------------------------------------------------------------------------
O    s Ba   s Buckingham    Buckingham A     905.70000    eV        0.000 12.000
                            Buckingham rho  0.39760000    Ang       
                            Buckingham C     0.0000000    eV*Ang^6  
--------------------------------------------------------------------------------
Cl   s Ba   s Buckingham    Buckingham A     2704.5500    eV        0.000 12.000
                            Buckingham rho  0.35280000    Ang       
                            Buckingham C     0.0000000    eV*Ang^6  
--------------------------------------------------------------------------------

********************************************************************************
*  Output for configuration   1                                                *
********************************************************************************


  Components of energy : 

--------------------------------------------------------------------------------
  Interatomic potentials     =           5.13022605 eV    
  Monopole - monopole (real) =         -10.03624526 eV    
  Monopole - monopole (recip)=         -29.53581274 eV    
  Monopole - monopole (total)=         -39.57205800 eV    
--------------------------------------------------------------------------------
  Total lattice energy       =         -34.44183194 eV    
--------------------------------------------------------------------------------
  Total lattice energy       =           -3323.1103 kJ/(mole unit cells)
--------------------------------------------------------------------------------


  Number of variables =        1

  Maximum number of calculations  =          1000
  Maximum Hessian update interval =            10
  Maximum step size               =   1.000000000
  Maximum parameter tolerance     =   0.000010000
  Maximum function  tolerance     =   0.000010000
  Maximum gradient  tolerance     =   0.001000000
  Maximum gradient  component     =   0.010000000

  Symmetry constrained optimisation

  Symmetry used for second derivatives

  Cell parameters to be optimised using strains

  Newton-Raphson optimiser to be used

  BFGS hessian update to be used

  Lower half triangular hessian to be used

  Start of bulk optimisation :

  Cycle:      0 Energy:       -34.441832  Gnorm:      0.196570  CPU:    0.015
  ** Hessian calculated **
  Cycle:      1 Energy:       -34.441914  Gnorm:      0.000103  CPU:    0.019


  **** Optimisation achieved ****


  Final energy =     -34.44191447 eV
  Final Gnorm  =       0.00000000

  Components of energy : 

--------------------------------------------------------------------------------
  Interatomic potentials     =           5.09689708 eV    
  Monopole - monopole (real) =         -10.02781331 eV    
  Monopole - monopole (recip)=         -29.51099824 eV    
  Monopole - monopole (total)=         -39.53881155 eV    
--------------------------------------------------------------------------------
  Total lattice energy       =         -34.44191447 eV    
--------------------------------------------------------------------------------
  Total lattice energy       =           -3323.1183 kJ/(mole unit cells)
--------------------------------------------------------------------------------

  Final asymmetric unit coordinates :

--------------------------------------------------------------------------------
   No.  Atomic        x           y           z         Radius
        Label       (Frac)      (Frac)      (Frac)       (Angs) 
--------------------------------------------------------------------------------
     1  Cl    c     0.000000    0.000000    0.000000    0.000000
     2  O     c     0.500000    0.500000    0.500000    0.000000
     3  Na    c     0.500000    0.500000    0.000000    0.000000
     4  Cl    s     0.000000    0.000000    0.000000    0.000000
     5  O     s     0.500000    0.500000    0.500000    0.000000
--------------------------------------------------------------------------------

  Final Cartesian lattice vectors (Angstroms) :

        4.507787    0.000000    0.000000
        0.000000    4.507787    0.000000
        0.000000    0.000000    4.507787


  Final cell parameters and derivatives :

--------------------------------------------------------------------------------
       a            4.507787 Angstrom     dE/de1(xx)     0.000000 eV/strain
       b            4.507787 Angstrom     dE/de2(yy)     0.000000 eV/strain
       c            4.507787 Angstrom     dE/de3(zz)     0.000000 eV/strain
       alpha       90.000000 Degrees      dE/de4(yz)     0.000000 eV/strain
       beta        90.000000 Degrees      dE/de5(xz)     0.000000 eV/strain
       gamma       90.000000 Degrees      dE/de6(xy)     0.000000 eV/strain
--------------------------------------------------------------------------------

  Primitive cell volume =            91.598892 Angs**3

  Density of cell =      2.183054 g/cm**3

  Non-primitive cell volume =            91.598892 Angs**3


  Final internal derivatives :

--------------------------------------------------------------------------------
   No.  Atomic          a             b             c           Radius
        Label          (eV)          (eV)          (eV)        (eV/Angs)
--------------------------------------------------------------------------------
      1 Cl    c       0.000000      0.000000      0.000000      0.000000
      2 O     c       0.000000      0.000000      0.000000      0.000000
      3 Na    c       0.000000      0.000000      0.000000      0.000000
      4 Cl    s       0.000000      0.000000      0.000000      0.000000
      5 O     s       0.000000      0.000000      0.000000      0.000000
--------------------------------------------------------------------------------
  Maximum abs         0.000000      0.000000      0.000000      0.000000
--------------------------------------------------------------------------------

  Comparison of initial and final structures : 

--------------------------------------------------------------------------------
  Parameter   Initial value   Final value   Difference    Units      Percent
--------------------------------------------------------------------------------
    Volume        91.368216     91.598892     0.230676    Angs**3      0.25
    a              4.504000      4.507787     0.003787    Angstroms    0.08
    b              4.504000      4.507787     0.003787    Angstroms    0.08
    c              4.504000      4.507787     0.003787    Angstroms    0.08
    alpha         90.000000     90.000000     0.000000    Degrees      0.00
    beta          90.000000     90.000000     0.000000    Degrees      0.00
    gamma         90.000000     90.000000     0.000000    Degrees      0.00
      1 x          0.000000      0.000000     0.000000    Fractional   0.00
      1 y          0.000000      0.000000     0.000000    Fractional   0.00
      1 z          0.000000      0.000000     0.000000    Fractional   0.00
      2 x          0.500000      0.500000     0.000000    Fractional   0.00
      2 y          0.500000      0.500000     0.000000    Fractional   0.00
      2 z          0.500000      0.500000     0.000000    Fractional   0.00
      3 x          0.500000      0.500000     0.000000    Fractional   0.00
      3 y          0.500000      0.500000     0.000000    Fractional   0.00
      3 z          0.000000      0.000000     0.000000    Fractional   0.00
      4 x          0.000000      0.000000     0.000000    Fractional   0.00
      4 y          0.000000      0.000000     0.000000    Fractional   0.00
      4 z          0.000000      0.000000     0.000000    Fractional   0.00
      5 x          0.500000      0.500000     0.000000    Fractional   0.00
      5 y          0.500000      0.500000     0.000000    Fractional   0.00
      5 z          0.500000      0.500000     0.000000    Fractional   0.00
--------------------------------------------------------------------------------


  Born effective charge tensors : 

-------------------------------------------------------------------------------
  Atom             x           y             z
-------------------------------------------------------------------------------
    1 Cl    x      -1.0181     -0.0000      0.0000
            y      -0.0000     -1.0181      0.0000
            z       0.0000      0.0000     -1.0181
-------------------------------------------------------------------------------
    2 O     x      -2.2647      0.0000     -0.0000
            y       0.0000     -2.2647     -0.0000
            z      -0.0000     -0.0000     -2.2647
-------------------------------------------------------------------------------
    3 Na    x       1.2258     -0.0000      0.0000
            y      -0.0000      1.2258     -0.0000
            z       0.0000     -0.0000      0.8313
-------------------------------------------------------------------------------




  Elastic Constant Matrix: (Units=GPa)

-------------------------------------------------------------------------------
  Indices      1         2         3         4         5         6    
-------------------------------------------------------------------------------
       1     95.8177   20.0737   20.0737   -0.0000   -0.0000    0.0000
       2     20.0737   95.8177   20.0737   -0.0000   -0.0000    0.0000
       3     20.0737   20.0737   95.8177   -0.0000   -0.0000    0.0000
       4     -0.0000   -0.0000   -0.0000   20.0737   -0.0000    0.0000
       5     -0.0000   -0.0000   -0.0000   -0.0000   20.0737    0.0000
       6      0.0000    0.0000    0.0000    0.0000    0.0000   20.0737
-------------------------------------------------------------------------------


  Elastic Compliance Matrix: (Units=1/GPa)

-------------------------------------------------------------------------------
  Indices      1         2         3         4         5         6    
-------------------------------------------------------------------------------
       1    0.011253 -0.001949 -0.001949  0.000000  0.000000 -0.000000
       2   -0.001949  0.011253 -0.001949  0.000000  0.000000  0.000000
       3   -0.001949 -0.001949  0.011253  0.000000  0.000000 -0.000000
       4    0.000000  0.000000  0.000000  0.049816  0.000000 -0.000000
       5    0.000000  0.000000  0.000000  0.000000  0.049816 -0.000000
       6   -0.000000  0.000000 -0.000000 -0.000000 -0.000000  0.049816
-------------------------------------------------------------------------------

  Mechanical properties :

-------------------------------------------------------------------------------
  Convention :                    Reuss         Voigt         Hill
-------------------------------------------------------------------------------
  Bulk  Modulus (GPa)     =      45.32174      45.32174      45.32174
  Shear Modulus (GPa)     =      24.72085      27.19304      25.95695
-------------------------------------------------------------------------------
  Velocity S-wave (km/s)  =       3.36511       3.52937       3.44822
  Velocity P-wave (km/s)  =       5.98827       6.11304       6.05098
-------------------------------------------------------------------------------
  Compressibility (1/GPa) =    0.02206447
-------------------------------------------------------------------------------
  Stress axis :                     x             y             z
-------------------------------------------------------------------------------
  Youngs Moduli (GPa)     =      88.86373      88.86373      88.86373
-------------------------------------------------------------------------------
  Poissons Ratio (x)      =                     0.17321       0.17321
  Poissons Ratio (y)      =       0.17321                     0.17321
  Poissons Ratio (z)      =       0.17321       0.17321
-------------------------------------------------------------------------------


  Piezoelectric Strain Matrix: (Units=C/m**2)

-------------------------------------------------------------------------------
  Indices      1         2         3         4         5         6    
-------------------------------------------------------------------------------
       x    -0.00000  -0.00000  -0.00000   0.00000  -0.00000  -0.00000
       y    -0.00000  -0.00000   0.00000  -0.00000   0.00000   0.00000
       z    -0.00000  -0.00000  -0.00000  -0.00000   0.00000   0.00000
-------------------------------------------------------------------------------


  Piezoelectric Stress Matrix: (Units=10**-11 C/N)

-------------------------------------------------------------------------------
  Indices      1         2         3         4         5         6    
-------------------------------------------------------------------------------
       x    -0.00000   0.00000   0.00000   0.00000  -0.00000  -0.00000
       y    -0.00000  -0.00000   0.00000  -0.00000   0.00000   0.00000
       z     0.00000   0.00000  -0.00000  -0.00000   0.00000   0.00000
-------------------------------------------------------------------------------


  Static dielectric constant tensor : 

-------------------------------------------------------------------------------
              x         y         z
-------------------------------------------------------------------------------
       x    22.84729   0.00000   0.00000
       y     0.00000  22.84729  -0.00000
       z     0.00000  -0.00000  22.84729
--------------------------------------------------------------------------------

  High frequency dielectric constant tensor : 

-------------------------------------------------------------------------------
              x         y         z
-------------------------------------------------------------------------------
       x     1.47557   0.00000  -0.00000
       y     0.00000   1.47557  -0.00000
       z    -0.00000  -0.00000   1.47557
-------------------------------------------------------------------------------

  Static refractive indices : 

-------------------------------------------------------------------------------
    1 =    4.77988      2 =    4.77988      3 =    4.77988
-------------------------------------------------------------------------------

  High frequency refractive indices : 

-------------------------------------------------------------------------------
    1 =    1.21473      2 =    1.21473      3 =    1.21473
-------------------------------------------------------------------------------


  Time to end of optimisation =       0.0281 seconds

********************************************************************************
*  Defect calculation for configuration   1 :                                  *
********************************************************************************

  Total number of defects =      3

  Total charge on defect  =  -1.00

  Defect centre is at   0.5000   0.2500   0.2500  Frac

  Region 1 radius =  13.0000      Number of ions =    685

  Number of symmetry inequivalent region 1 ions  =    398

  Region 2 radius =  21.0000      Number of ions =   2280

  Number of symmetry inequivalent region 2a ions =   1222

  Region 2a mode = 4 : screened electrostatics due to region 1 
                       neglect correction to region 1 forces from 2a
                       region 2a displacements based on defects only

  Region 2a ions will only interact with defects in region 1

  Vacancies:

--------------------------------------------------------------------------------
    Specification type     Symbol/Number         x          y          z
--------------------------------------------------------------------------------
    Fractional                               0.500000   0.500000   0.000000
    Fractional                               0.500000   0.000000   0.500000
--------------------------------------------------------------------------------

  Interstitials:

--------------------------------------------------------------------------------
    Specification type     Symbol/Number         x          y          z
--------------------------------------------------------------------------------
    Atom/Fractional         Na               0.500000   0.330000   0.170000
--------------------------------------------------------------------------------


  Symmetry reduced region 1 (Relative to defect centre) :

--------------------------------------------------------------------------------
   No.   Atomic       x            y             z       Radius  Multiplicity   
         Label      (Angs)       (Angs)        (Angs)    (Angs)     
--------------------------------------------------------------------------------
     1  Na    c      0.0000       0.3606      -0.3606    0.0000     1    Defect
     2  O     c      0.0000       1.1269 *     1.1269 *  0.0000     1          
     3  Cl    c      2.2539 *    -1.1269 *    -1.1269 *  0.0000     2          
     4  Na    c      2.2539 *     1.1269 *     1.1269 *  0.0000     2          
     5  O     c      0.0000       1.1269 *    -3.3808 *  0.0000     1          
     6  O     c      0.0000      -3.3808 *     1.1269 *  0.0000     1          
     7  Na    c      0.0000       1.1269 *     3.3808 *  0.0000     1          
     8  Na    c      0.0000      -3.3808 *    -1.1269 *  0.0000     1          
     9  Na    c      0.0000      -1.1269 *    -3.3808 *  0.0000     1          
    10  Na    c      0.0000       3.3808 *     1.1269 *  0.0000     1          
    11  Cl    c      2.2539 *    -1.1269 *     3.3808 *  0.0000     2          
    12  Cl    c      2.2539 *     3.3808 *    -1.1269 *  0.0000     2          
    13  Na    c      2.2539 *     1.1269 *    -3.3808 *  0.0000     2          
    14  Na    c      2.2539 *    -3.3808 *     1.1269 *  0.0000     2          
    15  O     c     -4.5078 *     1.1269 *     1.1269 *  0.0000     2          
    16  Na    c     -4.5078 *     1.1269 *    -1.1269 *  0.0000     2          
    17  Na    c     -4.5078 *    -1.1269 *     1.1269 *  0.0000     2          
    18  O     c      0.0000      -3.3808 *    -3.3808 *  0.0000     1          
    19  Na    c      0.0000      -3.3808 *     3.3808 *  0.0000     1          
    20  Na    c      0.0000       3.3808 *    -3.3808 *  0.0000     1          
    21  Cl    c      2.2539 *     3.3808 *     3.3808 *  0.0000     2          
    22  Na    c      2.2539 *    -3.3808 *    -3.3808 *  0.0000     2          
    23  O     c      0.0000       1.1269 *     5.6347 *  0.0000     1          
    24  O     c      0.0000       5.6347 *     1.1269 *  0.0000     1          
    25  Na    c      0.0000       1.1269 *    -5.6347 *  0.0000     1          
    26  Na    c      0.0000       5.6347 *    -1.1269 *  0.0000     1          
    27  Na    c      0.0000      -1.1269 *     5.6347 *  0.0000     1          
    28  Na    c      0.0000      -5.6347 *     1.1269 *  0.0000     1          
    29  O     c     -4.5078 *     1.1269 *    -3.3808 *  0.0000     2          
    30  O     c     -4.5078 *    -3.3808 *     1.1269 *  0.0000     2          
    31  Na    c     -4.5078 *     1.1269 *     3.3808 *  0.0000     2          
    32  Na    c     -4.5078 *    -3.3808 *    -1.1269 *  0.0000     2          
    33  Na    c     -4.5078 *    -1.1269 *    -3.3808 *  0.0000     2          
    34  Na    c     -4.5078 *     3.3808 *     1.1269 *  0.0000     2          
    35  Cl    c      2.2539 *    -1.1269 *    -5.6347 *  0.0000     2          
    36  Cl    c      2.2539 *    -5.6347 *    -1.1269 *  0.0000     2          
    37  Na    c      2.2539 *     1.1269 *     5.6347 *  0.0000     2          
    38  Na    c      2.2539 *     5.6347 *     1.1269 *  0.0000     2          
    39  O     c      0.0000       5.6347 *    -3.3808 *  0.0000     1          
    40  O     c      0.0000      -3.3808 *     5.6347 *  0.0000     1          
    41  Na    c      0.0000       5.6347 *     3.3808 *  0.0000     1          
    42  Na    c      0.0000      -3.3808 *    -5.6347 *  0.0000     1          
    43  Na    c      0.0000       3.3808 *     5.6347 *  0.0000     1          
    44  Na    c      0.0000      -5.6347 *    -3.3808 *  0.0000     1          
    45  O     c      4.5078 *    -3.3808 *    -3.3808 *  0.0000     2          
    46  Na    c      4.5078 *    -3.3808 *     3.3808 *  0.0000     2          
    47  Na    c      4.5078 *     3.3808 *    -3.3808 *  0.0000     2          
    48  Cl    c      2.2539 *     3.3808 *    -5.6347 *  0.0000     2          
    49  Cl    c      2.2539 *    -5.6347 *     3.3808 *  0.0000     2          
    50  Na    c      2.2539 *     5.6347 *    -3.3808 *  0.0000     2          
    51  Na    c      2.2539 *    -3.3808 *     5.6347 *  0.0000     2          
    52  Cl    c      6.7617 *    -1.1269 *    -1.1269 *  0.0000     2          
    53  Na    c      6.7617 *     1.1269 *     1.1269 *  0.0000     2          
    54  O     c     -4.5078 *     1.1269 *     5.6347 *  0.0000     2          
    55  Na    c     -4.5078 *     1.1269 *    -5.6347 *  0.0000     2          
    56  Na    c     -4.5078 *    -1.1269 *     5.6347 *  0.0000     2          
    57  O     c      4.5078 *     5.6347 *     1.1269 *  0.0000     2          
    58  Na    c      4.5078 *     5.6347 *    -1.1269 *  0.0000     2          
    59  Na    c      4.5078 *    -5.6347 *     1.1269 *  0.0000     2          
    60  Cl    c      6.7617 *    -1.1269 *     3.3808 *  0.0000     2          
    61  Na    c      6.7617 *     1.1269 *    -3.3808 *  0.0000     2          
    62  Cl    c      6.7617 *     3.3808 *    -1.1269 *  0.0000     2          
    63  Na    c      6.7617 *    -3.3808 *     1.1269 *  0.0000     2          
    64  O     c      0.0000       5.6347 *     5.6347 *  0.0000     1          
    65  Na    c      0.0000       5.6347 *    -5.6347 *  0.0000     1          
    66  Na    c      0.0000      -5.6347 *     5.6347 *  0.0000     1          
    67  O     c     -4.5078 *    -3.3808 *     5.6347 *  0.0000     2          
    68  Na    c     -4.5078 *    -3.3808 *    -5.6347 *  0.0000     2          
    69  Na    c     -4.5078 *     3.3808 *     5.6347 *  0.0000     2          
    70  O     c      0.0000       1.1269 *    -7.8886 *  0.0000     1          
    71  O     c      0.0000      -7.8886 *     1.1269 *  0.0000     1          
    72  O     c      4.5078 *     5.6347 *    -3.3808 *  0.0000     2          
    73  Na    c      0.0000       1.1269 *     7.8886 *  0.0000     1          
    74  Na    c      0.0000      -7.8886 *    -1.1269 *  0.0000     1          
    75  Na    c      4.5078 *     5.6347 *     3.3808 *  0.0000     2          
    76  Na    c      0.0000      -1.1269 *    -7.8886 *  0.0000     1          
    77  Na    c      0.0000       7.8886 *     1.1269 *  0.0000     1          
    78  Na    c      4.5078 *    -5.6347 *    -3.3808 *  0.0000     2          
    79  Cl    c      2.2539 *    -5.6347 *    -5.6347 *  0.0000     2          
    80  Na    c      2.2539 *     5.6347 *     5.6347 *  0.0000     2          
    81  Cl    c      2.2539 *    -1.1269 *     7.8886 *  0.0000     2          
    82  Na    c      2.2539 *     1.1269 *    -7.8886 *  0.0000     2          
    83  Cl    c      2.2539 *     7.8886 *    -1.1269 *  0.0000     2          
    84  Cl    c      6.7617 *     3.3808 *     3.3808 *  0.0000     2          
    85  Na    c      2.2539 *    -7.8886 *     1.1269 *  0.0000     2          
    86  Na    c      6.7617 *    -3.3808 *    -3.3808 *  0.0000     2          
    87  O     c      0.0000      -3.3808 *    -7.8886 *  0.0000     1          
    88  O     c      0.0000      -7.8886 *    -3.3808 *  0.0000     1          
    89  Na    c      0.0000      -3.3808 *     7.8886 *  0.0000     1          
    90  Na    c      0.0000      -7.8886 *     3.3808 *  0.0000     1          
    91  Na    c      0.0000       3.3808 *    -7.8886 *  0.0000     1          
    92  Na    c      0.0000       7.8886 *    -3.3808 *  0.0000     1          
    93  Cl    c      2.2539 *     3.3808 *     7.8886 *  0.0000     2          
    94  Cl    c      6.7617 *    -1.1269 *    -5.6347 *  0.0000     2          
    95  Na    c      2.2539 *    -3.3808 *    -7.8886 *  0.0000     2          
    96  Na    c      6.7617 *     1.1269 *     5.6347 *  0.0000     2          
    97  Cl    c      2.2539 *     7.8886 *     3.3808 *  0.0000     2          
    98  Cl    c      6.7617 *    -5.6347 *    -1.1269 *  0.0000     2          
    99  Na    c      2.2539 *    -7.8886 *    -3.3808 *  0.0000     2          
   100  Na    c      6.7617 *     5.6347 *     1.1269 *  0.0000     2          
   101  O     c      4.5078 *     5.6347 *     5.6347 *  0.0000     2          
   102  O     c      4.5078 *    -7.8886 *     1.1269 *  0.0000     2          
   103  O     c      9.0156 *     1.1269 *     1.1269 *  0.0000     2          
   104  O     c     -4.5078 *     1.1269 *    -7.8886 *  0.0000     2          
   105  Na    c      4.5078 *     5.6347 *    -5.6347 *  0.0000     2          
   106  Na    c      4.5078 *    -7.8886 *    -1.1269 *  0.0000     2          
   107  Na    c      9.0156 *     1.1269 *    -1.1269 *  0.0000     2          
   108  Na    c     -4.5078 *     1.1269 *     7.8886 *  0.0000     2          
   109  Na    c      4.5078 *     7.8886 *     1.1269 *  0.0000     2          
   110  Na    c      4.5078 *    -5.6347 *     5.6347 *  0.0000     2          
   111  Na    c      9.0156 *    -1.1269 *     1.1269 *  0.0000     2          
   112  Na    c     -4.5078 *    -1.1269 *    -7.8886 *  0.0000     2          
   113  Cl    c      6.7617 *     3.3808 *    -5.6347 *  0.0000     2          
   114  Na    c      6.7617 *    -3.3808 *     5.6347 *  0.0000     2          
   115  Cl    c      6.7617 *    -5.6347 *     3.3808 *  0.0000     2          
   116  Na    c      6.7617 *     5.6347 *    -3.3808 *  0.0000     2          
   117  O     c      0.0000       5.6347 *    -7.8886 *  0.0000     1          
   118  O     c      0.0000      -7.8886 *     5.6347 *  0.0000     1          
   119  O     c      9.0156 *    -3.3808 *     1.1269 *  0.0000     2          
   120  O     c     -4.5078 *    -3.3808 *    -7.8886 *  0.0000     2          
   121  Na    c      0.0000       5.6347 *     7.8886 *  0.0000     1          
   122  Na    c      0.0000      -7.8886 *    -5.6347 *  0.0000     1          
   123  Na    c      9.0156 *    -3.3808 *    -1.1269 *  0.0000     2          
   124  Na    c     -4.5078 *    -3.3808 *     7.8886 *  0.0000     2          
   125  Na    c      0.0000       7.8886 *     5.6347 *  0.0000     1          
   126  Na    c      0.0000      -5.6347 *    -7.8886 *  0.0000     1          
   127  Na    c      9.0156 *     3.3808 *     1.1269 *  0.0000     2          
   128  Na    c     -4.5078 *     3.3808 *    -7.8886 *  0.0000     2          
   129  O     c      4.5078 *    -7.8886 *    -3.3808 *  0.0000     2          
   130  O     c      9.0156 *     1.1269 *    -3.3808 *  0.0000     2          
   131  Na    c      4.5078 *    -7.8886 *     3.3808 *  0.0000     2          
   132  Na    c      9.0156 *     1.1269 *     3.3808 *  0.0000     2          
   133  Na    c      4.5078 *     7.8886 *    -3.3808 *  0.0000     2          
   134  Na    c      9.0156 *    -1.1269 *    -3.3808 *  0.0000     2          
   135  Cl    c      2.2539 *     7.8886 *    -5.6347 *  0.0000     2          
   136  Cl    c      2.2539 *    -5.6347 *     7.8886 *  0.0000     2          
   137  Na    c      2.2539 *     5.6347 *    -7.8886 *  0.0000     2          
   138  Na    c      2.2539 *    -7.8886 *     5.6347 *  0.0000     2          
   139  O     c      0.0000      10.1425 *     1.1269 *  0.0000     1          
   140  Na    c      0.0000      10.1425 *    -1.1269 *  0.0000     1          
   141  Na    c      0.0000     -10.1425 *     1.1269 *  0.0000     1          
   142  O     c      0.0000       1.1269 *    10.1425 *  0.0000     1          
   143  O     c      9.0156 *    -3.3808 *    -3.3808 *  0.0000     2          
   144  Na    c      0.0000       1.1269 *   -10.1425 *  0.0000     1          
   145  Na    c      9.0156 *    -3.3808 *     3.3808 *  0.0000     2          
   146  Na    c      0.0000      -1.1269 *    10.1425 *  0.0000     1          
   147  Na    c      9.0156 *     3.3808 *    -3.3808 *  0.0000     2          
   148  Cl    c      6.7617 *    -5.6347 *    -5.6347 *  0.0000     2          
   149  Na    c      6.7617 *     5.6347 *     5.6347 *  0.0000     2          
   150  Cl    c      2.2539 *    -1.1269 *   -10.1425 *  0.0000     2          
   151  Cl    c      2.2539 *   -10.1425 *    -1.1269 *  0.0000     2          
   152  Cl    c      6.7617 *    -1.1269 *     7.8886 *  0.0000     2          
   153  Cl    c      6.7617 *     7.8886 *    -1.1269 *  0.0000     2          
   154  Na    c      2.2539 *     1.1269 *    10.1425 *  0.0000     2          
   155  Na    c      2.2539 *    10.1425 *     1.1269 *  0.0000     2          
   156  Na    c      6.7617 *     1.1269 *    -7.8886 *  0.0000     2          
   157  Na    c      6.7617 *    -7.8886 *     1.1269 *  0.0000     2          
   158  O     c      4.5078 *     5.6347 *    -7.8886 *  0.0000     2          
   159  O     c      4.5078 *    -7.8886 *     5.6347 *  0.0000     2          
   160  O     c      9.0156 *     1.1269 *     5.6347 *  0.0000     2          
   161  O     c      9.0156 *     5.6347 *     1.1269 *  0.0000     2          
   162  Na    c      4.5078 *     5.6347 *     7.8886 *  0.0000     2          
   163  Na    c      4.5078 *    -7.8886 *    -5.6347 *  0.0000     2          
   164  Na    c      9.0156 *     1.1269 *    -5.6347 *  0.0000     2          
   165  Na    c      9.0156 *     5.6347 *    -1.1269 *  0.0000     2          
   166  Na    c      4.5078 *     7.8886 *     5.6347 *  0.0000     2          
   167  Na    c      4.5078 *    -5.6347 *    -7.8886 *  0.0000     2          
   168  Na    c      9.0156 *    -1.1269 *     5.6347 *  0.0000     2          
   169  Na    c      9.0156 *    -5.6347 *     1.1269 *  0.0000     2          
   170  O     c      0.0000      10.1425 *    -3.3808 *  0.0000     1          
   171  O     c      0.0000      -3.3808 *    10.1425 *  0.0000     1          
   172  Na    c      0.0000      10.1425 *     3.3808 *  0.0000     1          
   173  Na    c      0.0000      -3.3808 *   -10.1425 *  0.0000     1          
   174  Na    c      0.0000       3.3808 *    10.1425 *  0.0000     1          
   175  Na    c      0.0000     -10.1425 *    -3.3808 *  0.0000     1          
   176  Cl    c      2.2539 *     3.3808 *   -10.1425 *  0.0000     2          
   177  Cl    c      2.2539 *   -10.1425 *     3.3808 *  0.0000     2          
   178  Cl    c      6.7617 *     7.8886 *     3.3808 *  0.0000     2          
   179  Na    c      2.2539 *    10.1425 *    -3.3808 *  0.0000     2          
   180  Na    c      2.2539 *    -3.3808 *    10.1425 *  0.0000     2          
   181  Na    c      6.7617 *    -7.8886 *    -3.3808 *  0.0000     2          
   182  Cl    c      6.7617 *     3.3808 *     7.8886 *  0.0000     2          
   183  Na    c      6.7617 *    -3.3808 *    -7.8886 *  0.0000     2          
   184  O     c      9.0156 *    -3.3808 *     5.6347 *  0.0000     2          
   185  O     c     -4.5078 *    10.1425 *     1.1269 *  0.0000     2          
   186  Na    c      9.0156 *    -3.3808 *    -5.6347 *  0.0000     2          
   187  Na    c     -4.5078 *    10.1425 *    -1.1269 *  0.0000     2          
   188  Na    c      9.0156 *     3.3808 *     5.6347 *  0.0000     2          
   189  Na    c     -4.5078 *   -10.1425 *     1.1269 *  0.0000     2          
   190  O     c      0.0000      -7.8886 *    -7.8886 *  0.0000     1          
   191  O     c      4.5078 *     1.1269 *    10.1425 *  0.0000     2          
   192  O     c      9.0156 *     5.6347 *    -3.3808 *  0.0000     2          
   193  Na    c      0.0000      -7.8886 *     7.8886 *  0.0000     1          
   194  Na    c      4.5078 *     1.1269 *   -10.1425 *  0.0000     2          
   195  Na    c      9.0156 *     5.6347 *     3.3808 *  0.0000     2          
   196  Na    c      0.0000       7.8886 *    -7.8886 *  0.0000     1          
   197  Na    c      4.5078 *    -1.1269 *    10.1425 *  0.0000     2          
   198  Na    c      9.0156 *    -5.6347 *    -3.3808 *  0.0000     2          
   199  Cl    c     11.2695 *    -1.1269 *    -1.1269 *  0.0000     2          
   200  Na    c     11.2695 *     1.1269 *     1.1269 *  0.0000     2          
   201  Cl    c      2.2539 *     7.8886 *     7.8886 *  0.0000     2          
   202  Na    c      2.2539 *    -7.8886 *    -7.8886 *  0.0000     2          
   203  O     c      0.0000       5.6347 *    10.1425 *  0.0000     1          
   204  O     c      0.0000      10.1425 *     5.6347 *  0.0000     1          
   205  O     c     -4.5078 *    10.1425 *    -3.3808 *  0.0000     2          
   206  Na    c      0.0000       5.6347 *   -10.1425 *  0.0000     1          
   207  Na    c      0.0000      10.1425 *    -5.6347 *  0.0000     1          
   208  Na    c     -4.5078 *    10.1425 *     3.3808 *  0.0000     2          
   209  Na    c      0.0000      -5.6347 *    10.1425 *  0.0000     1          
   210  Na    c      0.0000     -10.1425 *     5.6347 *  0.0000     1          
   211  Na    c     -4.5078 *   -10.1425 *    -3.3808 *  0.0000     2          
   212  O     c      4.5078 *    -3.3808 *    10.1425 *  0.0000     2          
   213  Na    c      4.5078 *    -3.3808 *   -10.1425 *  0.0000     2          
   214  Na    c      4.5078 *     3.3808 *    10.1425 *  0.0000     2          
   215  Cl    c     11.2695 *    -1.1269 *     3.3808 *  0.0000     2          
   216  Cl    c     11.2695 *     3.3808 *    -1.1269 *  0.0000     2          
   217  Na    c     11.2695 *     1.1269 *    -3.3808 *  0.0000     2          
   218  Na    c     11.2695 *    -3.3808 *     1.1269 *  0.0000     2          
   219  Cl    c      2.2539 *    -5.6347 *   -10.1425 *  0.0000     2          
   220  Cl    c      2.2539 *   -10.1425 *    -5.6347 *  0.0000     2          
   221  Cl    c      6.7617 *     7.8886 *    -5.6347 *  0.0000     2          
   222  Na    c      2.2539 *     5.6347 *    10.1425 *  0.0000     2          
   223  Na    c      2.2539 *    10.1425 *     5.6347 *  0.0000     2          
   224  Na    c      6.7617 *    -7.8886 *     5.6347 *  0.0000     2          
   225  Cl    c      6.7617 *    -5.6347 *     7.8886 *  0.0000     2          
   226  Na    c      6.7617 *     5.6347 *    -7.8886 *  0.0000     2          
   227  O     c      9.0156 *     5.6347 *     5.6347 *  0.0000     2          
   228  O     c      9.0156 *    -7.8886 *     1.1269 *  0.0000     2          
   229  Na    c      9.0156 *     5.6347 *    -5.6347 *  0.0000     2          
   230  Na    c      9.0156 *    -7.8886 *    -1.1269 *  0.0000     2          
   231  Na    c      9.0156 *     7.8886 *     1.1269 *  0.0000     2          
   232  Na    c      9.0156 *    -5.6347 *     5.6347 *  0.0000     2          
   233  O     c      4.5078 *    -7.8886 *    -7.8886 *  0.0000     2          
   234  O     c      9.0156 *     1.1269 *    -7.8886 *  0.0000     2          
   235  Na    c      4.5078 *    -7.8886 *     7.8886 *  0.0000     2          
   236  Na    c      9.0156 *     1.1269 *     7.8886 *  0.0000     2          
   237  Na    c      4.5078 *     7.8886 *    -7.8886 *  0.0000     2          
   238  Na    c      9.0156 *    -1.1269 *    -7.8886 *  0.0000     2          
   239  Cl    c     11.2695 *     3.3808 *     3.3808 *  0.0000     2          
   240  Na    c     11.2695 *    -3.3808 *    -3.3808 *  0.0000     2          
   241  Cl    c      6.7617 *   -10.1425 *    -1.1269 *  0.0000     2          
   242  Na    c      6.7617 *    10.1425 *     1.1269 *  0.0000     2          
   243  Cl    c      6.7617 *    -1.1269 *   -10.1425 *  0.0000     2          
   244  Na    c      6.7617 *     1.1269 *    10.1425 *  0.0000     2          
   245  O     c      0.0000       1.1269 *   -12.3964 *  0.0000     1          
   246  O     c      0.0000     -12.3964 *     1.1269 *  0.0000     1          
   247  O     c      9.0156 *    -7.8886 *    -3.3808 *  0.0000     2          
   248  O     c     -4.5078 *    10.1425 *     5.6347 *  0.0000     2          
   249  Na    c      0.0000       1.1269 *    12.3964 *  0.0000     1          
   250  Na    c      0.0000     -12.3964 *    -1.1269 *  0.0000     1          
   251  Na    c      9.0156 *    -7.8886 *     3.3808 *  0.0000     2          
   252  Na    c     -4.5078 *    10.1425 *    -5.6347 *  0.0000     2          
   253  Na    c      0.0000      -1.1269 *   -12.3964 *  0.0000     1          
   254  Na    c      0.0000      12.3964 *     1.1269 *  0.0000     1          
   255  Na    c      9.0156 *     7.8886 *    -3.3808 *  0.0000     2          
   256  Na    c     -4.5078 *   -10.1425 *     5.6347 *  0.0000     2          
   257  O     c      4.5078 *     5.6347 *    10.1425 *  0.0000     2          
   258  O     c      9.0156 *    -3.3808 *    -7.8886 *  0.0000     2          
   259  Na    c      4.5078 *     5.6347 *   -10.1425 *  0.0000     2          
   260  Na    c      9.0156 *    -3.3808 *     7.8886 *  0.0000     2          
   261  Na    c      4.5078 *    -5.6347 *    10.1425 *  0.0000     2          
   262  Na    c      9.0156 *     3.3808 *    -7.8886 *  0.0000     2          
   263  Cl    c     11.2695 *    -1.1269 *    -5.6347 *  0.0000     2          
   264  Cl    c     11.2695 *    -5.6347 *    -1.1269 *  0.0000     2          
   265  Na    c     11.2695 *     1.1269 *     5.6347 *  0.0000     2          
   266  Na    c     11.2695 *     5.6347 *     1.1269 *  0.0000     2          
   267  Cl    c      2.2539 *    -1.1269 *    12.3964 *  0.0000     2          
   268  Cl    c      2.2539 *    12.3964 *    -1.1269 *  0.0000     2          
   269  Cl    c      6.7617 *   -10.1425 *     3.3808 *  0.0000     2          
   270  Na    c      2.2539 *     1.1269 *   -12.3964 *  0.0000     2          
   271  Na    c      2.2539 *   -12.3964 *     1.1269 *  0.0000     2          
   272  Na    c      6.7617 *    10.1425 *    -3.3808 *  0.0000     2          
   273  Cl    c      6.7617 *     3.3808 *   -10.1425 *  0.0000     2          
   274  Na    c      6.7617 *    -3.3808 *    10.1425 *  0.0000     2          
   275  O     c      0.0000      -3.3808 *   -12.3964 *  0.0000     1          
   276  O     c      0.0000     -12.3964 *    -3.3808 *  0.0000     1          
   277  Na    c      0.0000      -3.3808 *    12.3964 *  0.0000     1          
   278  Na    c      0.0000     -12.3964 *     3.3808 *  0.0000     1          
   279  Na    c      0.0000       3.3808 *   -12.3964 *  0.0000     1          
   280  Na    c      0.0000      12.3964 *    -3.3808 *  0.0000     1          
   281  O     c      0.0000      10.1425 *    -7.8886 *  0.0000     1          
   282  O     c      0.0000      -7.8886 *    10.1425 *  0.0000     1          
   283  Na    c      0.0000      10.1425 *     7.8886 *  0.0000     1          
   284  Na    c      0.0000      -7.8886 *   -10.1425 *  0.0000     1          
   285  Na    c      0.0000       7.8886 *    10.1425 *  0.0000     1          
   286  Na    c      0.0000     -10.1425 *    -7.8886 *  0.0000     1          
   287  O     s      0.0000       1.1269 *     1.1269 *  0.0000     1          
   288  Cl    s      2.2539 *    -1.1269 *    -1.1269 *  0.0000     2          
   289  O     s      0.0000       1.1269 *    -3.3808 *  0.0000     1          
   290  O     s      0.0000      -3.3808 *     1.1269 *  0.0000     1          
   291  Cl    s      2.2539 *    -1.1269 *     3.3808 *  0.0000     2          
   292  Cl    s      2.2539 *     3.3808 *    -1.1269 *  0.0000     2          
   293  O     s     -4.5078 *     1.1269 *     1.1269 *  0.0000     2          
   294  O     s      0.0000      -3.3808 *    -3.3808 *  0.0000     1          
   295  Cl    s      2.2539 *     3.3808 *     3.3808 *  0.0000     2          
   296  O     s      0.0000       1.1269 *     5.6347 *  0.0000     1          
   297  O     s      0.0000       5.6347 *     1.1269 *  0.0000     1          
   298  O     s     -4.5078 *     1.1269 *    -3.3808 *  0.0000     2          
   299  O     s     -4.5078 *    -3.3808 *     1.1269 *  0.0000     2          
   300  Cl    s      2.2539 *    -1.1269 *    -5.6347 *  0.0000     2          
   301  Cl    s      2.2539 *    -5.6347 *    -1.1269 *  0.0000     2          
   302  O     s      0.0000       5.6347 *    -3.3808 *  0.0000     1          
   303  O     s      0.0000      -3.3808 *     5.6347 *  0.0000     1          
   304  O     s      4.5078 *    -3.3808 *    -3.3808 *  0.0000     2          
   305  Cl    s      2.2539 *     3.3808 *    -5.6347 *  0.0000     2          
   306  Cl    s      2.2539 *    -5.6347 *     3.3808 *  0.0000     2          
   307  Cl    s      6.7617 *    -1.1269 *    -1.1269 *  0.0000     2          
   308  O     s     -4.5078 *     1.1269 *     5.6347 *  0.0000     2          
   309  O     s      4.5078 *     5.6347 *     1.1269 *  0.0000     2          
   310  Cl    s      6.7617 *    -1.1269 *     3.3808 *  0.0000     2          
   311  Cl    s      6.7617 *     3.3808 *    -1.1269 *  0.0000     2          
   312  O     s      0.0000       5.6347 *     5.6347 *  0.0000     1          
   313  O     s     -4.5078 *    -3.3808 *     5.6347 *  0.0000     2          
   314  O     s      0.0000       1.1269 *    -7.8886 *  0.0000     1          
   315  O     s      0.0000      -7.8886 *     1.1269 *  0.0000     1          
   316  O     s      4.5078 *     5.6347 *    -3.3808 *  0.0000     2          
   317  Cl    s      2.2539 *    -5.6347 *    -5.6347 *  0.0000     2          
   318  Cl    s      2.2539 *    -1.1269 *     7.8886 *  0.0000     2          
   319  Cl    s      2.2539 *     7.8886 *    -1.1269 *  0.0000     2          
   320  Cl    s      6.7617 *     3.3808 *     3.3808 *  0.0000     2          
   321  O     s      0.0000      -3.3808 *    -7.8886 *  0.0000     1          
   322  O     s      0.0000      -7.8886 *    -3.3808 *  0.0000     1          
   323  Cl    s      2.2539 *     3.3808 *     7.8886 *  0.0000     2          
   324  Cl    s      6.7617 *    -1.1269 *    -5.6347 *  0.0000     2          
   325  Cl    s      2.2539 *     7.8886 *     3.3808 *  0.0000     2          
   326  Cl    s      6.7617 *    -5.6347 *    -1.1269 *  0.0000     2          
   327  O     s      4.5078 *     5.6347 *     5.6347 *  0.0000     2          
   328  O     s      4.5078 *    -7.8886 *     1.1269 *  0.0000     2          
   329  O     s      9.0156 *     1.1269 *     1.1269 *  0.0000     2          
   330  O     s     -4.5078 *     1.1269 *    -7.8886 *  0.0000     2          
   331  Cl    s      6.7617 *     3.3808 *    -5.6347 *  0.0000     2          
   332  Cl    s      6.7617 *    -5.6347 *     3.3808 *  0.0000     2          
   333  O     s      0.0000       5.6347 *    -7.8886 *  0.0000     1          
   334  O     s      0.0000      -7.8886 *     5.6347 *  0.0000     1          
   335  O     s      9.0156 *    -3.3808 *     1.1269 *  0.0000     2          
   336  O     s     -4.5078 *    -3.3808 *    -7.8886 *  0.0000     2          
   337  O     s      4.5078 *    -7.8886 *    -3.3808 *  0.0000     2          
   338  O     s      9.0156 *     1.1269 *    -3.3808 *  0.0000     2          
   339  Cl    s      2.2539 *     7.8886 *    -5.6347 *  0.0000     2          
   340  Cl    s      2.2539 *    -5.6347 *     7.8886 *  0.0000     2          
   341  O     s      0.0000      10.1425 *     1.1269 *  0.0000     1          
   342  O     s      0.0000       1.1269 *    10.1425 *  0.0000     1          
   343  O     s      9.0156 *    -3.3808 *    -3.3808 *  0.0000     2          
   344  Cl    s      6.7617 *    -5.6347 *    -5.6347 *  0.0000     2          
   345  Cl    s      2.2539 *    -1.1269 *   -10.1425 *  0.0000     2          
   346  Cl    s      2.2539 *   -10.1425 *    -1.1269 *  0.0000     2          
   347  Cl    s      6.7617 *    -1.1269 *     7.8886 *  0.0000     2          
   348  Cl    s      6.7617 *     7.8886 *    -1.1269 *  0.0000     2          
   349  O     s      4.5078 *     5.6347 *    -7.8886 *  0.0000     2          
   350  O     s      4.5078 *    -7.8886 *     5.6347 *  0.0000     2          
   351  O     s      9.0156 *     1.1269 *     5.6347 *  0.0000     2          
   352  O     s      9.0156 *     5.6347 *     1.1269 *  0.0000     2          
   353  O     s      0.0000      10.1425 *    -3.3808 *  0.0000     1          
   354  O     s      0.0000      -3.3808 *    10.1425 *  0.0000     1          
   355  Cl    s      2.2539 *     3.3808 *   -10.1425 *  0.0000     2          
   356  Cl    s      2.2539 *   -10.1425 *     3.3808 *  0.0000     2          
   357  Cl    s      6.7617 *     7.8886 *     3.3808 *  0.0000     2          
   358  Cl    s      6.7617 *     3.3808 *     7.8886 *  0.0000     2          
   359  O     s      9.0156 *    -3.3808 *     5.6347 *  0.0000     2          
   360  O     s     -4.5078 *    10.1425 *     1.1269 *  0.0000     2          
   361  O     s      0.0000      -7.8886 *    -7.8886 *  0.0000     1          
   362  O     s      4.5078 *     1.1269 *    10.1425 *  0.0000     2          
   363  O     s      9.0156 *     5.6347 *    -3.3808 *  0.0000     2          
   364  Cl    s     11.2695 *    -1.1269 *    -1.1269 *  0.0000     2          
   365  Cl    s      2.2539 *     7.8886 *     7.8886 *  0.0000     2          
   366  O     s      0.0000       5.6347 *    10.1425 *  0.0000     1          
   367  O     s      0.0000      10.1425 *     5.6347 *  0.0000     1          
   368  O     s     -4.5078 *    10.1425 *    -3.3808 *  0.0000     2          
   369  O     s      4.5078 *    -3.3808 *    10.1425 *  0.0000     2          
   370  Cl    s     11.2695 *    -1.1269 *     3.3808 *  0.0000     2          
   371  Cl    s     11.2695 *     3.3808 *    -1.1269 *  0.0000     2          
   372  Cl    s      2.2539 *    -5.6347 *   -10.1425 *  0.0000     2          
   373  Cl    s      2.2539 *   -10.1425 *    -5.6347 *  0.0000     2          
   374  Cl    s      6.7617 *     7.8886 *    -5.6347 *  0.0000     2          
   375  Cl    s      6.7617 *    -5.6347 *     7.8886 *  0.0000     2          
   376  O     s      9.0156 *     5.6347 *     5.6347 *  0.0000     2          
   377  O     s      9.0156 *    -7.8886 *     1.1269 *  0.0000     2          
   378  O     s      4.5078 *    -7.8886 *    -7.8886 *  0.0000     2          
   379  O     s      9.0156 *     1.1269 *    -7.8886 *  0.0000     2          
   380  Cl    s     11.2695 *     3.3808 *     3.3808 *  0.0000     2          
   381  Cl    s      6.7617 *   -10.1425 *    -1.1269 *  0.0000     2          
   382  Cl    s      6.7617 *    -1.1269 *   -10.1425 *  0.0000     2          
   383  O     s      0.0000       1.1269 *   -12.3964 *  0.0000     1          
   384  O     s      0.0000     -12.3964 *     1.1269 *  0.0000     1          
   385  O     s      9.0156 *    -7.8886 *    -3.3808 *  0.0000     2          
   386  O     s     -4.5078 *    10.1425 *     5.6347 *  0.0000     2          
   387  O     s      4.5078 *     5.6347 *    10.1425 *  0.0000     2          
   388  O     s      9.0156 *    -3.3808 *    -7.8886 *  0.0000     2          
   389  Cl    s     11.2695 *    -1.1269 *    -5.6347 *  0.0000     2          
   390  Cl    s     11.2695 *    -5.6347 *    -1.1269 *  0.0000     2          
   391  Cl    s      2.2539 *    -1.1269 *    12.3964 *  0.0000     2          
   392  Cl    s      2.2539 *    12.3964 *    -1.1269 *  0.0000     2          
   393  Cl    s      6.7617 *   -10.1425 *     3.3808 *  0.0000     2          
   394  Cl    s      6.7617 *     3.3808 *   -10.1425 *  0.0000     2          
   395  O     s      0.0000      -3.3808 *   -12.3964 *  0.0000     1          
   396  O     s      0.0000     -12.3964 *    -3.3808 *  0.0000     1          
   397  O     s      0.0000      10.1425 *    -7.8886 *  0.0000     1          
   398  O     s      0.0000      -7.8886 *    10.1425 *  0.0000     1          
--------------------------------------------------------------------------------

  Components of defect energy : 

--------------------------------------------------------------------------------
  Region 1 - region 1                   =      9.54213970 eV
  Region 1 - region 2a (unrelaxed)      =      0.31077283 eV
  Region 1 - 2a (relaxed - correction)  =     -0.41583178 eV
  Region 1 (Total)                      =      9.43708075 eV
  Region 2a                             =      0.20784402 eV
  Region 2b                             =     -0.32791089 eV
--------------------------------------------------------------------------------
  Total defect energy                   =      9.31701388 eV
--------------------------------------------------------------------------------

  Largest displacement in region 2 =   0.0206 Angstroms


  Number of variables =     1081

  Maximum number of calculations  =        1000
  Maximum Hessian update interval =          10
  Maximum step size               =   1.0000000
  Maximum parameter tolerance     =   0.0000100
  Maximum function  tolerance     =   0.0000100
  Maximum gradient  tolerance     =   0.0010000

  Symmetry adapted optimisation

  Symmetry to be used for second derivatives

  Newton-Raphson optimiser to be used

  BFGS hessian update to be used

  Lower half triangular hessian to be used

  Start of defect optimisation :

  Cycle:      0 Defect Energy:   9.317014  Gnorm:     0.017177  CPU:    5.966
  ** Hessian calculated **
  Cycle:      1 Defect Energy:   7.747435  Gnorm:     0.008864  CPU:   22.243
  Cycle:      2 Defect Energy:   7.238695  Gnorm:     0.008099  CPU:   33.697
  Cycle:      3 Defect Energy:   7.052408  Gnorm:     0.006762  CPU:   42.246
  Cycle:      4 Defect Energy:   6.749101  Gnorm:     0.007192  CPU:   60.965
  Cycle:      5 Defect Energy:   6.462904  Gnorm:     0.005064  CPU:   73.376
  Cycle:      6 Defect Energy:   6.137219  Gnorm:     0.006167  CPU:   88.370
  Cycle:      7 Defect Energy:   5.776427  Gnorm:     0.005849  CPU:  101.281
  Cycle:      8 Defect Energy:   5.490938  Gnorm:     0.003400  CPU:  110.189
  Cycle:      9 Defect Energy:   5.411303  Gnorm:     0.002584  CPU:  112.476
  Cycle:     10 Defect Energy:   5.339045  Gnorm:     0.002276  CPU:  118.061
  ** Hessian calculated **
  Cycle:     11 Defect Energy:   5.300071  Gnorm:     0.002191  CPU:  124.593
  Cycle:     12 Defect Energy:   5.238654  Gnorm:     0.002053  CPU:  127.137
  Cycle:     13 Defect Energy:   5.166624  Gnorm:     0.001851  CPU:  129.750
  Cycle:     14 Defect Energy:   5.110360  Gnorm:     0.001702  CPU:  132.156
  Cycle:     15 Defect Energy:   5.114169  Gnorm:     0.001643  CPU:  134.622
  ** Hessian calculated **
  Cycle:     16 Defect Energy:   4.974696  Gnorm:     0.001170  CPU:  140.915
  Cycle:     17 Defect Energy:   4.902450  Gnorm:     0.000839  CPU:  143.507
  Cycle:     18 Defect Energy:   4.858024  Gnorm:     0.000633  CPU:  146.043
  Cycle:     19 Defect Energy:   4.870809  Gnorm:     0.000801  CPU:  150.368
  ** Hessian calculated **
  Cycle:     20 Defect Energy:   4.825591  Gnorm:     0.000579  CPU:  157.165
  Cycle:     21 Defect Energy:   4.797805  Gnorm:     0.000437  CPU:  159.765
  Cycle:     22 Defect Energy:   4.779321  Gnorm:     0.000282  CPU:  162.299
  Cycle:     23 Defect Energy:   4.769434  Gnorm:     0.000240  CPU:  164.913
  Cycle:     24 Defect Energy:   4.760591  Gnorm:     0.000118  CPU:  167.452
  Cycle:     25 Defect Energy:   4.757643  Gnorm:     0.000091  CPU:  170.098
  Cycle:     26 Defect Energy:   4.755279  Gnorm:     0.000114  CPU:  172.525
  Cycle:     27 Defect Energy:   4.752448  Gnorm:     0.000150  CPU:  175.000
  Cycle:     28 Defect Energy:   4.748799  Gnorm:     0.000264  CPU:  177.172
  Cycle:     29 Defect Energy:   4.746150  Gnorm:     0.000387  CPU:  179.161
  ** Hessian calculated **
  Cycle:     30 Defect Energy:   4.744179  Gnorm:     0.000223  CPU:  189.473
  Cycle:     31 Defect Energy:   4.742959  Gnorm:     0.000162  CPU:  192.245
  Cycle:     32 Defect Energy:   4.741624  Gnorm:     0.000156  CPU:  194.989
  Cycle:     33 Defect Energy:   4.740396  Gnorm:     0.000156  CPU:  197.385
  Cycle:     34 Defect Energy:   4.739366  Gnorm:     0.000166  CPU:  199.763
  Cycle:     35 Defect Energy:   4.738455  Gnorm:     0.000184  CPU:  202.115
  Cycle:     36 Defect Energy:   4.737548  Gnorm:     0.000197  CPU:  204.463
  Cycle:     37 Defect Energy:   4.736718  Gnorm:     0.000206  CPU:  206.676
  Cycle:     38 Defect Energy:   4.735707  Gnorm:     0.000221  CPU:  209.013
  Cycle:     39 Defect Energy:   4.734702  Gnorm:     0.000231  CPU:  211.150
  ** Hessian calculated **
  Cycle:     40 Defect Energy:   4.734331  Gnorm:     0.000219  CPU:  220.287
  Cycle:     41 Defect Energy:   4.733890  Gnorm:     0.000213  CPU:  222.956
  Cycle:     42 Defect Energy:   4.733254  Gnorm:     0.000206  CPU:  225.705
  Cycle:     43 Defect Energy:   4.732460  Gnorm:     0.000201  CPU:  228.299
  Cycle:     44 Defect Energy:   4.731360  Gnorm:     0.000196  CPU:  230.937
  Cycle:     45 Defect Energy:   4.730057  Gnorm:     0.000200  CPU:  233.328
  Cycle:     46 Defect Energy:   4.728555  Gnorm:     0.000220  CPU:  235.846
  Cycle:     47 Defect Energy:   4.727100  Gnorm:     0.000225  CPU:  238.182
  Cycle:     48 Defect Energy:   4.725347  Gnorm:     0.000259  CPU:  240.577
  Cycle:     49 Defect Energy:   4.722744  Gnorm:     0.000302  CPU:  242.828
  ** Hessian calculated **
  Cycle:     50 Defect Energy:   4.721530  Gnorm:     0.000286  CPU:  248.306
  Cycle:     51 Defect Energy:   4.719889  Gnorm:     0.000279  CPU:  250.928
  Cycle:     52 Defect Energy:   4.717802  Gnorm:     0.000278  CPU:  257.001
  Cycle:     53 Defect Energy:   4.715117  Gnorm:     0.000275  CPU:  259.735
  Cycle:     54 Defect Energy:   4.712193  Gnorm:     0.000288  CPU:  262.460
  Cycle:     55 Defect Energy:   4.709619  Gnorm:     0.000307  CPU:  264.978
  Cycle:     56 Defect Energy:   4.706884  Gnorm:     0.000352  CPU:  267.542
  Cycle:     57 Defect Energy:   4.703000  Gnorm:     0.000391  CPU:  270.001
  Cycle:     58 Defect Energy:   4.698061  Gnorm:     0.000459  CPU:  272.461
  Cycle:     59 Defect Energy:   4.690596  Gnorm:     0.000562  CPU:  274.879
  ** Hessian calculated **
  Cycle:     60 Defect Energy:   4.686437  Gnorm:     0.000530  CPU:  280.713
  Cycle:     61 Defect Energy:   4.680916  Gnorm:     0.000513  CPU:  282.872
  Cycle:     62 Defect Energy:   4.673658  Gnorm:     0.000492  CPU:  284.924
  Cycle:     63 Defect Energy:   4.664498  Gnorm:     0.000475  CPU:  290.743
  Cycle:     64 Defect Energy:   4.654829  Gnorm:     0.000467  CPU:  293.421
  Cycle:     65 Defect Energy:   4.647760  Gnorm:     0.000479  CPU:  296.226
  Cycle:     66 Defect Energy:   4.641398  Gnorm:     0.000516  CPU:  298.745
  Cycle:     67 Defect Energy:   4.634139  Gnorm:     0.000549  CPU:  301.389
  Cycle:     68 Defect Energy:   4.626844  Gnorm:     0.000593  CPU:  303.788
  Cycle:     69 Defect Energy:   4.618056  Gnorm:     0.000646  CPU:  306.240
  ** Hessian calculated **
  Cycle:     70 Defect Energy:   4.614237  Gnorm:     0.000627  CPU:  311.933
  Cycle:     71 Defect Energy:   4.608973  Gnorm:     0.000620  CPU:  314.092
  Cycle:     72 Defect Energy:   4.602030  Gnorm:     0.000610  CPU:  316.369
  Cycle:     73 Defect Energy:   4.592910  Gnorm:     0.000602  CPU:  318.549
  Cycle:     74 Defect Energy:   4.581800  Gnorm:     0.000615  CPU:  321.403
  Cycle:     75 Defect Energy:   4.569133  Gnorm:     0.000652  CPU:  326.451
  Cycle:     76 Defect Energy:   4.556571  Gnorm:     0.000720  CPU:  329.214
  Cycle:     77 Defect Energy:   4.543273  Gnorm:     0.000767  CPU:  331.901
  Cycle:     78 Defect Energy:   4.531117  Gnorm:     0.000845  CPU:  334.458
  Cycle:     79 Defect Energy:   4.519269  Gnorm:     0.000896  CPU:  336.993
  ** Hessian calculated **
  Cycle:     80 Defect Energy:   4.481287  Gnorm:     0.000858  CPU:  342.861
  Cycle:     81 Defect Energy:   4.419569  Gnorm:     0.000753  CPU:  345.319
  Cycle:     82 Defect Energy:   4.362575  Gnorm:     0.000481  CPU:  347.571
  Cycle:     83 Defect Energy:   4.353742  Gnorm:     0.000421  CPU:  349.883
  Cycle:     84 Defect Energy:   4.338615  Gnorm:     0.000227  CPU:  352.072
  Cycle:     85 Defect Energy:   4.334157  Gnorm:     0.000147  CPU:  354.283
  Cycle:     86 Defect Energy:   4.332762  Gnorm:     0.000121  CPU:  359.963
  Cycle:     87 Defect Energy:   4.332951  Gnorm:     0.000146  CPU:  362.631
  ** Hessian calculated **
  Cycle:     88 Defect Energy:   4.331890  Gnorm:     0.000103  CPU:  369.102
  Cycle:     89 Defect Energy:   4.331341  Gnorm:     0.000074  CPU:  371.647
  Cycle:     90 Defect Energy:   4.331037  Gnorm:     0.000053  CPU:  374.065
  Cycle:     91 Defect Energy:   4.330873  Gnorm:     0.000038  CPU:  376.522
  Cycle:     92 Defect Energy:   4.330788  Gnorm:     0.000027  CPU:  378.911
  Cycle:     93 Defect Energy:   4.330747  Gnorm:     0.000020  CPU:  381.351
  Cycle:     94 Defect Energy:   4.330729  Gnorm:     0.000014  CPU:  383.662


  **** Optimisation achieved ****


  Final defect energy  =        4.33072263
  Final defect Gnorm   =        0.00000970

  Components of defect energy : 

--------------------------------------------------------------------------------
  Region 1 - region 1                   =      5.19081012 eV
  Region 1 - region 2a (unrelaxed)      =     -0.35485840 eV
  Region 1 - 2a (relaxed - correction)  =     -0.35458019 eV
  Region 1 (Total)                      =      4.48137152 eV
  Region 2a                             =      0.17715114 eV
  Region 2b                             =     -0.32780003 eV
--------------------------------------------------------------------------------
  Total defect energy                   =      4.33072263 eV
--------------------------------------------------------------------------------

  Largest displacement in region 2 =   0.0206 Angstroms

  Final coordinates of region 1 :

--------------------------------------------------------------------------------
   No.  Atomic        x           y           z          Radius      Charge
        Label       (Angs)      (Angs)      (Angs)       (Angs)       (e) 
--------------------------------------------------------------------------------
     1  Na    c     2.253894    1.487570    0.766324    0.000000    1.000000
     2  O     c     2.253894    2.466893    2.634337    0.000000    0.183000
     3  Cl    c     4.576542   -0.031317   -0.044821    0.000000    1.485000
     4  Cl    c    -0.068755   -0.031317   -0.044821    0.000000    1.485000
     5  Na    c     4.493071    2.371991    2.664383    0.000000    1.000000
     6  Na    c     0.014716    2.371991    2.664383    0.000000    1.000000
     7  O     c     2.253894    2.221456   -2.101653    0.000000    0.183000
     8  O     c     2.253894   -2.363969    2.329220    0.000000    0.183000
     9  Na    c     2.253894    1.604181    4.627109    0.000000    1.000000
    10  Na    c     2.253894   -2.424100    0.092573    0.000000    1.000000
    11  Na    c     2.253894    0.004412   -2.111153    0.000000    1.000000
    12  Na    c     2.253894    4.609877    2.306606    0.000000    1.000000
    13  Cl    c     4.629918    0.010448    4.686785    0.000000    1.485000
    14  Cl    c    -0.122131    0.010448    4.686785    0.000000    1.485000
    15  Cl    c     4.587557    4.648541    0.049154    0.000000    1.485000
    16  Cl    c    -0.079770    4.648541    0.049154    0.000000    1.485000
    17  Na    c     4.475790    2.177645   -2.036618    0.000000    1.000000
    18  Na    c     0.031997    2.177645   -2.036618    0.000000    1.000000
    19  Na    c     4.413341   -1.866154    2.270270    0.000000    1.000000
    20  Na    c     0.094446   -1.866154    2.270270    0.000000    1.000000
    21  O     c    -2.245328    2.281953    2.310125    0.000000    0.183000
    22  O     c     6.753115    2.281953    2.310125    0.000000    0.183000
    23  Na    c    -2.117153    2.661007    0.062981    0.000000    1.000000
    24  Na    c     6.624940    2.661007    0.062981    0.000000    1.000000
    25  Na    c    -2.274621    0.046534    1.878531    0.000000    1.000000
    26  Na    c     6.782409    0.046534    1.878531    0.000000    1.000000
    27  O     c     2.253894   -2.252653   -2.208755    0.000000    0.183000
    28  Na    c     2.253894   -1.778430    4.480104    0.000000    1.000000
    29  Na    c     2.253894    4.425226   -1.649659    0.000000    1.000000
    30  Cl    c     4.655334    4.652916    4.597193    0.000000    1.485000
    31  Cl    c    -0.147546    4.652916    4.597193    0.000000    1.485000
    32  Na    c     4.507241   -2.154440   -2.228226    0.000000    1.000000
    33  Na    c     0.000546   -2.154440   -2.228226    0.000000    1.000000
    34  O     c     2.253894    2.239212    6.807749    0.000000    0.183000
    35  O     c     2.253894    6.849543    2.257618    0.000000    0.183000
    36  Na    c     2.253894    2.428622   -4.384282    0.000000    1.000000
    37  Na    c     2.253894    7.072018    0.013814    0.000000    1.000000
    38  Na    c     2.253894   -0.012478    7.272261    0.000000    1.000000
    39  Na    c     2.253894   -4.530212    2.681173    0.000000    1.000000
    40  O     c    -2.236123    2.260658   -2.193471    0.000000    0.183000
    41  O     c     6.743910    2.260658   -2.193471    0.000000    0.183000
    42  O     c    -2.199862   -2.202917    2.250864    0.000000    0.183000
    43  O     c     6.707649   -2.202917    2.250864    0.000000    0.183000
    44  Na    c    -2.402877    1.883168    4.544590    0.000000    1.000000
    45  Na    c     6.910664    1.883168    4.544590    0.000000    1.000000
    46  Na    c    -2.138431   -2.602978    0.017471    0.000000    1.000000
    47  Na    c     6.646219   -2.602978    0.017471    0.000000    1.000000
    48  Na    c    -2.338932    0.002304   -1.868432    0.000000    1.000000
    49  Na    c     6.846719    0.002304   -1.868432    0.000000    1.000000
    50  Na    c    -2.277129    4.533129    2.649050    0.000000    1.000000
    51  Na    c     6.784916    4.533129    2.649050    0.000000    1.000000
    52  Cl    c     4.492876   -0.048415   -4.511755    0.000000    1.485000
    53  Cl    c     0.014911   -0.048415   -4.511755    0.000000    1.485000
    54  Cl    c     4.571467   -4.598854   -0.097808    0.000000    1.485000
    55  Cl    c    -0.063680   -4.598854   -0.097808    0.000000    1.485000
    56  Na    c     4.520931    2.336789    6.733357    0.000000    1.000000
    57  Na    c    -0.013143    2.336789    6.733357    0.000000    1.000000
    58  Na    c     4.521430    6.744112    2.122959    0.000000    1.000000
    59  Na    c    -0.013643    6.744112    2.122959    0.000000    1.000000
    60  O     c     2.253894    6.703076   -2.204889    0.000000    0.183000
    61  O     c     2.253894   -2.246858    6.742760    0.000000    0.183000
    62  Na    c     2.253894    6.998183    4.516431    0.000000    1.000000
    63  Na    c     2.253894   -2.103175   -4.463360    0.000000    1.000000
    64  Na    c     2.253894    4.441759    6.195344    0.000000    1.000000
    65  Na    c     2.253894   -4.501840   -2.470303    0.000000    1.000000
    66  O     c     6.764494   -2.252645   -2.231267    0.000000    0.183000
    67  O     c    -2.256707   -2.252645   -2.231267    0.000000    0.183000
    68  Na    c     6.792679   -1.909361    4.504181    0.000000    1.000000
    69  Na    c    -2.284892   -1.909361    4.504181    0.000000    1.000000
    70  Na    c     6.681997    4.490605   -2.608484    0.000000    1.000000
    71  Na    c    -2.174210    4.490605   -2.608484    0.000000    1.000000
    72  Cl    c     4.556701    4.517062   -4.566918    0.000000    1.485000
    73  Cl    c    -0.048914    4.517062   -4.566918    0.000000    1.485000
    74  Cl    c     4.560428   -4.617331    4.625610    0.000000    1.485000
    75  Cl    c    -0.052641   -4.617331    4.625610    0.000000    1.485000
    76  Na    c     4.510790    6.683997   -2.125199    0.000000    1.000000
    77  Na    c    -0.003003    6.683997   -2.125199    0.000000    1.000000
    78  Na    c     4.510859   -2.333836    6.664256    0.000000    1.000000
    79  Na    c    -0.003071   -2.333836    6.664256    0.000000    1.000000
    80  Cl    c     9.045622    0.029192    0.039674    0.000000    1.485000
    81  Cl    c    -4.537834    0.029192    0.039674    0.000000    1.485000
    82  Na    c     9.011708    2.297540    2.125233    0.000000    1.000000
    83  Na    c    -4.503920    2.297540    2.125233    0.000000    1.000000
    84  O     c    -2.278382    2.247225    6.783325    0.000000    0.183000
    85  O     c     6.786169    2.247225    6.783325    0.000000    0.183000
    86  Na    c    -2.223989    1.903677   -4.450454    0.000000    1.000000
    87  Na    c     6.731776    1.903677   -4.450454    0.000000    1.000000
    88  Na    c    -2.065610   -0.000052    7.092673    0.000000    1.000000
    89  Na    c     6.573398   -0.000052    7.092673    0.000000    1.000000
    90  O     c     6.779457    6.774267    2.274018    0.000000    0.183000
    91  O     c    -2.271670    6.774267    2.274018    0.000000    0.183000
    92  Na    c     6.894781    6.426396    0.013939    0.000000    1.000000
    93  Na    c    -2.386994    6.426396    0.013939    0.000000    1.000000
    94  Na    c     6.530843   -4.453768    2.565584    0.000000    1.000000
    95  Na    c    -2.023056   -4.453768    2.565584    0.000000    1.000000
    96  Cl    c     9.056900   -0.002908    4.563869    0.000000    1.485000
    97  Cl    c    -4.549113   -0.002908    4.563869    0.000000    1.485000
    98  Na    c     9.002365    2.353859   -2.107411    0.000000    1.000000
    99  Na    c    -4.494578    2.353859   -2.107411    0.000000    1.000000
   100  Cl    c     9.045196    4.471703    0.010479    0.000000    1.485000
   101  Cl    c    -4.537408    4.471703    0.010479    0.000000    1.485000
   102  Na    c     8.981205   -2.316913    2.196165    0.000000    1.000000
   103  Na    c    -4.473418   -2.316913    2.196165    0.000000    1.000000
   104  O     c     2.253894    6.680560    6.755052    0.000000    0.183000
   105  Na    c     2.253894    6.343772   -4.454999    0.000000    1.000000
   106  Na    c     2.253894   -4.500031    6.357764    0.000000    1.000000
   107  O     c    -2.263759   -2.240045    6.762804    0.000000    0.183000
   108  O     c     6.771546   -2.240045    6.762804    0.000000    0.183000
   109  Na    c    -2.293744   -1.928710   -4.488592    0.000000    1.000000
   110  Na    c     6.801532   -1.928710   -4.488592    0.000000    1.000000
   111  Na    c    -2.396533    4.507242    6.454258    0.000000    1.000000
   112  Na    c     6.904320    4.507242    6.454258    0.000000    1.000000
   113  O     c     2.253894    2.275298   -6.705240    0.000000    0.183000
   114  O     c     2.253894   -6.773778    2.244520    0.000000    0.183000
   115  O     c     6.770382    6.738150   -2.252737    0.000000    0.183000
   116  O     c    -2.262595    6.738150   -2.252737    0.000000    0.183000
   117  Na    c     2.253894    2.677058    9.016015    0.000000    1.000000
   118  Na    c     2.253894   -6.362589    0.013783    0.000000    1.000000
   119  Na    c     6.546163    7.067827    4.513287    0.000000    1.000000
   120  Na    c    -2.038376    7.067827    4.513287    0.000000    1.000000
   121  Na    c     2.253894    0.016780   -6.646672    0.000000    1.000000
   122  Na    c     2.253894    9.068147    2.359807    0.000000    1.000000
   123  Na    c     6.609067   -4.493821   -2.555640    0.000000    1.000000
   124  Na    c    -2.101280   -4.493821   -2.555640    0.000000    1.000000
   125  Cl    c     4.484784   -4.513727   -4.542641    0.000000    1.485000
   126  Cl    c     0.023004   -4.513727   -4.542641    0.000000    1.485000
   127  Na    c     4.516922    6.576263    6.855154    0.000000    1.000000
[...]
    318 y          0.000000     -0.005475    -0.005475    Cartesian    0.00
    318 z          9.015574      9.098044     0.082470    Cartesian    0.91
    319 x          4.507787      4.496390    -0.011397    Cartesian   -0.25
    319 y          9.015574      9.046058     0.030484    Cartesian    0.34
    319 z          0.000000      0.010836     0.010836    Cartesian    0.00
    320 x          9.015574      9.080501     0.064927    Cartesian    0.72
    320 y          4.507787      4.561277     0.053490    Cartesian    1.19
    320 z          4.507787      4.511835     0.004048    Cartesian    0.09
    321 x          2.253894      2.253894     0.000000    Cartesian    0.00
    321 y         -2.253894     -2.254619    -0.000725    Cartesian    0.03
    321 z         -6.761681     -6.716834     0.044847    Cartesian   -0.66
    322 x          2.253894      2.253894     0.000000    Cartesian    0.00
    322 y         -6.761681     -6.763887    -0.002206    Cartesian    0.03
    322 z         -2.253894     -2.220358     0.033536    Cartesian   -1.49
    323 x          4.507787      4.559699     0.051911    Cartesian    1.15
    323 y          4.507787      4.534531     0.026744    Cartesian    0.59
    323 z          9.015574      9.084651     0.069077    Cartesian    0.77
    324 x          9.015574      9.029936     0.014362    Cartesian    0.16
    324 y          0.000000     -0.002473    -0.002473    Cartesian    0.00
    324 z         -4.507787     -4.553311    -0.045524    Cartesian    1.01
    325 x          4.507787      4.452225    -0.055562    Cartesian   -1.23
    325 y          9.015574      9.089673     0.074099    Cartesian    0.82
    325 z          4.507787      4.506276    -0.001512    Cartesian   -0.03
    326 x          9.015574      9.075881     0.060306    Cartesian    0.67
    326 y         -4.507787     -4.494066     0.013722    Cartesian   -0.30
    326 z          0.000000     -0.013186    -0.013186    Cartesian    0.00
    327 x          6.761681      6.775673     0.013992    Cartesian    0.21
    327 y          6.761681      6.773477     0.011796    Cartesian    0.17
    327 z          6.761681      6.752699    -0.008982    Cartesian   -0.13
    328 x          6.761681      6.749802    -0.011879    Cartesian   -0.18
    328 y         -6.761681     -6.719874     0.041807    Cartesian   -0.62
    328 z          2.253894      2.262424     0.008530    Cartesian    0.38
    329 x         11.269468     11.267088    -0.002380    Cartesian   -0.02
    329 y          2.253894      2.248394    -0.005500    Cartesian   -0.24
    329 z          2.253894      2.251091    -0.002803    Cartesian   -0.12
    330 x         -2.253894     -2.250505     0.003389    Cartesian   -0.15
    330 y          2.253894      2.232067    -0.021826    Cartesian   -0.97
    330 z         -6.761681     -6.721482     0.040199    Cartesian   -0.59
    331 x          9.015574      9.061159     0.045585    Cartesian    0.51
    331 y          4.507787      4.552076     0.044289    Cartesian    0.98
    331 z         -4.507787     -4.508592    -0.000805    Cartesian    0.02
    332 x          9.015574      9.046850     0.031275    Cartesian    0.35
    332 y         -4.507787     -4.515229    -0.007441    Cartesian    0.17
    332 z          4.507787      4.507041    -0.000746    Cartesian   -0.02
    333 x          2.253894      2.253894     0.000000    Cartesian    0.00
    333 y          6.761681      6.722971    -0.038710    Cartesian   -0.57
    333 z         -6.761681     -6.734943     0.026738    Cartesian   -0.40
    334 x          2.253894      2.253894     0.000000    Cartesian    0.00
    334 y         -6.761681     -6.741026     0.020655    Cartesian   -0.31
    334 z          6.761681      6.760712    -0.000969    Cartesian   -0.01
    335 x         11.269468     11.255246    -0.014222    Cartesian   -0.13
    335 y         -2.253894     -2.237624     0.016270    Cartesian   -0.72
    335 z          2.253894      2.252377    -0.001517    Cartesian   -0.07
    336 x         -2.253894     -2.252539     0.001355    Cartesian   -0.06
    336 y         -2.253894     -2.235846     0.018047    Cartesian   -0.80
    336 z         -6.761681     -6.751918     0.009763    Cartesian   -0.14
    337 x          6.761681      6.771272     0.009591    Cartesian    0.14
    337 y         -6.761681     -6.742135     0.019546    Cartesian   -0.29
    337 z         -2.253894     -2.264306    -0.010412    Cartesian    0.46
    338 x         11.269468     11.265259    -0.004209    Cartesian   -0.04
    338 y          2.253894      2.245063    -0.008831    Cartesian   -0.39
    338 z         -2.253894     -2.234345     0.019549    Cartesian   -0.87
    339 x          4.507787      4.517981     0.010194    Cartesian    0.23
    339 y          9.015574      9.076364     0.060789    Cartesian    0.67
    339 z         -4.507787     -4.521962    -0.014175    Cartesian    0.31
    340 x          4.507787      4.520151     0.012364    Cartesian    0.27
    340 y         -4.507787     -4.522884    -0.015097    Cartesian    0.33
    340 z          9.015574      9.086233     0.070659    Cartesian    0.78
    341 x          2.253894      2.253894     0.000000    Cartesian    0.00
    341 y         11.269468     11.289134     0.019666    Cartesian    0.17
    341 z          2.253894      2.255625     0.001731    Cartesian    0.08
    342 x          2.253894      2.253894     0.000000    Cartesian    0.00
    342 y          2.253894      2.250411    -0.003483    Cartesian   -0.15
    342 z         11.269468     11.250539    -0.018929    Cartesian   -0.17
    343 x         11.269468     11.263373    -0.006095    Cartesian   -0.05
    343 y         -2.253894     -2.230328     0.023565    Cartesian   -1.05
    343 z         -2.253894     -2.246720     0.007173    Cartesian   -0.32
    344 x          9.015574      9.054289     0.038714    Cartesian    0.43
    344 y         -4.507787     -4.527128    -0.019340    Cartesian    0.43
    344 z         -4.507787     -4.509891    -0.002104    Cartesian    0.05
    345 x          4.507787      4.479477    -0.028310    Cartesian   -0.63
    345 y          0.000000      0.014748     0.014748    Cartesian    0.00
    345 z         -9.015574     -9.031615    -0.016040    Cartesian    0.18
    346 x          4.507787      4.516210     0.008423    Cartesian    0.19
    346 y         -9.015574     -9.071520    -0.055946    Cartesian    0.62
    346 z          0.000000     -0.000281    -0.000281    Cartesian    0.00
    347 x          9.015574      9.068200     0.052625    Cartesian    0.58
    347 y          0.000000      0.005036     0.005036    Cartesian    0.00
    347 z          9.015574      9.035526     0.019952    Cartesian    0.22
    348 x          9.015574      9.018152     0.002577    Cartesian    0.03
    348 y          9.015574      9.061869     0.046295    Cartesian    0.51
    348 z          0.000000     -0.005747    -0.005747    Cartesian    0.00
    349 x          6.761681      6.764266     0.002585    Cartesian    0.04
    349 y          6.761681      6.772591     0.010910    Cartesian    0.16
    349 z         -6.761681     -6.728789     0.032892    Cartesian   -0.49
    350 x          6.761681      6.769796     0.008115    Cartesian    0.12
    350 y         -6.761681     -6.759523     0.002158    Cartesian   -0.03
    350 z          6.761681      6.747416    -0.014265    Cartesian   -0.21
    351 x         11.269468     11.269647     0.000179    Cartesian    0.00
    351 y          2.253894      2.259235     0.005341    Cartesian    0.24
    351 z          6.761681      6.742671    -0.019010    Cartesian   -0.28
    352 x         11.269468     11.274796     0.005328    Cartesian    0.05
    352 y          6.761681      6.755387    -0.006294    Cartesian   -0.09
    352 z          2.253894      2.241910    -0.011983    Cartesian   -0.53
    353 x          2.253894      2.253894     0.000000    Cartesian    0.00
    353 y         11.269468     11.236589    -0.032879    Cartesian   -0.29
    353 z         -2.253894     -2.275093    -0.021199    Cartesian    0.94
    354 x          2.253894      2.253894     0.000000    Cartesian    0.00
    354 y         -2.253894     -2.246732     0.007161    Cartesian   -0.32
    354 z         11.269468     11.234364    -0.035105    Cartesian   -0.31
    355 x          4.507787      4.522465     0.014677    Cartesian    0.33
    355 y          4.507787      4.513477     0.005690    Cartesian    0.13
    355 z         -9.015574     -9.031916    -0.016341    Cartesian    0.18
    356 x          4.507787      4.514449     0.006662    Cartesian    0.15
    356 y         -9.015574     -9.048527    -0.032952    Cartesian    0.37
    356 z          4.507787      4.508516     0.000729    Cartesian    0.02
    357 x          9.015574      9.064455     0.048881    Cartesian    0.54
    357 y          9.015574      9.047934     0.032359    Cartesian    0.36
    357 z          4.507787      4.504637    -0.003150    Cartesian   -0.07
    358 x          9.015574      9.050645     0.035071    Cartesian    0.39
    358 y          4.507787      4.504267    -0.003521    Cartesian   -0.08
    358 z          9.015574      9.060060     0.044486    Cartesian    0.49
    359 x         11.269468     11.271962     0.002494    Cartesian    0.02
    359 y         -2.253894     -2.250114     0.003780    Cartesian   -0.17
    359 z          6.761681      6.739439    -0.022242    Cartesian   -0.33
    360 x         -2.253894     -2.253245     0.000648    Cartesian   -0.03
    360 y         11.269468     11.265376    -0.004092    Cartesian   -0.04
    360 z          2.253894      2.235479    -0.018415    Cartesian   -0.82
    361 x          2.253894      2.253894     0.000000    Cartesian    0.00
    361 y         -6.761681     -6.757179     0.004502    Cartesian   -0.07
    361 z         -6.761681     -6.750124     0.011557    Cartesian   -0.17
    362 x          6.761681      6.760928    -0.000753    Cartesian   -0.01
    362 y          2.253894      2.270538     0.016645    Cartesian    0.74
    362 z         11.269468     11.265791    -0.003677    Cartesian   -0.03
    363 x         11.269468     11.269511     0.000043    Cartesian    0.00
    363 y          6.761681      6.751629    -0.010052    Cartesian   -0.15
    363 z         -2.253894     -2.236625     0.017268    Cartesian   -0.77
    364 x         13.523362     13.586303     0.062941    Cartesian    0.47
    364 y          0.000000     -0.010972    -0.010972    Cartesian    0.00
    364 z          0.000000     -0.008751    -0.008751    Cartesian    0.00
    365 x          4.507787      4.521280     0.013492    Cartesian    0.30
    365 y          9.015574      9.059386     0.043812    Cartesian    0.49
    365 z          9.015574      9.037327     0.021753    Cartesian    0.24
    366 x          2.253894      2.253894     0.000000    Cartesian    0.00
    366 y          6.761681      6.730727    -0.030954    Cartesian   -0.46
    366 z         11.269468     11.258014    -0.011454    Cartesian   -0.10
    367 x          2.253894      2.253894     0.000000    Cartesian    0.00
    367 y         11.269468     11.260222    -0.009247    Cartesian   -0.08
    367 z          6.761681      6.775788     0.014107    Cartesian    0.21
    368 x         -2.253894     -2.252515     0.001378    Cartesian   -0.06
    368 y         11.269468     11.255057    -0.014411    Cartesian   -0.13
    368 z         -2.253894     -2.227480     0.026413    Cartesian   -1.17
    369 x          6.761681      6.765469     0.003788    Cartesian    0.06
    369 y         -2.253894     -2.266932    -0.013039    Cartesian    0.58
    369 z         11.269468     11.259118    -0.010350    Cartesian   -0.09
    370 x         13.523362     13.583339     0.059977    Cartesian    0.44
    370 y          0.000000     -0.001755    -0.001755    Cartesian    0.00
    370 z          4.507787      4.498307    -0.009480    Cartesian   -0.21
    371 x         13.523362     13.574712     0.051350    Cartesian    0.38
    371 y          4.507787      4.523970     0.016182    Cartesian    0.36
    371 z          0.000000      0.010579     0.010579    Cartesian    0.00
    372 x          4.507787      4.522619     0.014832    Cartesian    0.33
    372 y         -4.507787     -4.520656    -0.012868    Cartesian    0.29
    372 z         -9.015574     -9.070519    -0.054945    Cartesian    0.61
    373 x          4.507787      4.538367     0.030579    Cartesian    0.68
    373 y         -9.015574     -9.019984    -0.004410    Cartesian    0.05
    373 z         -4.507787     -4.549532    -0.041745    Cartesian    0.93
    374 x          9.015574      9.042555     0.026980    Cartesian    0.30
    374 y          9.015574      9.023039     0.007465    Cartesian    0.08
    374 z         -4.507787     -4.514750    -0.006963    Cartesian    0.15
    375 x          9.015574      9.046002     0.030428    Cartesian    0.34
    375 y         -4.507787     -4.506429     0.001358    Cartesian   -0.03
    375 z          9.015574      9.064177     0.048603    Cartesian    0.54
    376 x         11.269468     11.273331     0.003863    Cartesian    0.03
    376 y          6.761681      6.751315    -0.010366    Cartesian   -0.15
    376 z          6.761681      6.760522    -0.001158    Cartesian   -0.02
    377 x         11.269468     11.263827    -0.005641    Cartesian   -0.05
    377 y         -6.761681     -6.743779     0.017902    Cartesian   -0.26
    377 z          2.253894      2.238088    -0.015805    Cartesian   -0.70
    378 x          6.761681      6.766296     0.004615    Cartesian    0.07
    378 y         -6.761681     -6.764050    -0.002370    Cartesian    0.04
    378 z         -6.761681     -6.748216     0.013465    Cartesian   -0.20
    379 x         11.269468     11.264881    -0.004587    Cartesian   -0.04
    379 y          2.253894      2.269034     0.015141    Cartesian    0.67
    379 z         -6.761681     -6.746766     0.014915    Cartesian   -0.22
    380 x         13.523362     13.577492     0.054131    Cartesian    0.40
    380 y          4.507787      4.501693    -0.006094    Cartesian   -0.14
    380 z          4.507787      4.523051     0.015263    Cartesian    0.34
    381 x          9.015574      9.042475     0.026901    Cartesian    0.30
    381 y         -9.015574     -9.106826    -0.091252    Cartesian    1.01
    381 z          0.000000     -0.002645    -0.002645    Cartesian    0.00
    382 x          9.015574      9.015200    -0.000374    Cartesian   -0.00
    382 y          0.000000     -0.005072    -0.005072    Cartesian    0.00
    382 z         -9.015574     -9.006227     0.009348    Cartesian   -0.10
    383 x          2.253894      2.253894     0.000000    Cartesian    0.00
    383 y          2.253894      2.236052    -0.017841    Cartesian   -0.79
    383 z        -11.269468    -11.250690     0.018778    Cartesian   -0.17
    384 x          2.253894      2.253894     0.000000    Cartesian    0.00
    384 y        -11.269468    -11.264410     0.005058    Cartesian   -0.04
    384 z          2.253894      2.236168    -0.017725    Cartesian   -0.79
    385 x         11.269468     11.268532    -0.000936    Cartesian   -0.01
    385 y         -6.761681     -6.759103     0.002578    Cartesian   -0.04
    385 z         -2.253894     -2.244571     0.009322    Cartesian   -0.41
    386 x         -2.253894     -2.257244    -0.003351    Cartesian    0.15
    386 y         11.269468     11.256226    -0.013242    Cartesian   -0.12
    386 z          6.761681      6.770968     0.009288    Cartesian    0.14
    387 x          6.761681      6.767453     0.005772    Cartesian    0.09
    387 y          6.761681      6.757273    -0.004408    Cartesian   -0.07
    387 z         11.269468     11.271225     0.001757    Cartesian    0.02
    388 x         11.269468     11.277049     0.007580    Cartesian    0.07
    388 y         -2.253894     -2.258606    -0.004712    Cartesian    0.21
    388 z         -6.761681     -6.745532     0.016148    Cartesian   -0.24
    389 x         13.523362     13.577372     0.054011    Cartesian    0.40
    389 y          0.000000      0.003852     0.003852    Cartesian    0.00
    389 z         -4.507787     -4.509117    -0.001330    Cartesian    0.03
    390 x         13.523362     13.560016     0.036654    Cartesian    0.27
    390 y         -4.507787     -4.518085    -0.010297    Cartesian    0.23
    390 z          0.000000     -0.005501    -0.005501    Cartesian    0.00
    391 x          4.507787      4.463621    -0.044166    Cartesian   -0.98
    391 y          0.000000      0.002533     0.002533    Cartesian    0.00
    391 z         13.523362     13.596557     0.073195    Cartesian    0.54
    392 x          4.507787      4.555066     0.047278    Cartesian    1.05
    392 y         13.523362     13.582957     0.059595    Cartesian    0.44
    392 z          0.000000     -0.006072    -0.006072    Cartesian    0.00
    393 x          9.015574      9.007774    -0.007800    Cartesian   -0.09
    393 y         -9.015574     -9.023300    -0.007726    Cartesian    0.09
    393 z          4.507787      4.511037     0.003250    Cartesian    0.07
    394 x          9.015574      9.045297     0.029722    Cartesian    0.33
    394 y          4.507787      4.511372     0.003585    Cartesian    0.08
    394 z         -9.015574     -9.083081    -0.067506    Cartesian    0.75
    395 x          2.253894      2.253894     0.000000    Cartesian    0.00
    395 y         -2.253894     -2.257651    -0.003757    Cartesian    0.17
    395 z        -11.269468    -11.269991    -0.000523    Cartesian    0.00
    396 x          2.253894      2.253894     0.000000    Cartesian    0.00
    396 y        -11.269468    -11.280267    -0.010799    Cartesian    0.10
    396 z         -2.253894     -2.243972     0.009922    Cartesian   -0.44
    397 x          2.253894      2.253894     0.000000    Cartesian    0.00
    397 y         11.269468     11.277078     0.007610    Cartesian    0.07
    397 z         -6.761681     -6.754127     0.007554    Cartesian   -0.11
    398 x          2.253894      2.253894     0.000000    Cartesian    0.00
    398 y         -6.761681     -6.746225     0.015456    Cartesian   -0.23
    398 z         11.269468     11.290872     0.021404    Cartesian    0.19
--------------------------------------------------------------------------------


  Time to end of optimisation  =      386.0494 seconds


  Peak dynamic memory used =     144.25 MB 


  Timing analysis for GULP :

--------------------------------------------------------------------------------
  Task / Subroutine                                          Time (Seconds)
--------------------------------------------------------------------------------
  Calculation of reciprocal space energy and derivatives          0.0006
  Calculation of reciprocal space energy using symmetry           0.0009
  Calculation of real space energy and derivatives                0.0037
  Calculation of real space energy using symmetry                 0.0090
  Calculation for region 1 energy and derivatives (2-b)         138.0862
  Calculation for region 2a energy                              237.9198
  Calculation for region 2b energy                                0.0371
  Calculation and manipulation of Hessian matrix                  0.2811
  Calculation of matrix inversion                                 8.9443
  Symmetry generation of equivalent positions                     0.0043
--------------------------------------------------------------------------------
  Total CPU time                                                386.0495
--------------------------------------------------------------------------------


  Dump file written as Na3OCl.grs


  Job Finished at 18:25.53  3rd December   2020                               

