********************************************************************************
*                       GENERAL UTILITY LATTICE PROGRAM                        *
*                                 Julian Gale                                  *
*                       Curtin Institute for Computation                       *
*                    School of Molecular and Life Sciences                     *
*                    Curtin University, Western Australia                      *
********************************************************************************
* Version = 5.2.0 * Last modified =  10th September 2020                       *
********************************************************************************
*  optimise     - perform optimisation run                                     *
*  conp         - constant pressure calculation                                *
*  property     - calculate properties for final geometry                      *
*  defect       - perform defect calculation after bulk run                    *
*  compare      - compare initial and final structures                         *
********************************************************************************

  Job Started  at 18:22.30  3rd December   2020                               

  Number of CPUs =     1


  Total number of configurations input =      1

********************************************************************************
*  Input for Configuration =   1                                               *
********************************************************************************

  Formula = ClONa3                                                      

  Number of irreducible atoms/shells =       5


  Total number atoms/shells =       7

  Dimensionality = 3               :  Bulk   


  Symmetry :

  Crystal family                   :  Cubic       
  Crystal class  (Groth - 1921)    :  Cubic Hexakisoctahedral              

  Space group (centrosymmetric)    :  P M 3 M         

  Patterson group                  :  P m -3 m 

  Cartesian lattice vectors (Angstroms) :

        4.504000    0.000000    0.000000
        0.000000    4.504000    0.000000
        0.000000    0.000000    4.504000

  Cell parameters (Angstroms/Degrees):

  a =       4.5040    alpha =  90.0000
  b =       4.5040    beta  =  90.0000
  c =       4.5040    gamma =  90.0000

  Initial cell volume =          91.368216 Angs**3

  Temperature of configuration =   0.00     K 

  Pressure of configuration =         0.000 GPa 

  Fractional coordinates of asymmetric unit :

--------------------------------------------------------------------------------
   No.  Atomic       x           y          z         Charge      Occupancy
        Label      (Frac)      (Frac)     (Frac)        (e)         (Frac)  
--------------------------------------------------------------------------------
      1 Cl    c    0.000000    0.000000    0.000000     1.48500    1.000000    
      2 O     c    0.500000    0.500000    0.500000     0.18300    1.000000    
      3 Na    c    0.500000    0.500000    0.000000     1.00000    1.000000    
      4 Cl    s    0.000000    0.000000    0.000000    -2.48500    1.000000    
      5 O     s    0.500000    0.500000    0.500000    -2.18300    1.000000    
--------------------------------------------------------------------------------


  Constraints : 

--------------------------------------------------------------------------------
  Constraint no.      Unconstrained     Constrained    Coefficient    Offset
                         Variable         Variable
--------------------------------------------------------------------------------
           1              Strain 1        Strain 2       1.00000      0.0000
           2              Strain 1        Strain 3       1.00000      0.0000
--------------------------------------------------------------------------------


********************************************************************************
*  General input information                                                   *
********************************************************************************

  Species output for all configurations : 

--------------------------------------------------------------------------------
  Species    Type    Atomic    Atomic    Charge       Radii (Angs)     Library
                     Number     Mass       (e)     Cova   Ionic  VDW   Symbol
--------------------------------------------------------------------------------
    Na       Core       11      22.99   1.000000   0.970  0.000  2.300          
    O        Core        8      16.00   0.183000   0.730  0.000  1.360          
    O        Shell       8       0.00  -2.183000   0.730  0.000  0.000          
    Cl       Core       17      35.45   1.485000   0.990  0.000  1.650          
    Cl       Shell      17       0.00  -2.485000   0.990  0.000  0.000          
    Mg       Core       12      24.31   0.415000   1.100  0.000  0.000          
    Mg       Shell      12       0.00   1.585000   1.100  0.000  0.000          
    Ca       Core       20      40.08  -1.135000   0.990  0.000  0.000          
    Ca       Shell      20       0.00   3.135000   0.990  0.000  0.000          
    Sr       Core       38      87.62  -1.251000   1.120  0.000  0.000          
    Sr       Shell      38       0.00   3.251000   1.120  0.000  0.000          
    Ba       Core       56     137.33  -7.203000   1.340  0.000  0.000          
    Ba       Shell      56       0.00   9.203000   1.340  0.000  0.000          
--------------------------------------------------------------------------------


  Lattice summation method               =    Ewald          (3-D)
                                         =    Parry          (2-D)
                                         =    Saunders et al (1-D)
  Accuracy factor for lattice sums       =   12.000


  Analytic derivatives to be used

  Time limit = Infinity

  Maximum range for interatomic potentials =    100000.000000 Angstroms

  General interatomic potentials :

--------------------------------------------------------------------------------
Atom  Types   Potential      Parameter       Value         Units   Cutoffs(Ang)
  1     2                                                            Min /  Max 
--------------------------------------------------------------------------------
O    c O    s Spring (c-s)  Spring k 2       593.71600    eV*Ang^-2 0.000  0.800
                            Spring k 4       0.0000000    eV*Ang^-4 
--------------------------------------------------------------------------------
Cl   c Cl   s Spring (c-s)  Spring k 2       29.380000    eV*Ang^-2 0.000  0.800
                            Spring k 4       0.0000000    eV*Ang^-4 
--------------------------------------------------------------------------------
Mg   c Mg   s Spring (c-s)  Spring k 2       361.60000    eV*Ang^-2 0.000  0.800
                            Spring k 4       0.0000000    eV*Ang^-4 
--------------------------------------------------------------------------------
Ca   c Ca   s Spring (c-s)  Spring k 2       110.20000    eV*Ang^-2 0.000  0.800
                            Spring k 4       0.0000000    eV*Ang^-4 
--------------------------------------------------------------------------------
Sr   c Sr   s Spring (c-s)  Spring k 2       71.700000    eV*Ang^-2 0.000  0.800
                            Spring k 4       0.0000000    eV*Ang^-4 
--------------------------------------------------------------------------------
Ba   c Ba   s Spring (c-s)  Spring k 2       495.20000    eV*Ang^-2 0.000  0.800
                            Spring k 4       0.0000000    eV*Ang^-4 
--------------------------------------------------------------------------------
Na   c Na   c Buckingham    Buckingham A     1788.1900    eV        0.000 12.000
                            Buckingham rho  0.15900000    Ang       
                            Buckingham C     0.0000000    eV*Ang^6  
--------------------------------------------------------------------------------
Na   c O    s Buckingham    Buckingham A     1226.8400    eV        0.000 12.000
                            Buckingham rho  0.30700000    Ang       
                            Buckingham C     0.0000000    eV*Ang^6  
--------------------------------------------------------------------------------
Na   c Cl   s Buckingham    Buckingham A     2314.7000    eV        0.000 12.000
                            Buckingham rho  0.29000000    Ang       
                            Buckingham C     0.0000000    eV*Ang^6  
--------------------------------------------------------------------------------
O    s O    s Buckingham    Buckingham A     22764.300    eV        0.000 12.000
                            Buckingham rho  0.14900000    Ang       
                            Buckingham C     13.190000    eV*Ang^6  
--------------------------------------------------------------------------------
O    s Cl   s Buckingham    Buckingham A     8286.9100    eV        0.000 12.000
                            Buckingham rho  0.25900000    Ang       
                            Buckingham C     62.200000    eV*Ang^6  
--------------------------------------------------------------------------------
Cl   s Cl   s Buckingham    Buckingham A     1227.2000    eV        0.000 12.000
                            Buckingham rho  0.32100000    Ang       
                            Buckingham C     14.530000    eV*Ang^6  
--------------------------------------------------------------------------------
O    s Mg   s Buckingham    Buckingham A     1428.5000    eV        0.000 12.000
                            Buckingham rho  0.29450000    Ang       
                            Buckingham C     0.0000000    eV*Ang^6  
--------------------------------------------------------------------------------
Mg   s Cl   s Buckingham    Buckingham A     4914.5400    eV        0.000 12.000
                            Buckingham rho  0.25700000    Ang       
                            Buckingham C     0.0000000    eV*Ang^6  
--------------------------------------------------------------------------------
O    s Ca   s Buckingham    Buckingham A     1090.4000    eV        0.000 12.000
                            Buckingham rho  0.34370000    Ang       
                            Buckingham C     0.0000000    eV*Ang^6  
--------------------------------------------------------------------------------
Cl   s Ca   s Buckingham    Buckingham A     2302.0000    eV        0.000 12.000
                            Buckingham rho  0.34020000    Ang       
                            Buckingham C     0.0000000    eV*Ang^6  
--------------------------------------------------------------------------------
O    s Sr   s Buckingham    Buckingham A     959.10000    eV        0.000 12.000
                            Buckingham rho  0.37210000    Ang       
                            Buckingham C     0.0000000    eV*Ang^6  
--------------------------------------------------------------------------------
Cl   s Sr   s Buckingham    Buckingham A     2191.0900    eV        0.000 12.000
                            Buckingham rho  0.34570000    Ang       
                            Buckingham C     0.0000000    eV*Ang^6  
--------------------------------------------------------------------------------
O    s Ba   s Buckingham    Buckingham A     905.70000    eV        0.000 12.000
                            Buckingham rho  0.39760000    Ang       
                            Buckingham C     0.0000000    eV*Ang^6  
--------------------------------------------------------------------------------
Cl   s Ba   s Buckingham    Buckingham A     2704.5500    eV        0.000 12.000
                            Buckingham rho  0.35280000    Ang       
                            Buckingham C     0.0000000    eV*Ang^6  
--------------------------------------------------------------------------------

********************************************************************************
*  Output for configuration   1                                                *
********************************************************************************


  Components of energy : 

--------------------------------------------------------------------------------
  Interatomic potentials     =           5.13022605 eV    
  Monopole - monopole (real) =         -10.03624526 eV    
  Monopole - monopole (recip)=         -29.53581274 eV    
  Monopole - monopole (total)=         -39.57205800 eV    
--------------------------------------------------------------------------------
  Total lattice energy       =         -34.44183194 eV    
--------------------------------------------------------------------------------
  Total lattice energy       =           -3323.1103 kJ/(mole unit cells)
--------------------------------------------------------------------------------


  Number of variables =        1

  Maximum number of calculations  =          1000
  Maximum Hessian update interval =            10
  Maximum step size               =   1.000000000
  Maximum parameter tolerance     =   0.000010000
  Maximum function  tolerance     =   0.000010000
  Maximum gradient  tolerance     =   0.001000000
  Maximum gradient  component     =   0.010000000

  Symmetry constrained optimisation

  Symmetry used for second derivatives

  Cell parameters to be optimised using strains

  Newton-Raphson optimiser to be used

  BFGS hessian update to be used

  Lower half triangular hessian to be used

  Start of bulk optimisation :

  Cycle:      0 Energy:       -34.441832  Gnorm:      0.196570  CPU:    0.019
  ** Hessian calculated **
  Cycle:      1 Energy:       -34.441914  Gnorm:      0.000103  CPU:    0.024


  **** Optimisation achieved ****


  Final energy =     -34.44191447 eV
  Final Gnorm  =       0.00000000

  Components of energy : 

--------------------------------------------------------------------------------
  Interatomic potentials     =           5.09689708 eV    
  Monopole - monopole (real) =         -10.02781331 eV    
  Monopole - monopole (recip)=         -29.51099824 eV    
  Monopole - monopole (total)=         -39.53881155 eV    
--------------------------------------------------------------------------------
  Total lattice energy       =         -34.44191447 eV    
--------------------------------------------------------------------------------
  Total lattice energy       =           -3323.1183 kJ/(mole unit cells)
--------------------------------------------------------------------------------

  Final asymmetric unit coordinates :

--------------------------------------------------------------------------------
   No.  Atomic        x           y           z         Radius
        Label       (Frac)      (Frac)      (Frac)       (Angs) 
--------------------------------------------------------------------------------
     1  Cl    c     0.000000    0.000000    0.000000    0.000000
     2  O     c     0.500000    0.500000    0.500000    0.000000
     3  Na    c     0.500000    0.500000    0.000000    0.000000
     4  Cl    s     0.000000    0.000000    0.000000    0.000000
     5  O     s     0.500000    0.500000    0.500000    0.000000
--------------------------------------------------------------------------------

  Final Cartesian lattice vectors (Angstroms) :

        4.507787    0.000000    0.000000
        0.000000    4.507787    0.000000
        0.000000    0.000000    4.507787


  Final cell parameters and derivatives :

--------------------------------------------------------------------------------
       a            4.507787 Angstrom     dE/de1(xx)     0.000000 eV/strain
       b            4.507787 Angstrom     dE/de2(yy)     0.000000 eV/strain
       c            4.507787 Angstrom     dE/de3(zz)     0.000000 eV/strain
       alpha       90.000000 Degrees      dE/de4(yz)     0.000000 eV/strain
       beta        90.000000 Degrees      dE/de5(xz)     0.000000 eV/strain
       gamma       90.000000 Degrees      dE/de6(xy)     0.000000 eV/strain
--------------------------------------------------------------------------------

  Primitive cell volume =            91.598892 Angs**3

  Density of cell =      2.183054 g/cm**3

  Non-primitive cell volume =            91.598892 Angs**3


  Final internal derivatives :

--------------------------------------------------------------------------------
   No.  Atomic          a             b             c           Radius
        Label          (eV)          (eV)          (eV)        (eV/Angs)
--------------------------------------------------------------------------------
      1 Cl    c       0.000000      0.000000      0.000000      0.000000
      2 O     c       0.000000      0.000000      0.000000      0.000000
      3 Na    c       0.000000      0.000000      0.000000      0.000000
      4 Cl    s       0.000000      0.000000      0.000000      0.000000
      5 O     s       0.000000      0.000000      0.000000      0.000000
--------------------------------------------------------------------------------
  Maximum abs         0.000000      0.000000      0.000000      0.000000
--------------------------------------------------------------------------------

  Comparison of initial and final structures : 

--------------------------------------------------------------------------------
  Parameter   Initial value   Final value   Difference    Units      Percent
--------------------------------------------------------------------------------
    Volume        91.368216     91.598892     0.230676    Angs**3      0.25
    a              4.504000      4.507787     0.003787    Angstroms    0.08
    b              4.504000      4.507787     0.003787    Angstroms    0.08
    c              4.504000      4.507787     0.003787    Angstroms    0.08
    alpha         90.000000     90.000000     0.000000    Degrees      0.00
    beta          90.000000     90.000000     0.000000    Degrees      0.00
    gamma         90.000000     90.000000     0.000000    Degrees      0.00
      1 x          0.000000      0.000000     0.000000    Fractional   0.00
      1 y          0.000000      0.000000     0.000000    Fractional   0.00
      1 z          0.000000      0.000000     0.000000    Fractional   0.00
      2 x          0.500000      0.500000     0.000000    Fractional   0.00
      2 y          0.500000      0.500000     0.000000    Fractional   0.00
      2 z          0.500000      0.500000     0.000000    Fractional   0.00
      3 x          0.500000      0.500000     0.000000    Fractional   0.00
      3 y          0.500000      0.500000     0.000000    Fractional   0.00
      3 z          0.000000      0.000000     0.000000    Fractional   0.00
      4 x          0.000000      0.000000     0.000000    Fractional   0.00
      4 y          0.000000      0.000000     0.000000    Fractional   0.00
      4 z          0.000000      0.000000     0.000000    Fractional   0.00
      5 x          0.500000      0.500000     0.000000    Fractional   0.00
      5 y          0.500000      0.500000     0.000000    Fractional   0.00
      5 z          0.500000      0.500000     0.000000    Fractional   0.00
--------------------------------------------------------------------------------


  Born effective charge tensors : 

-------------------------------------------------------------------------------
  Atom             x           y             z
-------------------------------------------------------------------------------
    1 Cl    x      -1.0181     -0.0000      0.0000
            y      -0.0000     -1.0181      0.0000
            z       0.0000      0.0000     -1.0181
-------------------------------------------------------------------------------
    2 O     x      -2.2647      0.0000     -0.0000
            y       0.0000     -2.2647     -0.0000
            z      -0.0000     -0.0000     -2.2647
-------------------------------------------------------------------------------
    3 Na    x       1.2258     -0.0000      0.0000
            y      -0.0000      1.2258     -0.0000
            z       0.0000     -0.0000      0.8313
-------------------------------------------------------------------------------




  Elastic Constant Matrix: (Units=GPa)

-------------------------------------------------------------------------------
  Indices      1         2         3         4         5         6    
-------------------------------------------------------------------------------
       1     95.8177   20.0737   20.0737   -0.0000   -0.0000    0.0000
       2     20.0737   95.8177   20.0737   -0.0000   -0.0000    0.0000
       3     20.0737   20.0737   95.8177   -0.0000   -0.0000    0.0000
       4     -0.0000   -0.0000   -0.0000   20.0737   -0.0000    0.0000
       5     -0.0000   -0.0000   -0.0000   -0.0000   20.0737    0.0000
       6      0.0000    0.0000    0.0000    0.0000    0.0000   20.0737
-------------------------------------------------------------------------------


  Elastic Compliance Matrix: (Units=1/GPa)

-------------------------------------------------------------------------------
  Indices      1         2         3         4         5         6    
-------------------------------------------------------------------------------
       1    0.011253 -0.001949 -0.001949  0.000000  0.000000 -0.000000
       2   -0.001949  0.011253 -0.001949  0.000000  0.000000  0.000000
       3   -0.001949 -0.001949  0.011253  0.000000  0.000000 -0.000000
       4    0.000000  0.000000  0.000000  0.049816  0.000000 -0.000000
       5    0.000000  0.000000  0.000000  0.000000  0.049816 -0.000000
       6   -0.000000  0.000000 -0.000000 -0.000000 -0.000000  0.049816
-------------------------------------------------------------------------------

  Mechanical properties :

-------------------------------------------------------------------------------
  Convention :                    Reuss         Voigt         Hill
-------------------------------------------------------------------------------
  Bulk  Modulus (GPa)     =      45.32174      45.32174      45.32174
  Shear Modulus (GPa)     =      24.72085      27.19304      25.95695
-------------------------------------------------------------------------------
  Velocity S-wave (km/s)  =       3.36511       3.52937       3.44822
  Velocity P-wave (km/s)  =       5.98827       6.11304       6.05098
-------------------------------------------------------------------------------
  Compressibility (1/GPa) =    0.02206447
-------------------------------------------------------------------------------
  Stress axis :                     x             y             z
-------------------------------------------------------------------------------
  Youngs Moduli (GPa)     =      88.86373      88.86373      88.86373
-------------------------------------------------------------------------------
  Poissons Ratio (x)      =                     0.17321       0.17321
  Poissons Ratio (y)      =       0.17321                     0.17321
  Poissons Ratio (z)      =       0.17321       0.17321
-------------------------------------------------------------------------------


  Piezoelectric Strain Matrix: (Units=C/m**2)

-------------------------------------------------------------------------------
  Indices      1         2         3         4         5         6    
-------------------------------------------------------------------------------
       x    -0.00000  -0.00000  -0.00000   0.00000  -0.00000  -0.00000
       y    -0.00000  -0.00000   0.00000  -0.00000   0.00000   0.00000
       z    -0.00000  -0.00000  -0.00000  -0.00000   0.00000   0.00000
-------------------------------------------------------------------------------


  Piezoelectric Stress Matrix: (Units=10**-11 C/N)

-------------------------------------------------------------------------------
  Indices      1         2         3         4         5         6    
-------------------------------------------------------------------------------
       x    -0.00000   0.00000   0.00000   0.00000  -0.00000  -0.00000
       y    -0.00000  -0.00000   0.00000  -0.00000   0.00000   0.00000
       z     0.00000   0.00000  -0.00000  -0.00000   0.00000   0.00000
-------------------------------------------------------------------------------


  Static dielectric constant tensor : 

-------------------------------------------------------------------------------
              x         y         z
-------------------------------------------------------------------------------
       x    22.84729   0.00000   0.00000
       y     0.00000  22.84729  -0.00000
       z     0.00000  -0.00000  22.84729
--------------------------------------------------------------------------------

  High frequency dielectric constant tensor : 

-------------------------------------------------------------------------------
              x         y         z
-------------------------------------------------------------------------------
       x     1.47557   0.00000  -0.00000
       y     0.00000   1.47557  -0.00000
       z    -0.00000  -0.00000   1.47557
-------------------------------------------------------------------------------

  Static refractive indices : 

-------------------------------------------------------------------------------
    1 =    4.77988      2 =    4.77988      3 =    4.77988
-------------------------------------------------------------------------------

  High frequency refractive indices : 

-------------------------------------------------------------------------------
    1 =    1.21473      2 =    1.21473      3 =    1.21473
-------------------------------------------------------------------------------


  Time to end of optimisation =       0.0349 seconds

********************************************************************************
*  Defect calculation for configuration   1 :                                  *
********************************************************************************

  Total number of defects =      3

  Total charge on defect  =  -1.00

  Defect centre is at   0.5000   0.2500   0.2500  Frac

  Region 1 radius =  13.0000      Number of ions =    685

  Number of symmetry inequivalent region 1 ions  =    398

  Region 2 radius =  21.0000      Number of ions =   2280

  Number of symmetry inequivalent region 2a ions =   1222

  Region 2a mode = 4 : screened electrostatics due to region 1 
                       neglect correction to region 1 forces from 2a
                       region 2a displacements based on defects only

  Region 2a ions will only interact with defects in region 1

  Vacancies:

--------------------------------------------------------------------------------
    Specification type     Symbol/Number         x          y          z
--------------------------------------------------------------------------------
    Fractional                               0.500000   0.500000   0.000000
    Fractional                               0.500000   0.000000   0.500000
--------------------------------------------------------------------------------

  Interstitials:

--------------------------------------------------------------------------------
    Specification type     Symbol/Number         x          y          z
--------------------------------------------------------------------------------
    Atom/Fractional         Na               0.500000   0.350000   0.150000
--------------------------------------------------------------------------------


  Symmetry reduced region 1 (Relative to defect centre) :

--------------------------------------------------------------------------------
   No.   Atomic       x            y             z       Radius  Multiplicity   
         Label      (Angs)       (Angs)        (Angs)    (Angs)     
--------------------------------------------------------------------------------
     1  Na    c      0.0000       0.4508      -0.4508    0.0000     1    Defect
     2  O     c      0.0000       1.1269 *     1.1269 *  0.0000     1          
     3  Cl    c      2.2539 *    -1.1269 *    -1.1269 *  0.0000     2          
     4  Na    c      2.2539 *     1.1269 *     1.1269 *  0.0000     2          
     5  O     c      0.0000       1.1269 *    -3.3808 *  0.0000     1          
     6  O     c      0.0000      -3.3808 *     1.1269 *  0.0000     1          
     7  Na    c      0.0000       1.1269 *     3.3808 *  0.0000     1          
     8  Na    c      0.0000      -3.3808 *    -1.1269 *  0.0000     1          
     9  Na    c      0.0000      -1.1269 *    -3.3808 *  0.0000     1          
    10  Na    c      0.0000       3.3808 *     1.1269 *  0.0000     1          
    11  Cl    c      2.2539 *    -1.1269 *     3.3808 *  0.0000     2          
    12  Cl    c      2.2539 *     3.3808 *    -1.1269 *  0.0000     2          
    13  Na    c      2.2539 *     1.1269 *    -3.3808 *  0.0000     2          
    14  Na    c      2.2539 *    -3.3808 *     1.1269 *  0.0000     2          
    15  O     c     -4.5078 *     1.1269 *     1.1269 *  0.0000     2          
    16  Na    c     -4.5078 *     1.1269 *    -1.1269 *  0.0000     2          
    17  Na    c     -4.5078 *    -1.1269 *     1.1269 *  0.0000     2          
    18  O     c      0.0000      -3.3808 *    -3.3808 *  0.0000     1          
    19  Na    c      0.0000      -3.3808 *     3.3808 *  0.0000     1          
    20  Na    c      0.0000       3.3808 *    -3.3808 *  0.0000     1          
    21  Cl    c      2.2539 *     3.3808 *     3.3808 *  0.0000     2          
    22  Na    c      2.2539 *    -3.3808 *    -3.3808 *  0.0000     2          
    23  O     c      0.0000       1.1269 *     5.6347 *  0.0000     1          
    24  O     c      0.0000       5.6347 *     1.1269 *  0.0000     1          
    25  Na    c      0.0000       1.1269 *    -5.6347 *  0.0000     1          
    26  Na    c      0.0000       5.6347 *    -1.1269 *  0.0000     1          
    27  Na    c      0.0000      -1.1269 *     5.6347 *  0.0000     1          
    28  Na    c      0.0000      -5.6347 *     1.1269 *  0.0000     1          
    29  O     c     -4.5078 *     1.1269 *    -3.3808 *  0.0000     2          
    30  O     c     -4.5078 *    -3.3808 *     1.1269 *  0.0000     2          
    31  Na    c     -4.5078 *     1.1269 *     3.3808 *  0.0000     2          
    32  Na    c     -4.5078 *    -3.3808 *    -1.1269 *  0.0000     2          
    33  Na    c     -4.5078 *    -1.1269 *    -3.3808 *  0.0000     2          
    34  Na    c     -4.5078 *     3.3808 *     1.1269 *  0.0000     2          
    35  Cl    c      2.2539 *    -1.1269 *    -5.6347 *  0.0000     2          
    36  Cl    c      2.2539 *    -5.6347 *    -1.1269 *  0.0000     2          
    37  Na    c      2.2539 *     1.1269 *     5.6347 *  0.0000     2          
    38  Na    c      2.2539 *     5.6347 *     1.1269 *  0.0000     2          
    39  O     c      0.0000       5.6347 *    -3.3808 *  0.0000     1          
    40  O     c      0.0000      -3.3808 *     5.6347 *  0.0000     1          
    41  Na    c      0.0000       5.6347 *     3.3808 *  0.0000     1          
    42  Na    c      0.0000      -3.3808 *    -5.6347 *  0.0000     1          
    43  Na    c      0.0000       3.3808 *     5.6347 *  0.0000     1          
    44  Na    c      0.0000      -5.6347 *    -3.3808 *  0.0000     1          
    45  O     c      4.5078 *    -3.3808 *    -3.3808 *  0.0000     2          
    46  Na    c      4.5078 *    -3.3808 *     3.3808 *  0.0000     2          
    47  Na    c      4.5078 *     3.3808 *    -3.3808 *  0.0000     2          
    48  Cl    c      2.2539 *     3.3808 *    -5.6347 *  0.0000     2          
    49  Cl    c      2.2539 *    -5.6347 *     3.3808 *  0.0000     2          
    50  Na    c      2.2539 *     5.6347 *    -3.3808 *  0.0000     2          
    51  Na    c      2.2539 *    -3.3808 *     5.6347 *  0.0000     2          
    52  Cl    c      6.7617 *    -1.1269 *    -1.1269 *  0.0000     2          
    53  Na    c      6.7617 *     1.1269 *     1.1269 *  0.0000     2          
    54  O     c     -4.5078 *     1.1269 *     5.6347 *  0.0000     2          
    55  Na    c     -4.5078 *     1.1269 *    -5.6347 *  0.0000     2          
    56  Na    c     -4.5078 *    -1.1269 *     5.6347 *  0.0000     2          
    57  O     c      4.5078 *     5.6347 *     1.1269 *  0.0000     2          
    58  Na    c      4.5078 *     5.6347 *    -1.1269 *  0.0000     2          
    59  Na    c      4.5078 *    -5.6347 *     1.1269 *  0.0000     2          
    60  Cl    c      6.7617 *    -1.1269 *     3.3808 *  0.0000     2          
    61  Na    c      6.7617 *     1.1269 *    -3.3808 *  0.0000     2          
    62  Cl    c      6.7617 *     3.3808 *    -1.1269 *  0.0000     2          
    63  Na    c      6.7617 *    -3.3808 *     1.1269 *  0.0000     2          
    64  O     c      0.0000       5.6347 *     5.6347 *  0.0000     1          
    65  Na    c      0.0000       5.6347 *    -5.6347 *  0.0000     1          
    66  Na    c      0.0000      -5.6347 *     5.6347 *  0.0000     1          
    67  O     c     -4.5078 *    -3.3808 *     5.6347 *  0.0000     2          
    68  Na    c     -4.5078 *    -3.3808 *    -5.6347 *  0.0000     2          
    69  Na    c     -4.5078 *     3.3808 *     5.6347 *  0.0000     2          
    70  O     c      0.0000       1.1269 *    -7.8886 *  0.0000     1          
    71  O     c      0.0000      -7.8886 *     1.1269 *  0.0000     1          
    72  O     c      4.5078 *     5.6347 *    -3.3808 *  0.0000     2          
    73  Na    c      0.0000       1.1269 *     7.8886 *  0.0000     1          
    74  Na    c      0.0000      -7.8886 *    -1.1269 *  0.0000     1          
    75  Na    c      4.5078 *     5.6347 *     3.3808 *  0.0000     2          
    76  Na    c      0.0000      -1.1269 *    -7.8886 *  0.0000     1          
    77  Na    c      0.0000       7.8886 *     1.1269 *  0.0000     1          
    78  Na    c      4.5078 *    -5.6347 *    -3.3808 *  0.0000     2          
    79  Cl    c      2.2539 *    -5.6347 *    -5.6347 *  0.0000     2          
    80  Na    c      2.2539 *     5.6347 *     5.6347 *  0.0000     2          
    81  Cl    c      2.2539 *    -1.1269 *     7.8886 *  0.0000     2          
    82  Na    c      2.2539 *     1.1269 *    -7.8886 *  0.0000     2          
    83  Cl    c      2.2539 *     7.8886 *    -1.1269 *  0.0000     2          
    84  Cl    c      6.7617 *     3.3808 *     3.3808 *  0.0000     2          
    85  Na    c      2.2539 *    -7.8886 *     1.1269 *  0.0000     2          
    86  Na    c      6.7617 *    -3.3808 *    -3.3808 *  0.0000     2          
    87  O     c      0.0000      -3.3808 *    -7.8886 *  0.0000     1          
    88  O     c      0.0000      -7.8886 *    -3.3808 *  0.0000     1          
    89  Na    c      0.0000      -3.3808 *     7.8886 *  0.0000     1          
    90  Na    c      0.0000      -7.8886 *     3.3808 *  0.0000     1          
    91  Na    c      0.0000       3.3808 *    -7.8886 *  0.0000     1          
    92  Na    c      0.0000       7.8886 *    -3.3808 *  0.0000     1          
    93  Cl    c      2.2539 *     3.3808 *     7.8886 *  0.0000     2          
    94  Cl    c      6.7617 *    -1.1269 *    -5.6347 *  0.0000     2          
    95  Na    c      2.2539 *    -3.3808 *    -7.8886 *  0.0000     2          
    96  Na    c      6.7617 *     1.1269 *     5.6347 *  0.0000     2          
    97  Cl    c      2.2539 *     7.8886 *     3.3808 *  0.0000     2          
    98  Cl    c      6.7617 *    -5.6347 *    -1.1269 *  0.0000     2          
    99  Na    c      2.2539 *    -7.8886 *    -3.3808 *  0.0000     2          
   100  Na    c      6.7617 *     5.6347 *     1.1269 *  0.0000     2          
   101  O     c      4.5078 *     5.6347 *     5.6347 *  0.0000     2          
   102  O     c      4.5078 *    -7.8886 *     1.1269 *  0.0000     2          
   103  O     c      9.0156 *     1.1269 *     1.1269 *  0.0000     2          
   104  O     c     -4.5078 *     1.1269 *    -7.8886 *  0.0000     2          
   105  Na    c      4.5078 *     5.6347 *    -5.6347 *  0.0000     2          
   106  Na    c      4.5078 *    -7.8886 *    -1.1269 *  0.0000     2          
   107  Na    c      9.0156 *     1.1269 *    -1.1269 *  0.0000     2          
   108  Na    c     -4.5078 *     1.1269 *     7.8886 *  0.0000     2          
   109  Na    c      4.5078 *     7.8886 *     1.1269 *  0.0000     2          
   110  Na    c      4.5078 *    -5.6347 *     5.6347 *  0.0000     2          
   111  Na    c      9.0156 *    -1.1269 *     1.1269 *  0.0000     2          
   112  Na    c     -4.5078 *    -1.1269 *    -7.8886 *  0.0000     2          
   113  Cl    c      6.7617 *     3.3808 *    -5.6347 *  0.0000     2          
   114  Na    c      6.7617 *    -3.3808 *     5.6347 *  0.0000     2          
   115  Cl    c      6.7617 *    -5.6347 *     3.3808 *  0.0000     2          
   116  Na    c      6.7617 *     5.6347 *    -3.3808 *  0.0000     2          
   117  O     c      0.0000       5.6347 *    -7.8886 *  0.0000     1          
   118  O     c      0.0000      -7.8886 *     5.6347 *  0.0000     1          
   119  O     c      9.0156 *    -3.3808 *     1.1269 *  0.0000     2          
   120  O     c     -4.5078 *    -3.3808 *    -7.8886 *  0.0000     2          
   121  Na    c      0.0000       5.6347 *     7.8886 *  0.0000     1          
   122  Na    c      0.0000      -7.8886 *    -5.6347 *  0.0000     1          
   123  Na    c      9.0156 *    -3.3808 *    -1.1269 *  0.0000     2          
   124  Na    c     -4.5078 *    -3.3808 *     7.8886 *  0.0000     2          
   125  Na    c      0.0000       7.8886 *     5.6347 *  0.0000     1          
   126  Na    c      0.0000      -5.6347 *    -7.8886 *  0.0000     1          
   127  Na    c      9.0156 *     3.3808 *     1.1269 *  0.0000     2          
   128  Na    c     -4.5078 *     3.3808 *    -7.8886 *  0.0000     2          
   129  O     c      4.5078 *    -7.8886 *    -3.3808 *  0.0000     2          
   130  O     c      9.0156 *     1.1269 *    -3.3808 *  0.0000     2          
   131  Na    c      4.5078 *    -7.8886 *     3.3808 *  0.0000     2          
   132  Na    c      9.0156 *     1.1269 *     3.3808 *  0.0000     2          
   133  Na    c      4.5078 *     7.8886 *    -3.3808 *  0.0000     2          
   134  Na    c      9.0156 *    -1.1269 *    -3.3808 *  0.0000     2          
   135  Cl    c      2.2539 *     7.8886 *    -5.6347 *  0.0000     2          
   136  Cl    c      2.2539 *    -5.6347 *     7.8886 *  0.0000     2          
   137  Na    c      2.2539 *     5.6347 *    -7.8886 *  0.0000     2          
   138  Na    c      2.2539 *    -7.8886 *     5.6347 *  0.0000     2          
   139  O     c      0.0000      10.1425 *     1.1269 *  0.0000     1          
   140  Na    c      0.0000      10.1425 *    -1.1269 *  0.0000     1          
   141  Na    c      0.0000     -10.1425 *     1.1269 *  0.0000     1          
   142  O     c      0.0000       1.1269 *    10.1425 *  0.0000     1          
   143  O     c      9.0156 *    -3.3808 *    -3.3808 *  0.0000     2          
   144  Na    c      0.0000       1.1269 *   -10.1425 *  0.0000     1          
   145  Na    c      9.0156 *    -3.3808 *     3.3808 *  0.0000     2          
   146  Na    c      0.0000      -1.1269 *    10.1425 *  0.0000     1          
   147  Na    c      9.0156 *     3.3808 *    -3.3808 *  0.0000     2          
   148  Cl    c      6.7617 *    -5.6347 *    -5.6347 *  0.0000     2          
   149  Na    c      6.7617 *     5.6347 *     5.6347 *  0.0000     2          
   150  Cl    c      2.2539 *    -1.1269 *   -10.1425 *  0.0000     2          
   151  Cl    c      2.2539 *   -10.1425 *    -1.1269 *  0.0000     2          
   152  Cl    c      6.7617 *    -1.1269 *     7.8886 *  0.0000     2          
   153  Cl    c      6.7617 *     7.8886 *    -1.1269 *  0.0000     2          
   154  Na    c      2.2539 *     1.1269 *    10.1425 *  0.0000     2          
   155  Na    c      2.2539 *    10.1425 *     1.1269 *  0.0000     2          
   156  Na    c      6.7617 *     1.1269 *    -7.8886 *  0.0000     2          
   157  Na    c      6.7617 *    -7.8886 *     1.1269 *  0.0000     2          
   158  O     c      4.5078 *     5.6347 *    -7.8886 *  0.0000     2          
   159  O     c      4.5078 *    -7.8886 *     5.6347 *  0.0000     2          
   160  O     c      9.0156 *     1.1269 *     5.6347 *  0.0000     2          
   161  O     c      9.0156 *     5.6347 *     1.1269 *  0.0000     2          
   162  Na    c      4.5078 *     5.6347 *     7.8886 *  0.0000     2          
   163  Na    c      4.5078 *    -7.8886 *    -5.6347 *  0.0000     2          
   164  Na    c      9.0156 *     1.1269 *    -5.6347 *  0.0000     2          
   165  Na    c      9.0156 *     5.6347 *    -1.1269 *  0.0000     2          
   166  Na    c      4.5078 *     7.8886 *     5.6347 *  0.0000     2          
   167  Na    c      4.5078 *    -5.6347 *    -7.8886 *  0.0000     2          
   168  Na    c      9.0156 *    -1.1269 *     5.6347 *  0.0000     2          
   169  Na    c      9.0156 *    -5.6347 *     1.1269 *  0.0000     2          
   170  O     c      0.0000      10.1425 *    -3.3808 *  0.0000     1          
   171  O     c      0.0000      -3.3808 *    10.1425 *  0.0000     1          
   172  Na    c      0.0000      10.1425 *     3.3808 *  0.0000     1          
   173  Na    c      0.0000      -3.3808 *   -10.1425 *  0.0000     1          
   174  Na    c      0.0000       3.3808 *    10.1425 *  0.0000     1          
   175  Na    c      0.0000     -10.1425 *    -3.3808 *  0.0000     1          
   176  Cl    c      2.2539 *     3.3808 *   -10.1425 *  0.0000     2          
   177  Cl    c      2.2539 *   -10.1425 *     3.3808 *  0.0000     2          
   178  Cl    c      6.7617 *     7.8886 *     3.3808 *  0.0000     2          
   179  Na    c      2.2539 *    10.1425 *    -3.3808 *  0.0000     2          
   180  Na    c      2.2539 *    -3.3808 *    10.1425 *  0.0000     2          
   181  Na    c      6.7617 *    -7.8886 *    -3.3808 *  0.0000     2          
   182  Cl    c      6.7617 *     3.3808 *     7.8886 *  0.0000     2          
   183  Na    c      6.7617 *    -3.3808 *    -7.8886 *  0.0000     2          
   184  O     c      9.0156 *    -3.3808 *     5.6347 *  0.0000     2          
   185  O     c     -4.5078 *    10.1425 *     1.1269 *  0.0000     2          
   186  Na    c      9.0156 *    -3.3808 *    -5.6347 *  0.0000     2          
   187  Na    c     -4.5078 *    10.1425 *    -1.1269 *  0.0000     2          
   188  Na    c      9.0156 *     3.3808 *     5.6347 *  0.0000     2          
   189  Na    c     -4.5078 *   -10.1425 *     1.1269 *  0.0000     2          
   190  O     c      0.0000      -7.8886 *    -7.8886 *  0.0000     1          
   191  O     c      4.5078 *     1.1269 *    10.1425 *  0.0000     2          
   192  O     c      9.0156 *     5.6347 *    -3.3808 *  0.0000     2          
   193  Na    c      0.0000      -7.8886 *     7.8886 *  0.0000     1          
   194  Na    c      4.5078 *     1.1269 *   -10.1425 *  0.0000     2          
   195  Na    c      9.0156 *     5.6347 *     3.3808 *  0.0000     2          
   196  Na    c      0.0000       7.8886 *    -7.8886 *  0.0000     1          
   197  Na    c      4.5078 *    -1.1269 *    10.1425 *  0.0000     2          
   198  Na    c      9.0156 *    -5.6347 *    -3.3808 *  0.0000     2          
   199  Cl    c     11.2695 *    -1.1269 *    -1.1269 *  0.0000     2          
   200  Na    c     11.2695 *     1.1269 *     1.1269 *  0.0000     2          
   201  Cl    c      2.2539 *     7.8886 *     7.8886 *  0.0000     2          
   202  Na    c      2.2539 *    -7.8886 *    -7.8886 *  0.0000     2          
   203  O     c      0.0000       5.6347 *    10.1425 *  0.0000     1          
   204  O     c      0.0000      10.1425 *     5.6347 *  0.0000     1          
   205  O     c     -4.5078 *    10.1425 *    -3.3808 *  0.0000     2          
   206  Na    c      0.0000       5.6347 *   -10.1425 *  0.0000     1          
   207  Na    c      0.0000      10.1425 *    -5.6347 *  0.0000     1          
   208  Na    c     -4.5078 *    10.1425 *     3.3808 *  0.0000     2          
   209  Na    c      0.0000      -5.6347 *    10.1425 *  0.0000     1          
   210  Na    c      0.0000     -10.1425 *     5.6347 *  0.0000     1          
   211  Na    c     -4.5078 *   -10.1425 *    -3.3808 *  0.0000     2          
   212  O     c      4.5078 *    -3.3808 *    10.1425 *  0.0000     2          
   213  Na    c      4.5078 *    -3.3808 *   -10.1425 *  0.0000     2          
   214  Na    c      4.5078 *     3.3808 *    10.1425 *  0.0000     2          
   215  Cl    c     11.2695 *    -1.1269 *     3.3808 *  0.0000     2          
   216  Cl    c     11.2695 *     3.3808 *    -1.1269 *  0.0000     2          
   217  Na    c     11.2695 *     1.1269 *    -3.3808 *  0.0000     2          
   218  Na    c     11.2695 *    -3.3808 *     1.1269 *  0.0000     2          
   219  Cl    c      2.2539 *    -5.6347 *   -10.1425 *  0.0000     2          
   220  Cl    c      2.2539 *   -10.1425 *    -5.6347 *  0.0000     2          
   221  Cl    c      6.7617 *     7.8886 *    -5.6347 *  0.0000     2          
   222  Na    c      2.2539 *     5.6347 *    10.1425 *  0.0000     2          
   223  Na    c      2.2539 *    10.1425 *     5.6347 *  0.0000     2          
   224  Na    c      6.7617 *    -7.8886 *     5.6347 *  0.0000     2          
   225  Cl    c      6.7617 *    -5.6347 *     7.8886 *  0.0000     2          
   226  Na    c      6.7617 *     5.6347 *    -7.8886 *  0.0000     2          
   227  O     c      9.0156 *     5.6347 *     5.6347 *  0.0000     2          
   228  O     c      9.0156 *    -7.8886 *     1.1269 *  0.0000     2          
   229  Na    c      9.0156 *     5.6347 *    -5.6347 *  0.0000     2          
   230  Na    c      9.0156 *    -7.8886 *    -1.1269 *  0.0000     2          
   231  Na    c      9.0156 *     7.8886 *     1.1269 *  0.0000     2          
   232  Na    c      9.0156 *    -5.6347 *     5.6347 *  0.0000     2          
   233  O     c      4.5078 *    -7.8886 *    -7.8886 *  0.0000     2          
   234  O     c      9.0156 *     1.1269 *    -7.8886 *  0.0000     2          
   235  Na    c      4.5078 *    -7.8886 *     7.8886 *  0.0000     2          
   236  Na    c      9.0156 *     1.1269 *     7.8886 *  0.0000     2          
   237  Na    c      4.5078 *     7.8886 *    -7.8886 *  0.0000     2          
   238  Na    c      9.0156 *    -1.1269 *    -7.8886 *  0.0000     2          
   239  Cl    c     11.2695 *     3.3808 *     3.3808 *  0.0000     2          
   240  Na    c     11.2695 *    -3.3808 *    -3.3808 *  0.0000     2          
   241  Cl    c      6.7617 *   -10.1425 *    -1.1269 *  0.0000     2          
   242  Na    c      6.7617 *    10.1425 *     1.1269 *  0.0000     2          
   243  Cl    c      6.7617 *    -1.1269 *   -10.1425 *  0.0000     2          
   244  Na    c      6.7617 *     1.1269 *    10.1425 *  0.0000     2          
   245  O     c      0.0000       1.1269 *   -12.3964 *  0.0000     1          
   246  O     c      0.0000     -12.3964 *     1.1269 *  0.0000     1          
   247  O     c      9.0156 *    -7.8886 *    -3.3808 *  0.0000     2          
   248  O     c     -4.5078 *    10.1425 *     5.6347 *  0.0000     2          
   249  Na    c      0.0000       1.1269 *    12.3964 *  0.0000     1          
   250  Na    c      0.0000     -12.3964 *    -1.1269 *  0.0000     1          
   251  Na    c      9.0156 *    -7.8886 *     3.3808 *  0.0000     2          
   252  Na    c     -4.5078 *    10.1425 *    -5.6347 *  0.0000     2          
   253  Na    c      0.0000      -1.1269 *   -12.3964 *  0.0000     1          
   254  Na    c      0.0000      12.3964 *     1.1269 *  0.0000     1          
   255  Na    c      9.0156 *     7.8886 *    -3.3808 *  0.0000     2          
   256  Na    c     -4.5078 *   -10.1425 *     5.6347 *  0.0000     2          
   257  O     c      4.5078 *     5.6347 *    10.1425 *  0.0000     2          
   258  O     c      9.0156 *    -3.3808 *    -7.8886 *  0.0000     2          
   259  Na    c      4.5078 *     5.6347 *   -10.1425 *  0.0000     2          
   260  Na    c      9.0156 *    -3.3808 *     7.8886 *  0.0000     2          
   261  Na    c      4.5078 *    -5.6347 *    10.1425 *  0.0000     2          
   262  Na    c      9.0156 *     3.3808 *    -7.8886 *  0.0000     2          
   263  Cl    c     11.2695 *    -1.1269 *    -5.6347 *  0.0000     2          
   264  Cl    c     11.2695 *    -5.6347 *    -1.1269 *  0.0000     2          
   265  Na    c     11.2695 *     1.1269 *     5.6347 *  0.0000     2          
   266  Na    c     11.2695 *     5.6347 *     1.1269 *  0.0000     2          
   267  Cl    c      2.2539 *    -1.1269 *    12.3964 *  0.0000     2          
   268  Cl    c      2.2539 *    12.3964 *    -1.1269 *  0.0000     2          
   269  Cl    c      6.7617 *   -10.1425 *     3.3808 *  0.0000     2          
   270  Na    c      2.2539 *     1.1269 *   -12.3964 *  0.0000     2          
   271  Na    c      2.2539 *   -12.3964 *     1.1269 *  0.0000     2          
   272  Na    c      6.7617 *    10.1425 *    -3.3808 *  0.0000     2          
   273  Cl    c      6.7617 *     3.3808 *   -10.1425 *  0.0000     2          
   274  Na    c      6.7617 *    -3.3808 *    10.1425 *  0.0000     2          
   275  O     c      0.0000      -3.3808 *   -12.3964 *  0.0000     1          
   276  O     c      0.0000     -12.3964 *    -3.3808 *  0.0000     1          
   277  Na    c      0.0000      -3.3808 *    12.3964 *  0.0000     1          
   278  Na    c      0.0000     -12.3964 *     3.3808 *  0.0000     1          
   279  Na    c      0.0000       3.3808 *   -12.3964 *  0.0000     1          
   280  Na    c      0.0000      12.3964 *    -3.3808 *  0.0000     1          
   281  O     c      0.0000      10.1425 *    -7.8886 *  0.0000     1          
   282  O     c      0.0000      -7.8886 *    10.1425 *  0.0000     1          
   283  Na    c      0.0000      10.1425 *     7.8886 *  0.0000     1          
   284  Na    c      0.0000      -7.8886 *   -10.1425 *  0.0000     1          
   285  Na    c      0.0000       7.8886 *    10.1425 *  0.0000     1          
   286  Na    c      0.0000     -10.1425 *    -7.8886 *  0.0000     1          
   287  O     s      0.0000       1.1269 *     1.1269 *  0.0000     1          
   288  Cl    s      2.2539 *    -1.1269 *    -1.1269 *  0.0000     2          
   289  O     s      0.0000       1.1269 *    -3.3808 *  0.0000     1          
   290  O     s      0.0000      -3.3808 *     1.1269 *  0.0000     1          
   291  Cl    s      2.2539 *    -1.1269 *     3.3808 *  0.0000     2          
   292  Cl    s      2.2539 *     3.3808 *    -1.1269 *  0.0000     2          
   293  O     s     -4.5078 *     1.1269 *     1.1269 *  0.0000     2          
   294  O     s      0.0000      -3.3808 *    -3.3808 *  0.0000     1          
   295  Cl    s      2.2539 *     3.3808 *     3.3808 *  0.0000     2          
   296  O     s      0.0000       1.1269 *     5.6347 *  0.0000     1          
   297  O     s      0.0000       5.6347 *     1.1269 *  0.0000     1          
   298  O     s     -4.5078 *     1.1269 *    -3.3808 *  0.0000     2          
   299  O     s     -4.5078 *    -3.3808 *     1.1269 *  0.0000     2          
   300  Cl    s      2.2539 *    -1.1269 *    -5.6347 *  0.0000     2          
   301  Cl    s      2.2539 *    -5.6347 *    -1.1269 *  0.0000     2          
   302  O     s      0.0000       5.6347 *    -3.3808 *  0.0000     1          
   303  O     s      0.0000      -3.3808 *     5.6347 *  0.0000     1          
   304  O     s      4.5078 *    -3.3808 *    -3.3808 *  0.0000     2          
   305  Cl    s      2.2539 *     3.3808 *    -5.6347 *  0.0000     2          
   306  Cl    s      2.2539 *    -5.6347 *     3.3808 *  0.0000     2          
   307  Cl    s      6.7617 *    -1.1269 *    -1.1269 *  0.0000     2          
   308  O     s     -4.5078 *     1.1269 *     5.6347 *  0.0000     2          
   309  O     s      4.5078 *     5.6347 *     1.1269 *  0.0000     2          
   310  Cl    s      6.7617 *    -1.1269 *     3.3808 *  0.0000     2          
   311  Cl    s      6.7617 *     3.3808 *    -1.1269 *  0.0000     2          
   312  O     s      0.0000       5.6347 *     5.6347 *  0.0000     1          
   313  O     s     -4.5078 *    -3.3808 *     5.6347 *  0.0000     2          
   314  O     s      0.0000       1.1269 *    -7.8886 *  0.0000     1          
   315  O     s      0.0000      -7.8886 *     1.1269 *  0.0000     1          
   316  O     s      4.5078 *     5.6347 *    -3.3808 *  0.0000     2          
   317  Cl    s      2.2539 *    -5.6347 *    -5.6347 *  0.0000     2          
   318  Cl    s      2.2539 *    -1.1269 *     7.8886 *  0.0000     2          
   319  Cl    s      2.2539 *     7.8886 *    -1.1269 *  0.0000     2          
   320  Cl    s      6.7617 *     3.3808 *     3.3808 *  0.0000     2          
   321  O     s      0.0000      -3.3808 *    -7.8886 *  0.0000     1          
   322  O     s      0.0000      -7.8886 *    -3.3808 *  0.0000     1          
   323  Cl    s      2.2539 *     3.3808 *     7.8886 *  0.0000     2          
   324  Cl    s      6.7617 *    -1.1269 *    -5.6347 *  0.0000     2          
   325  Cl    s      2.2539 *     7.8886 *     3.3808 *  0.0000     2          
   326  Cl    s      6.7617 *    -5.6347 *    -1.1269 *  0.0000     2          
   327  O     s      4.5078 *     5.6347 *     5.6347 *  0.0000     2          
   328  O     s      4.5078 *    -7.8886 *     1.1269 *  0.0000     2          
   329  O     s      9.0156 *     1.1269 *     1.1269 *  0.0000     2          
   330  O     s     -4.5078 *     1.1269 *    -7.8886 *  0.0000     2          
   331  Cl    s      6.7617 *     3.3808 *    -5.6347 *  0.0000     2          
   332  Cl    s      6.7617 *    -5.6347 *     3.3808 *  0.0000     2          
   333  O     s      0.0000       5.6347 *    -7.8886 *  0.0000     1          
   334  O     s      0.0000      -7.8886 *     5.6347 *  0.0000     1          
   335  O     s      9.0156 *    -3.3808 *     1.1269 *  0.0000     2          
   336  O     s     -4.5078 *    -3.3808 *    -7.8886 *  0.0000     2          
   337  O     s      4.5078 *    -7.8886 *    -3.3808 *  0.0000     2          
   338  O     s      9.0156 *     1.1269 *    -3.3808 *  0.0000     2          
   339  Cl    s      2.2539 *     7.8886 *    -5.6347 *  0.0000     2          
   340  Cl    s      2.2539 *    -5.6347 *     7.8886 *  0.0000     2          
   341  O     s      0.0000      10.1425 *     1.1269 *  0.0000     1          
   342  O     s      0.0000       1.1269 *    10.1425 *  0.0000     1          
   343  O     s      9.0156 *    -3.3808 *    -3.3808 *  0.0000     2          
   344  Cl    s      6.7617 *    -5.6347 *    -5.6347 *  0.0000     2          
   345  Cl    s      2.2539 *    -1.1269 *   -10.1425 *  0.0000     2          
   346  Cl    s      2.2539 *   -10.1425 *    -1.1269 *  0.0000     2          
   347  Cl    s      6.7617 *    -1.1269 *     7.8886 *  0.0000     2          
   348  Cl    s      6.7617 *     7.8886 *    -1.1269 *  0.0000     2          
   349  O     s      4.5078 *     5.6347 *    -7.8886 *  0.0000     2          
   350  O     s      4.5078 *    -7.8886 *     5.6347 *  0.0000     2          
   351  O     s      9.0156 *     1.1269 *     5.6347 *  0.0000     2          
   352  O     s      9.0156 *     5.6347 *     1.1269 *  0.0000     2          
   353  O     s      0.0000      10.1425 *    -3.3808 *  0.0000     1          
   354  O     s      0.0000      -3.3808 *    10.1425 *  0.0000     1          
   355  Cl    s      2.2539 *     3.3808 *   -10.1425 *  0.0000     2          
   356  Cl    s      2.2539 *   -10.1425 *     3.3808 *  0.0000     2          
   357  Cl    s      6.7617 *     7.8886 *     3.3808 *  0.0000     2          
   358  Cl    s      6.7617 *     3.3808 *     7.8886 *  0.0000     2          
   359  O     s      9.0156 *    -3.3808 *     5.6347 *  0.0000     2          
   360  O     s     -4.5078 *    10.1425 *     1.1269 *  0.0000     2          
   361  O     s      0.0000      -7.8886 *    -7.8886 *  0.0000     1          
   362  O     s      4.5078 *     1.1269 *    10.1425 *  0.0000     2          
   363  O     s      9.0156 *     5.6347 *    -3.3808 *  0.0000     2          
   364  Cl    s     11.2695 *    -1.1269 *    -1.1269 *  0.0000     2          
   365  Cl    s      2.2539 *     7.8886 *     7.8886 *  0.0000     2          
   366  O     s      0.0000       5.6347 *    10.1425 *  0.0000     1          
   367  O     s      0.0000      10.1425 *     5.6347 *  0.0000     1          
   368  O     s     -4.5078 *    10.1425 *    -3.3808 *  0.0000     2          
   369  O     s      4.5078 *    -3.3808 *    10.1425 *  0.0000     2          
   370  Cl    s     11.2695 *    -1.1269 *     3.3808 *  0.0000     2          
   371  Cl    s     11.2695 *     3.3808 *    -1.1269 *  0.0000     2          
   372  Cl    s      2.2539 *    -5.6347 *   -10.1425 *  0.0000     2          
   373  Cl    s      2.2539 *   -10.1425 *    -5.6347 *  0.0000     2          
   374  Cl    s      6.7617 *     7.8886 *    -5.6347 *  0.0000     2          
   375  Cl    s      6.7617 *    -5.6347 *     7.8886 *  0.0000     2          
   376  O     s      9.0156 *     5.6347 *     5.6347 *  0.0000     2          
   377  O     s      9.0156 *    -7.8886 *     1.1269 *  0.0000     2          
   378  O     s      4.5078 *    -7.8886 *    -7.8886 *  0.0000     2          
   379  O     s      9.0156 *     1.1269 *    -7.8886 *  0.0000     2          
   380  Cl    s     11.2695 *     3.3808 *     3.3808 *  0.0000     2          
   381  Cl    s      6.7617 *   -10.1425 *    -1.1269 *  0.0000     2          
   382  Cl    s      6.7617 *    -1.1269 *   -10.1425 *  0.0000     2          
   383  O     s      0.0000       1.1269 *   -12.3964 *  0.0000     1          
   384  O     s      0.0000     -12.3964 *     1.1269 *  0.0000     1          
   385  O     s      9.0156 *    -7.8886 *    -3.3808 *  0.0000     2          
   386  O     s     -4.5078 *    10.1425 *     5.6347 *  0.0000     2          
   387  O     s      4.5078 *     5.6347 *    10.1425 *  0.0000     2          
   388  O     s      9.0156 *    -3.3808 *    -7.8886 *  0.0000     2          
   389  Cl    s     11.2695 *    -1.1269 *    -5.6347 *  0.0000     2          
   390  Cl    s     11.2695 *    -5.6347 *    -1.1269 *  0.0000     2          
   391  Cl    s      2.2539 *    -1.1269 *    12.3964 *  0.0000     2          
   392  Cl    s      2.2539 *    12.3964 *    -1.1269 *  0.0000     2          
   393  Cl    s      6.7617 *   -10.1425 *     3.3808 *  0.0000     2          
   394  Cl    s      6.7617 *     3.3808 *   -10.1425 *  0.0000     2          
   395  O     s      0.0000      -3.3808 *   -12.3964 *  0.0000     1          
   396  O     s      0.0000     -12.3964 *    -3.3808 *  0.0000     1          
   397  O     s      0.0000      10.1425 *    -7.8886 *  0.0000     1          
   398  O     s      0.0000      -7.8886 *    10.1425 *  0.0000     1          
--------------------------------------------------------------------------------

  Components of defect energy : 

--------------------------------------------------------------------------------
  Region 1 - region 1                   =      9.17670701 eV
  Region 1 - region 2a (unrelaxed)      =      0.30130338 eV
  Region 1 - 2a (relaxed - correction)  =     -0.41628441 eV
  Region 1 (Total)                      =      9.06172598 eV
  Region 2a                             =      0.20807003 eV
  Region 2b                             =     -0.32798070 eV
--------------------------------------------------------------------------------
  Total defect energy                   =      8.94181532 eV
--------------------------------------------------------------------------------

  Largest displacement in region 2 =   0.0210 Angstroms


  Number of variables =     1081

  Maximum number of calculations  =        1000
  Maximum Hessian update interval =          10
  Maximum step size               =   1.0000000
  Maximum parameter tolerance     =   0.0000100
  Maximum function  tolerance     =   0.0000100
  Maximum gradient  tolerance     =   0.0010000

  Symmetry adapted optimisation

  Symmetry to be used for second derivatives

  Newton-Raphson optimiser to be used

  BFGS hessian update to be used

  Lower half triangular hessian to be used

  Start of defect optimisation :

  Cycle:      0 Defect Energy:   8.941815  Gnorm:     0.016405  CPU:    6.910
  ** Hessian calculated **
  Cycle:      1 Defect Energy:   7.358595  Gnorm:     0.007874  CPU:   18.323
  Cycle:      2 Defect Energy:   6.864376  Gnorm:     0.007171  CPU:   33.003
  Cycle:      3 Defect Energy:   6.705379  Gnorm:     0.005912  CPU:   42.428
  Cycle:      4 Defect Energy:   6.458458  Gnorm:     0.006308  CPU:   55.279
  Cycle:      5 Defect Energy:   6.237014  Gnorm:     0.004562  CPU:   70.829
  Cycle:      6 Defect Energy:   5.977126  Gnorm:     0.005792  CPU:   82.337
  Cycle:      7 Defect Energy:   5.670930  Gnorm:     0.004966  CPU:   92.910
  Cycle:      8 Defect Energy:   5.420028  Gnorm:     0.003280  CPU:  105.897
  Cycle:      9 Defect Energy:   5.346331  Gnorm:     0.002589  CPU:  108.521
  Cycle:     10 Defect Energy:   5.276688  Gnorm:     0.002333  CPU:  110.941
  ** Hessian calculated **
  Cycle:     11 Defect Energy:   5.219750  Gnorm:     0.002194  CPU:  116.821
  Cycle:     12 Defect Energy:   5.155496  Gnorm:     0.002028  CPU:  119.186
  Cycle:     13 Defect Energy:   5.115452  Gnorm:     0.001898  CPU:  121.479
  ** Hessian calculated **
  Cycle:     14 Defect Energy:   4.976338  Gnorm:     0.001495  CPU:  126.988
  Cycle:     15 Defect Energy:   4.927418  Gnorm:     0.001297  CPU:  132.356
  ** Hessian calculated **
  Cycle:     16 Defect Energy:   4.918869  Gnorm:     0.001168  CPU:  138.843
  Cycle:     17 Defect Energy:   4.908721  Gnorm:     0.001121  CPU:  141.354
  Cycle:     18 Defect Energy:   4.896384  Gnorm:     0.001086  CPU:  143.921
  Cycle:     19 Defect Energy:   4.883459  Gnorm:     0.001050  CPU:  146.308
  Cycle:     20 Defect Energy:   4.872851  Gnorm:     0.001018  CPU:  148.803
  Cycle:     21 Defect Energy:   4.864306  Gnorm:     0.000991  CPU:  151.097
  Cycle:     22 Defect Energy:   4.856107  Gnorm:     0.000962  CPU:  153.565
  Cycle:     23 Defect Energy:   4.848315  Gnorm:     0.000929  CPU:  155.810
  Cycle:     24 Defect Energy:   4.839955  Gnorm:     0.000892  CPU:  158.140
  Cycle:     25 Defect Energy:   4.830655  Gnorm:     0.000864  CPU:  160.311
  ** Hessian calculated **
  Cycle:     26 Defect Energy:   4.816287  Gnorm:     0.000813  CPU:  169.601
  Cycle:     27 Defect Energy:   4.796469  Gnorm:     0.000743  CPU:  172.253
  Cycle:     28 Defect Energy:   4.765065  Gnorm:     0.000593  CPU:  174.949
  Cycle:     29 Defect Energy:   4.743951  Gnorm:     0.000416  CPU:  177.494
  ** Hessian calculated **
  Cycle:     30 Defect Energy:   4.743154  Gnorm:     0.000383  CPU:  183.637
  Cycle:     31 Defect Energy:   4.742325  Gnorm:     0.000371  CPU:  185.988
  Cycle:     32 Defect Energy:   4.741247  Gnorm:     0.000364  CPU:  188.371
  Cycle:     33 Defect Energy:   4.740006  Gnorm:     0.000361  CPU:  190.771
  Cycle:     34 Defect Energy:   4.738817  Gnorm:     0.000353  CPU:  193.081
  Cycle:     35 Defect Energy:   4.737636  Gnorm:     0.000351  CPU:  195.402
  Cycle:     36 Defect Energy:   4.736158  Gnorm:     0.000351  CPU:  197.580
  Cycle:     37 Defect Energy:   4.734252  Gnorm:     0.000344  CPU:  201.338
  Cycle:     38 Defect Energy:   4.731368  Gnorm:     0.000357  CPU:  206.199
  Cycle:     39 Defect Energy:   4.727208  Gnorm:     0.000380  CPU:  208.887
  ** Hessian calculated **
  Cycle:     40 Defect Energy:   4.725265  Gnorm:     0.000360  CPU:  215.306
  Cycle:     41 Defect Energy:   4.722620  Gnorm:     0.000351  CPU:  217.620
  Cycle:     42 Defect Energy:   4.718991  Gnorm:     0.000344  CPU:  220.073
  Cycle:     43 Defect Energy:   4.714171  Gnorm:     0.000339  CPU:  222.389
  Cycle:     44 Defect Energy:   4.707668  Gnorm:     0.000344  CPU:  224.776
  Cycle:     45 Defect Energy:   4.699358  Gnorm:     0.000381  CPU:  226.986
  Cycle:     46 Defect Energy:   4.687965  Gnorm:     0.000455  CPU:  229.343
  Cycle:     47 Defect Energy:   4.673370  Gnorm:     0.000565  CPU:  231.518
  Cycle:     48 Defect Energy:   4.657763  Gnorm:     0.000712  CPU:  233.763
  Cycle:     49 Defect Energy:   4.646701  Gnorm:     0.000805  CPU:  239.352
  ** Hessian calculated **
  Cycle:     50 Defect Energy:   4.634826  Gnorm:     0.000747  CPU:  245.859
  Cycle:     51 Defect Energy:   4.619467  Gnorm:     0.000720  CPU:  248.374
  Cycle:     52 Defect Energy:   4.599418  Gnorm:     0.000700  CPU:  250.886
  Cycle:     53 Defect Energy:   4.575385  Gnorm:     0.000681  CPU:  253.381
  Cycle:     54 Defect Energy:   4.557417  Gnorm:     0.000681  CPU:  255.784
  Cycle:     55 Defect Energy:   4.545045  Gnorm:     0.000698  CPU:  258.123
  Cycle:     56 Defect Energy:   4.534908  Gnorm:     0.000748  CPU:  260.499
  Cycle:     57 Defect Energy:   4.524133  Gnorm:     0.000777  CPU:  262.795
  Cycle:     58 Defect Energy:   4.513837  Gnorm:     0.000819  CPU:  265.096
  Cycle:     59 Defect Energy:   4.501338  Gnorm:     0.000870  CPU:  267.278
  ** Hessian calculated **
  Cycle:     60 Defect Energy:   4.496776  Gnorm:     0.000851  CPU:  276.255
  Cycle:     61 Defect Energy:   4.490330  Gnorm:     0.000843  CPU:  278.904
  Cycle:     62 Defect Energy:   4.481561  Gnorm:     0.000829  CPU:  281.569
  Cycle:     63 Defect Energy:   4.469668  Gnorm:     0.000815  CPU:  284.161
  Cycle:     64 Defect Energy:   4.454877  Gnorm:     0.000817  CPU:  286.646
  Cycle:     65 Defect Energy:   4.439218  Gnorm:     0.000828  CPU:  289.167
  Cycle:     66 Defect Energy:   4.427047  Gnorm:     0.000857  CPU:  291.489
  Cycle:     67 Defect Energy:   4.417403  Gnorm:     0.000851  CPU:  293.974
  Cycle:     68 Defect Energy:   4.409387  Gnorm:     0.000879  CPU:  296.239
  Cycle:     69 Defect Energy:   4.400950  Gnorm:     0.000889  CPU:  298.602
  ** Hessian calculated **
  Cycle:     70 Defect Energy:   4.363582  Gnorm:     0.000776  CPU:  303.911
  Cycle:     71 Defect Energy:   4.316535  Gnorm:     0.000589  CPU:  309.921
  Cycle:     72 Defect Energy:   4.288519  Gnorm:     0.000404  CPU:  312.590
  Cycle:     73 Defect Energy:   4.276539  Gnorm:     0.000280  CPU:  315.344
  Cycle:     74 Defect Energy:   4.271006  Gnorm:     0.000195  CPU:  317.982
  Cycle:     75 Defect Energy:   4.268358  Gnorm:     0.000136  CPU:  320.619
  Cycle:     76 Defect Energy:   4.267051  Gnorm:     0.000093  CPU:  323.015
  Cycle:     77 Defect Energy:   4.266430  Gnorm:     0.000061  CPU:  325.447
  Cycle:     78 Defect Energy:   4.266088  Gnorm:     0.000034  CPU:  327.903
  Cycle:     79 Defect Energy:   4.266018  Gnorm:     0.000023  CPU:  330.343
  ** Hessian calculated **
  Cycle:     80 Defect Energy:   4.265991  Gnorm:     0.000016  CPU:  335.984


  **** Optimisation achieved ****


  Final defect energy  =        4.26598225
  Final defect Gnorm   =        0.00001138

  Components of defect energy : 

--------------------------------------------------------------------------------
  Region 1 - region 1                   =      5.13040790 eV
  Region 1 - region 2a (unrelaxed)      =     -0.35893650 eV
  Region 1 - 2a (relaxed - correction)  =     -0.35508851 eV
  Region 1 (Total)                      =      4.41638289 eV
  Region 2a                             =      0.17740667 eV
  Region 2b                             =     -0.32780731 eV
--------------------------------------------------------------------------------
  Total defect energy                   =      4.26598225 eV
--------------------------------------------------------------------------------

  Largest displacement in region 2 =   0.0210 Angstroms

  Final coordinates of region 1 :

--------------------------------------------------------------------------------
   No.  Atomic        x           y           z          Radius      Charge
        Label       (Angs)      (Angs)      (Angs)       (Angs)       (e) 
--------------------------------------------------------------------------------
     1  Na    c     2.253894    1.577726    0.676168    0.000000    1.000000
     2  O     c     2.253894    2.444402    2.608226    0.000000    0.183000
     3  Cl    c     4.593185   -0.028509   -0.040197    0.000000    1.485000
     4  Cl    c    -0.085398   -0.028509   -0.040197    0.000000    1.485000
     5  Na    c     4.488624    2.302533    2.630508    0.000000    1.000000
     6  Na    c     0.019163    2.302533    2.630508    0.000000    1.000000
     7  O     c     2.253894    2.228540   -2.076764    0.000000    0.183000
     8  O     c     2.253894   -2.351290    2.333667    0.000000    0.183000
     9  Na    c     2.253894    1.608681    4.615477    0.000000    1.000000
    10  Na    c     2.253894   -2.296007    0.101736    0.000000    1.000000
    11  Na    c     2.253894    0.013420   -2.239603    0.000000    1.000000
    12  Na    c     2.253894    4.603066    2.397794    0.000000    1.000000
    13  Cl    c     4.632105    0.008898    4.690302    0.000000    1.485000
    14  Cl    c    -0.124318    0.008898    4.690302    0.000000    1.485000
    15  Cl    c     4.599184    4.643871    0.036314    0.000000    1.485000
    16  Cl    c    -0.091396    4.643871    0.036314    0.000000    1.485000
    17  Na    c     4.481364    2.167295   -2.027924    0.000000    1.000000
    18  Na    c     0.026424    2.167295   -2.027924    0.000000    1.000000
    19  Na    c     4.415517   -1.853131    2.287017    0.000000    1.000000
    20  Na    c     0.092270   -1.853131    2.287017    0.000000    1.000000
    21  O     c    -2.246944    2.274406    2.306859    0.000000    0.183000
    22  O     c     6.754731    2.274406    2.306859    0.000000    0.183000
    23  Na    c    -2.130823    2.654726    0.060469    0.000000    1.000000
    24  Na    c     6.638611    2.654726    0.060469    0.000000    1.000000
    25  Na    c    -2.302693    0.039157    1.872809    0.000000    1.000000
    26  Na    c     6.810480    0.039157    1.872809    0.000000    1.000000
    27  O     c     2.253894   -2.241379   -2.204154    0.000000    0.183000
    28  Na    c     2.253894   -1.780649    4.484046    0.000000    1.000000
    29  Na    c     2.253894    4.435081   -1.637513    0.000000    1.000000
    30  Cl    c     4.637270    4.647086    4.594013    0.000000    1.485000
    31  Cl    c    -0.129483    4.647086    4.594013    0.000000    1.485000
    32  Na    c     4.506711   -2.118564   -2.236862    0.000000    1.000000
    33  Na    c     0.001076   -2.118564   -2.236862    0.000000    1.000000
    34  O     c     2.253894    2.238743    6.801874    0.000000    0.183000
    35  O     c     2.253894    6.843804    2.267085    0.000000    0.183000
    36  Na    c     2.253894    2.511554   -4.369350    0.000000    1.000000
    37  Na    c     2.253894    7.046951    0.021721    0.000000    1.000000
    38  Na    c     2.253894   -0.012354    7.267363    0.000000    1.000000
    39  Na    c     2.253894   -4.523631    2.629797    0.000000    1.000000
    40  O     c    -2.240217    2.260722   -2.195565    0.000000    0.183000
    41  O     c     6.748004    2.260722   -2.195565    0.000000    0.183000
    42  O     c    -2.201377   -2.207475    2.251704    0.000000    0.183000
    43  O     c     6.709165   -2.207475    2.251704    0.000000    0.183000
    44  Na    c    -2.398637    1.882072    4.542485    0.000000    1.000000
    45  Na    c     6.906424    1.882072    4.542485    0.000000    1.000000
    46  Na    c    -2.115259   -2.602712    0.017797    0.000000    1.000000
    47  Na    c     6.623046   -2.602712    0.017797    0.000000    1.000000
    48  Na    c    -2.357908    0.001697   -1.868507    0.000000    1.000000
    49  Na    c     6.865695    0.001697   -1.868507    0.000000    1.000000
    50  Na    c    -2.242635    4.525260    2.646733    0.000000    1.000000
    51  Na    c     6.750422    4.525260    2.646733    0.000000    1.000000
    52  Cl    c     4.488302   -0.041796   -4.486685    0.000000    1.485000
    53  Cl    c     0.019485   -0.041796   -4.486685    0.000000    1.485000
    54  Cl    c     4.561313   -4.613276   -0.105426    0.000000    1.485000
    55  Cl    c    -0.053526   -4.613276   -0.105426    0.000000    1.485000
    56  Na    c     4.519892    2.334409    6.724229    0.000000    1.000000
    57  Na    c    -0.012105    2.334409    6.724229    0.000000    1.000000
    58  Na    c     4.519002    6.741723    2.121564    0.000000    1.000000
    59  Na    c    -0.011215    6.741723    2.121564    0.000000    1.000000
    60  O     c     2.253894    6.704289   -2.201875    0.000000    0.183000
    61  O     c     2.253894   -2.247253    6.744913    0.000000    0.183000
    62  Na    c     2.253894    7.025125    4.525500    0.000000    1.000000
    63  Na    c     2.253894   -2.301263   -4.465107    0.000000    1.000000
    64  Na    c     2.253894    4.447658    6.215236    0.000000    1.000000
    65  Na    c     2.253894   -4.494257   -2.308588    0.000000    1.000000
    66  O     c     6.762814   -2.254258   -2.230480    0.000000    0.183000
    67  O     c    -2.255027   -2.254258   -2.230480    0.000000    0.183000
    68  Na    c     6.800483   -1.910910    4.504954    0.000000    1.000000
    69  Na    c    -2.292696   -1.910910    4.504954    0.000000    1.000000
    70  Na    c     6.663489    4.491438   -2.602981    0.000000    1.000000
    71  Na    c    -2.155701    4.491438   -2.602981    0.000000    1.000000
    72  Cl    c     4.546034    4.513012   -4.562234    0.000000    1.485000
    73  Cl    c    -0.038246    4.513012   -4.562234    0.000000    1.485000
    74  Cl    c     4.561519   -4.619689    4.625879    0.000000    1.485000
    75  Cl    c    -0.053732   -4.619689    4.625879    0.000000    1.485000
    76  Na    c     4.511392    6.694944   -2.126434    0.000000    1.000000
    77  Na    c    -0.003605    6.694944   -2.126434    0.000000    1.000000
    78  Na    c     4.511550   -2.334688    6.665614    0.000000    1.000000
    79  Na    c    -0.003763   -2.334688    6.665614    0.000000    1.000000
    80  Cl    c     9.055678    0.027633    0.037828    0.000000    1.485000
    81  Cl    c    -4.547890    0.027633    0.037828    0.000000    1.485000
    82  Na    c     9.013054    2.321304    2.138967    0.000000    1.000000
    83  Na    c    -4.505266    2.321304    2.138967    0.000000    1.000000
    84  O     c    -2.277003    2.247795    6.781463    0.000000    0.183000
    85  O     c     6.784790    2.247795    6.781463    0.000000    0.183000
    86  Na    c    -2.219635    1.900009   -4.450317    0.000000    1.000000
    87  Na    c     6.727423    1.900009   -4.450317    0.000000    1.000000
    88  Na    c    -2.067160   -0.000145    7.091992    0.000000    1.000000
    89  Na    c     6.574947   -0.000145    7.091992    0.000000    1.000000
    90  O     c     6.776200    6.768422    2.273588    0.000000    0.183000
    91  O     c    -2.268412    6.768422    2.273588    0.000000    0.183000
    92  Na    c     6.893444    6.424208    0.013228    0.000000    1.000000
    93  Na    c    -2.385657    6.424208    0.013228    0.000000    1.000000
    94  Na    c     6.528484   -4.455941    2.570726    0.000000    1.000000
    95  Na    c    -2.020697   -4.455941    2.570726    0.000000    1.000000
    96  Cl    c     9.056015   -0.002441    4.566960    0.000000    1.485000
    97  Cl    c    -4.548228   -0.002441    4.566960    0.000000    1.485000
    98  Na    c     9.004330    2.373711   -2.123631    0.000000    1.000000
    99  Na    c    -4.496543    2.373711   -2.123631    0.000000    1.000000
   100  Cl    c     9.051949    4.476388    0.009196    0.000000    1.485000
   101  Cl    c    -4.544162    4.476388    0.009196    0.000000    1.485000
   102  Na    c     8.981622   -2.339336    2.187563    0.000000    1.000000
   103  Na    c    -4.473835   -2.339336    2.187563    0.000000    1.000000
   104  O     c     2.253894    6.687586    6.761028    0.000000    0.183000
   105  Na    c     2.253894    6.354567   -4.455696    0.000000    1.000000
   106  Na    c     2.253894   -4.498490    6.352125    0.000000    1.000000
   107  O     c    -2.264374   -2.240773    6.763772    0.000000    0.183000
   108  O     c     6.772161   -2.240773    6.763772    0.000000    0.183000
   109  Na    c    -2.303544   -1.932958   -4.487457    0.000000    1.000000
   110  Na    c     6.811331   -1.932958   -4.487457    0.000000    1.000000
   111  Na    c    -2.393096    4.506574    6.452865    0.000000    1.000000
   112  Na    c     6.900883    4.506574    6.452865    0.000000    1.000000
   113  O     c     2.253894    2.274156   -6.690412    0.000000    0.183000
   114  O     c     2.253894   -6.779237    2.253477    0.000000    0.183000
   115  O     c     6.771451    6.739449   -2.253643    0.000000    0.183000
   116  O     c    -2.263664    6.739449   -2.253643    0.000000    0.183000
   117  Na    c     2.253894    2.668414    9.013748    0.000000    1.000000
   118  Na    c     2.253894   -6.443307    0.021317    0.000000    1.000000
   119  Na    c     6.549378    7.068139    4.511887    0.000000    1.000000
   120  Na    c    -2.041591    7.068139    4.511887    0.000000    1.000000
   121  Na    c     2.253894    0.018481   -6.507103    0.000000    1.000000
   122  Na    c     2.253894    9.065354    2.338931    0.000000    1.000000
   123  Na    c     6.576342   -4.494317   -2.551426    0.000000    1.000000
   124  Na    c    -2.068555   -4.494317   -2.551426    0.000000    1.000000
   125  Cl    c     4.462912   -4.503834   -4.546579    0.000000    1.485000
   126  Cl    c     0.044875   -4.503834   -4.546579    0.000000    1.485000
   127  Na    c     4.516343    6.579644    6.854090    0.000000    1.000000
   128  Na    c    -0.008555    6.579644    6.854090    0.000000    1.000000
   129  Cl    c     4.529655   -0.002852    9.096242    0.000000    1.485000
   130  Cl    c    -0.021868   -0.002852    9.096242    0.000000    1.485000
   131  Na    c     4.505516    2.343766   -6.642892    0.000000    1.000000
   132  Na    c     0.002271    2.343766   -6.642892    0.000000    1.000000
   133  Cl    c     4.492344    9.041888    0.010719    0.000000    1.485000
   134  Cl    c     0.015443    9.041888    0.010719    0.000000    1.485000
   135  Cl    c     9.073858    4.551149    4.508213    0.000000    1.485000
   136  Cl    c    -4.566071    4.551149    4.508213    0.000000    1.485000
   137  Na    c     4.502530   -6.813482    2.127751    0.000000    1.000000
   138  Na    c     0.005257   -6.813482    2.127751    0.000000    1.000000
   139  Na    c     9.006476   -2.421138   -2.156651    0.000000    1.000000
   140  Na    c    -4.498689   -2.421138   -2.156651    0.000000    1.000000
   141  O     c     2.253894   -2.245327   -6.724109    0.000000    0.183000
[...]
    318 y          0.000000     -0.002849    -0.002849    Cartesian    0.00
    318 z          9.015574      9.097846     0.082272    Cartesian    0.91
    319 x          4.507787      4.490909    -0.016878    Cartesian   -0.37
    319 y          9.015574      9.040532     0.024957    Cartesian    0.28
    319 z          0.000000      0.013191     0.013191    Cartesian    0.00
    320 x          9.015574      9.074530     0.058956    Cartesian    0.65
    320 y          4.507787      4.553738     0.045951    Cartesian    1.02
    320 z          4.507787      4.508559     0.000771    Cartesian    0.02
    321 x          2.253894      2.253894     0.000000    Cartesian    0.00
    321 y         -2.253894     -2.245366     0.008527    Cartesian   -0.38
    321 z         -6.761681     -6.724052     0.037629    Cartesian   -0.56
    322 x          2.253894      2.253894     0.000000    Cartesian    0.00
    322 y         -6.761681     -6.761839    -0.000158    Cartesian    0.00
    322 z         -2.253894     -2.218671     0.035223    Cartesian   -1.56
    323 x          4.507787      4.556068     0.048281    Cartesian    1.07
    323 y          4.507787      4.535657     0.027870    Cartesian    0.62
    323 z          9.015574      9.081345     0.065770    Cartesian    0.73
    324 x          9.015574      9.027143     0.011568    Cartesian    0.13
    324 y          0.000000      0.000389     0.000389    Cartesian    0.00
    324 z         -4.507787     -4.558090    -0.050302    Cartesian    1.12
    325 x          4.507787      4.454766    -0.053021    Cartesian   -1.18
    325 y          9.015574      9.091053     0.075478    Cartesian    0.84
    325 z          4.507787      4.507361    -0.000426    Cartesian   -0.01
    326 x          9.015574      9.079218     0.063643    Cartesian    0.71
    326 y         -4.507787     -4.500179     0.007608    Cartesian   -0.17
    326 z          0.000000     -0.010446    -0.010446    Cartesian    0.00
    327 x          6.761681      6.774567     0.012887    Cartesian    0.19
    327 y          6.761681      6.772393     0.010713    Cartesian    0.16
    327 z          6.761681      6.751281    -0.010400    Cartesian   -0.15
    328 x          6.761681      6.749980    -0.011701    Cartesian   -0.17
    328 y         -6.761681     -6.720269     0.041412    Cartesian   -0.61
    328 z          2.253894      2.263856     0.009963    Cartesian    0.44
    329 x         11.269468     11.267687    -0.001781    Cartesian   -0.02
    329 y          2.253894      2.249397    -0.004497    Cartesian   -0.20
    329 z          2.253894      2.251596    -0.002298    Cartesian   -0.10
    330 x         -2.253894     -2.250431     0.003463    Cartesian   -0.15
    330 y          2.253894      2.233272    -0.020622    Cartesian   -0.91
    330 z         -6.761681     -6.721067     0.040614    Cartesian   -0.60
    331 x          9.015574      9.061821     0.046247    Cartesian    0.51
    331 y          4.507787      4.546874     0.039087    Cartesian    0.87
    331 z         -4.507787     -4.510600    -0.002813    Cartesian    0.06
    332 x          9.015574      9.045581     0.030007    Cartesian    0.33
    332 y         -4.507787     -4.514009    -0.006222    Cartesian    0.14
    332 z          4.507787      4.505421    -0.002366    Cartesian   -0.05
    333 x          2.253894      2.253894     0.000000    Cartesian    0.00
    333 y          6.761681      6.721557    -0.040124    Cartesian   -0.59
    333 z         -6.761681     -6.737964     0.023717    Cartesian   -0.35
    334 x          2.253894      2.253894     0.000000    Cartesian    0.00
    334 y         -6.761681     -6.738315     0.023366    Cartesian   -0.35
    334 z          6.761681      6.764365     0.002684    Cartesian    0.04
    335 x         11.269468     11.254840    -0.014628    Cartesian   -0.13
    335 y         -2.253894     -2.239306     0.014587    Cartesian   -0.65
    335 z          2.253894      2.251859    -0.002035    Cartesian   -0.09
    336 x         -2.253894     -2.252163     0.001730    Cartesian   -0.08
    336 y         -2.253894     -2.233323     0.020571    Cartesian   -0.91
    336 z         -6.761681     -6.751200     0.010481    Cartesian   -0.16
    337 x          6.761681      6.770545     0.008864    Cartesian    0.13
    337 y         -6.761681     -6.742046     0.019635    Cartesian   -0.29
    337 z         -2.253894     -2.265735    -0.011841    Cartesian    0.53
    338 x         11.269468     11.265783    -0.003686    Cartesian   -0.03
    338 y          2.253894      2.245300    -0.008593    Cartesian   -0.38
    338 z         -2.253894     -2.235076     0.018818    Cartesian   -0.83
    339 x          4.507787      4.514508     0.006720    Cartesian    0.15
    339 y          9.015574      9.073295     0.057721    Cartesian    0.64
    339 z         -4.507787     -4.520581    -0.012794    Cartesian    0.28
    340 x          4.507787      4.523572     0.015785    Cartesian    0.35
    340 y         -4.507787     -4.521681    -0.013893    Cartesian    0.31
    340 z          9.015574      9.089808     0.074234    Cartesian    0.82
    341 x          2.253894      2.253894     0.000000    Cartesian    0.00
    341 y         11.269468     11.287430     0.017962    Cartesian    0.16
    341 z          2.253894      2.257228     0.003334    Cartesian    0.15
    342 x          2.253894      2.253894     0.000000    Cartesian    0.00
    342 y          2.253894      2.249664    -0.004230    Cartesian   -0.19
    342 z         11.269468     11.249964    -0.019504    Cartesian   -0.17
    343 x         11.269468     11.261658    -0.007810    Cartesian   -0.07
    343 y         -2.253894     -2.232298     0.021595    Cartesian   -0.96
    343 z         -2.253894     -2.246118     0.007776    Cartesian   -0.34
    344 x          9.015574      9.051721     0.036147    Cartesian    0.40
    344 y         -4.507787     -4.522702    -0.014914    Cartesian    0.33
    344 z         -4.507787     -4.514945    -0.007158    Cartesian    0.16
    345 x          4.507787      4.492290    -0.015497    Cartesian   -0.34
    345 y          0.000000      0.007945     0.007945    Cartesian    0.00
    345 z         -9.015574     -9.042179    -0.026605    Cartesian    0.30
    346 x          4.507787      4.513866     0.006079    Cartesian    0.13
    346 y         -9.015574     -9.064286    -0.048712    Cartesian    0.54
    346 z          0.000000      0.001728     0.001728    Cartesian    0.00
    347 x          9.015574      9.068264     0.052689    Cartesian    0.58
    347 y          0.000000      0.005711     0.005711    Cartesian    0.00
    347 z          9.015574      9.035649     0.020074    Cartesian    0.22
    348 x          9.015574      9.019170     0.003596    Cartesian    0.04
    348 y          9.015574      9.064776     0.049201    Cartesian    0.55
    348 z          0.000000     -0.005744    -0.005744    Cartesian    0.00
    349 x          6.761681      6.763516     0.001835    Cartesian    0.03
    349 y          6.761681      6.772070     0.010389    Cartesian    0.15
    349 z         -6.761681     -6.727525     0.034156    Cartesian   -0.51
    350 x          6.761681      6.770528     0.008847    Cartesian    0.13
    350 y         -6.761681     -6.759997     0.001684    Cartesian   -0.02
    350 z          6.761681      6.749100    -0.012581    Cartesian   -0.19
    351 x         11.269468     11.270107     0.000639    Cartesian    0.01
    351 y          2.253894      2.259296     0.005402    Cartesian    0.24
    351 z          6.761681      6.743252    -0.018428    Cartesian   -0.27
    352 x         11.269468     11.274135     0.004667    Cartesian    0.04
    352 y          6.761681      6.753912    -0.007769    Cartesian   -0.11
    352 z          2.253894      2.242282    -0.011612    Cartesian   -0.52
    353 x          2.253894      2.253894     0.000000    Cartesian    0.00
    353 y         11.269468     11.238810    -0.030658    Cartesian   -0.27
    353 z         -2.253894     -2.274005    -0.020112    Cartesian    0.89
    354 x          2.253894      2.253894     0.000000    Cartesian    0.00
    354 y         -2.253894     -2.247113     0.006781    Cartesian   -0.30
    354 z         11.269468     11.234827    -0.034641    Cartesian   -0.31
    355 x          4.507787      4.530050     0.022263    Cartesian    0.49
    355 y          4.507787      4.516533     0.008745    Cartesian    0.19
    355 z         -9.015574     -9.030767    -0.015192    Cartesian    0.17
    356 x          4.507787      4.512490     0.004703    Cartesian    0.10
    356 y         -9.015574     -9.047296    -0.031721    Cartesian    0.35
    356 z          4.507787      4.506904    -0.000883    Cartesian   -0.02
    357 x          9.015574      9.060083     0.044509    Cartesian    0.49
    357 y          9.015574      9.046996     0.031421    Cartesian    0.35
    357 z          4.507787      4.505482    -0.002306    Cartesian   -0.05
    358 x          9.015574      9.050108     0.034534    Cartesian    0.38
    358 y          4.507787      4.506304    -0.001483    Cartesian   -0.03
    358 z          9.015574      9.059555     0.043980    Cartesian    0.49
    359 x         11.269468     11.272151     0.002683    Cartesian    0.02
    359 y         -2.253894     -2.249997     0.003897    Cartesian   -0.17
    359 z          6.761681      6.739780    -0.021901    Cartesian   -0.32
    360 x         -2.253894     -2.253455     0.000439    Cartesian   -0.02
    360 y         11.269468     11.264146    -0.005322    Cartesian   -0.05
    360 z          2.253894      2.235714    -0.018180    Cartesian   -0.81
    361 x          2.253894      2.253894     0.000000    Cartesian    0.00
    361 y         -6.761681     -6.751533     0.010148    Cartesian   -0.15
    361 z         -6.761681     -6.761576     0.000104    Cartesian   -0.00
    362 x          6.761681      6.760643    -0.001038    Cartesian   -0.02
    362 y          2.253894      2.270623     0.016730    Cartesian    0.74
    362 z         11.269468     11.265295    -0.004173    Cartesian   -0.04
    363 x         11.269468     11.269644     0.000176    Cartesian    0.00
    363 y          6.761681      6.750728    -0.010953    Cartesian   -0.16
    363 z         -2.253894     -2.237040     0.016854    Cartesian   -0.75
    364 x         13.523362     13.588121     0.064760    Cartesian    0.48
    364 y          0.000000     -0.008657    -0.008657    Cartesian    0.00
    364 z          0.000000     -0.009022    -0.009022    Cartesian    0.00
    365 x          4.507787      4.521030     0.013243    Cartesian    0.29
    365 y          9.015574      9.060333     0.044759    Cartesian    0.50
    365 z          9.015574      9.037851     0.022277    Cartesian    0.25
    366 x          2.253894      2.253894     0.000000    Cartesian    0.00
    366 y          6.761681      6.730894    -0.030786    Cartesian   -0.46
    366 z         11.269468     11.259541    -0.009927    Cartesian   -0.09
    367 x          2.253894      2.253894     0.000000    Cartesian    0.00
    367 y         11.269468     11.260643    -0.008825    Cartesian   -0.08
    367 z          6.761681      6.778036     0.016355    Cartesian    0.24
    368 x         -2.253894     -2.252414     0.001479    Cartesian   -0.07
    368 y         11.269468     11.254734    -0.014734    Cartesian   -0.13
    368 z         -2.253894     -2.227314     0.026580    Cartesian   -1.18
    369 x          6.761681      6.765567     0.003886    Cartesian    0.06
    369 y         -2.253894     -2.266524    -0.012631    Cartesian    0.56
    369 z         11.269468     11.259454    -0.010014    Cartesian   -0.09
    370 x         13.523362     13.584347     0.060985    Cartesian    0.45
    370 y          0.000000     -0.001718    -0.001718    Cartesian    0.00
    370 z          4.507787      4.495858    -0.011929    Cartesian   -0.26
    371 x         13.523362     13.574915     0.051554    Cartesian    0.38
    371 y          4.507787      4.526899     0.019112    Cartesian    0.42
    371 z          0.000000      0.009512     0.009512    Cartesian    0.00
    372 x          4.507787      4.527019     0.019232    Cartesian    0.43
    372 y         -4.507787     -4.522489    -0.014702    Cartesian    0.33
    372 z         -9.015574     -9.055815    -0.040240    Cartesian    0.45
    373 x          4.507787      4.537108     0.029321    Cartesian    0.65
    373 y         -9.015574     -9.023007    -0.007432    Cartesian    0.08
    373 z         -4.507787     -4.547257    -0.039470    Cartesian    0.88
    374 x          9.015574      9.039695     0.024120    Cartesian    0.27
    374 y          9.015574      9.023770     0.008196    Cartesian    0.09
    374 z         -4.507787     -4.517294    -0.009507    Cartesian    0.21
    375 x          9.015574      9.047349     0.031775    Cartesian    0.35
    375 y         -4.507787     -4.505799     0.001989    Cartesian   -0.04
    375 z          9.015574      9.064013     0.048439    Cartesian    0.54
    376 x         11.269468     11.272798     0.003330    Cartesian    0.03
    376 y          6.761681      6.751262    -0.010419    Cartesian   -0.15
    376 z          6.761681      6.760327    -0.001354    Cartesian   -0.02
    377 x         11.269468     11.264561    -0.004907    Cartesian   -0.04
    377 y         -6.761681     -6.744481     0.017200    Cartesian   -0.25
    377 z          2.253894      2.238018    -0.015876    Cartesian   -0.70
    378 x          6.761681      6.766060     0.004380    Cartesian    0.06
    378 y         -6.761681     -6.765281    -0.003600    Cartesian    0.05
    378 z         -6.761681     -6.746929     0.014752    Cartesian   -0.22
    379 x         11.269468     11.266358    -0.003110    Cartesian   -0.03
    379 y          2.253894      2.270013     0.016119    Cartesian    0.72
    379 z         -6.761681     -6.746725     0.014955    Cartesian   -0.22
    380 x         13.523362     13.574939     0.051578    Cartesian    0.38
    380 y          4.507787      4.502671    -0.005116    Cartesian   -0.11
    380 z          4.507787      4.525471     0.017684    Cartesian    0.39
    381 x          9.015574      9.041979     0.026404    Cartesian    0.29
    381 y         -9.015574     -9.109170    -0.093596    Cartesian    1.04
    381 z          0.000000     -0.002716    -0.002716    Cartesian    0.00
    382 x          9.015574      9.015088    -0.000487    Cartesian   -0.01
    382 y          0.000000     -0.003138    -0.003138    Cartesian    0.00
    382 z         -9.015574     -9.004666     0.010908    Cartesian   -0.12
    383 x          2.253894      2.253894     0.000000    Cartesian    0.00
    383 y          2.253894      2.231809    -0.022084    Cartesian   -0.98
    383 z        -11.269468    -11.244590     0.024878    Cartesian   -0.22
    384 x          2.253894      2.253894     0.000000    Cartesian    0.00
    384 y        -11.269468    -11.266582     0.002886    Cartesian   -0.03
    384 z          2.253894      2.238268    -0.015625    Cartesian   -0.69
    385 x         11.269468     11.269100    -0.000368    Cartesian   -0.00
    385 y         -6.761681     -6.757730     0.003951    Cartesian   -0.06
    385 z         -2.253894     -2.244731     0.009163    Cartesian   -0.41
    386 x         -2.253894     -2.257491    -0.003597    Cartesian    0.16
    386 y         11.269468     11.256549    -0.012919    Cartesian   -0.11
    386 z          6.761681      6.770916     0.009235    Cartesian    0.14
    387 x          6.761681      6.767200     0.005519    Cartesian    0.08
    387 y          6.761681      6.757225    -0.004456    Cartesian   -0.07
    387 z         11.269468     11.270998     0.001530    Cartesian    0.01
    388 x         11.269468     11.276627     0.007159    Cartesian    0.06
    388 y         -2.253894     -2.259209    -0.005315    Cartesian    0.24
    388 z         -6.761681     -6.746302     0.015379    Cartesian   -0.23
    389 x         13.523362     13.578495     0.055134    Cartesian    0.41
    389 y          0.000000      0.004036     0.004036    Cartesian    0.00
    389 z         -4.507787     -4.505544     0.002243    Cartesian   -0.05
    390 x         13.523362     13.559952     0.036590    Cartesian    0.27
    390 y         -4.507787     -4.521038    -0.013251    Cartesian    0.29
    390 z          0.000000     -0.005836    -0.005836    Cartesian    0.00
    391 x          4.507787      4.463631    -0.044156    Cartesian   -0.98
    391 y          0.000000      0.003148     0.003148    Cartesian    0.00
    391 z         13.523362     13.596831     0.073469    Cartesian    0.54
    392 x          4.507787      4.555782     0.047994    Cartesian    1.06
    392 y         13.523362     13.581407     0.058045    Cartesian    0.43
    392 z          0.000000     -0.006987    -0.006987    Cartesian    0.00
    393 x          9.015574      9.008678    -0.006897    Cartesian   -0.08
    393 y         -9.015574     -9.023276    -0.007701    Cartesian    0.09
    393 z          4.507787      4.514079     0.006292    Cartesian    0.14
    394 x          9.015574      9.044949     0.029375    Cartesian    0.33
    394 y          4.507787      4.511852     0.004065    Cartesian    0.09
    394 z         -9.015574     -9.081577    -0.066002    Cartesian    0.73
    395 x          2.253894      2.253894     0.000000    Cartesian    0.00
    395 y         -2.253894     -2.250396     0.003498    Cartesian   -0.16
    395 z        -11.269468    -11.274137    -0.004669    Cartesian    0.04
    396 x          2.253894      2.253894     0.000000    Cartesian    0.00
    396 y        -11.269468    -11.279071    -0.009603    Cartesian    0.09
    396 z         -2.253894     -2.250459     0.003435    Cartesian   -0.15
    397 x          2.253894      2.253894     0.000000    Cartesian    0.00
    397 y         11.269468     11.276244     0.006776    Cartesian    0.06
    397 z         -6.761681     -6.754250     0.007431    Cartesian   -0.11
    398 x          2.253894      2.253894     0.000000    Cartesian    0.00
    398 y         -6.761681     -6.746051     0.015630    Cartesian   -0.23
    398 z         11.269468     11.291548     0.022080    Cartesian    0.20
--------------------------------------------------------------------------------


  Time to end of optimisation  =      338.2075 seconds


  Peak dynamic memory used =     144.25 MB 


  Timing analysis for GULP :

--------------------------------------------------------------------------------
  Task / Subroutine                                          Time (Seconds)
--------------------------------------------------------------------------------
  Calculation of reciprocal space energy and derivatives          0.0008
  Calculation of reciprocal space energy using symmetry           0.0012
  Calculation of real space energy and derivatives                0.0046
  Calculation of real space energy using symmetry                 0.0112
  Calculation for region 1 energy and derivatives (2-b)         116.0541
  Calculation for region 2a energy                              210.9905
  Calculation for region 2b energy                                0.0292
  Calculation and manipulation of Hessian matrix                  0.2708
  Calculation of matrix inversion                                10.1693
  Symmetry generation of equivalent positions                     0.0056
--------------------------------------------------------------------------------
  Total CPU time                                                338.2076
--------------------------------------------------------------------------------


  Dump file written as Na3OCl.grs


  Job Finished at 18:28.24  3rd December   2020                               

