********************************************************************************
*                       GENERAL UTILITY LATTICE PROGRAM                        *
*                                 Julian Gale                                  *
*                       Curtin Institute for Computation                       *
*                    School of Molecular and Life Sciences                     *
*                    Curtin University, Western Australia                      *
********************************************************************************
* Version = 5.2.0 * Last modified =  10th September 2020                       *
********************************************************************************
*  optimise     - perform optimisation run                                     *
*  conp         - constant pressure calculation                                *
*  property     - calculate properties for final geometry                      *
*  defect       - perform defect calculation after bulk run                    *
*  compare      - compare initial and final structures                         *
********************************************************************************

  Job Started  at 18:29.47  3rd December   2020                               

  Number of CPUs =     1


  Total number of configurations input =      1

********************************************************************************
*  Input for Configuration =   1                                               *
********************************************************************************

  Formula = ClONa3                                                      

  Number of irreducible atoms/shells =       5


  Total number atoms/shells =       7

  Dimensionality = 3               :  Bulk   


  Symmetry :

  Crystal family                   :  Cubic       
  Crystal class  (Groth - 1921)    :  Cubic Hexakisoctahedral              

  Space group (centrosymmetric)    :  P M 3 M         

  Patterson group                  :  P m -3 m 

  Cartesian lattice vectors (Angstroms) :

        4.504000    0.000000    0.000000
        0.000000    4.504000    0.000000
        0.000000    0.000000    4.504000

  Cell parameters (Angstroms/Degrees):

  a =       4.5040    alpha =  90.0000
  b =       4.5040    beta  =  90.0000
  c =       4.5040    gamma =  90.0000

  Initial cell volume =          91.368216 Angs**3

  Temperature of configuration =   0.00     K 

  Pressure of configuration =         0.000 GPa 

  Fractional coordinates of asymmetric unit :

--------------------------------------------------------------------------------
   No.  Atomic       x           y          z         Charge      Occupancy
        Label      (Frac)      (Frac)     (Frac)        (e)         (Frac)  
--------------------------------------------------------------------------------
      1 Cl    c    0.000000    0.000000    0.000000     1.48500    1.000000    
      2 O     c    0.500000    0.500000    0.500000     0.18300    1.000000    
      3 Na    c    0.500000    0.500000    0.000000     1.00000    1.000000    
      4 Cl    s    0.000000    0.000000    0.000000    -2.48500    1.000000    
      5 O     s    0.500000    0.500000    0.500000    -2.18300    1.000000    
--------------------------------------------------------------------------------


  Constraints : 

--------------------------------------------------------------------------------
  Constraint no.      Unconstrained     Constrained    Coefficient    Offset
                         Variable         Variable
--------------------------------------------------------------------------------
           1              Strain 1        Strain 2       1.00000      0.0000
           2              Strain 1        Strain 3       1.00000      0.0000
--------------------------------------------------------------------------------


********************************************************************************
*  General input information                                                   *
********************************************************************************

  Species output for all configurations : 

--------------------------------------------------------------------------------
  Species    Type    Atomic    Atomic    Charge       Radii (Angs)     Library
                     Number     Mass       (e)     Cova   Ionic  VDW   Symbol
--------------------------------------------------------------------------------
    Na       Core       11      22.99   1.000000   0.970  0.000  2.300          
    O        Core        8      16.00   0.183000   0.730  0.000  1.360          
    O        Shell       8       0.00  -2.183000   0.730  0.000  0.000          
    Cl       Core       17      35.45   1.485000   0.990  0.000  1.650          
    Cl       Shell      17       0.00  -2.485000   0.990  0.000  0.000          
    Mg       Core       12      24.31   0.415000   1.100  0.000  0.000          
    Mg       Shell      12       0.00   1.585000   1.100  0.000  0.000          
    Ca       Core       20      40.08  -1.135000   0.990  0.000  0.000          
    Ca       Shell      20       0.00   3.135000   0.990  0.000  0.000          
    Sr       Core       38      87.62  -1.251000   1.120  0.000  0.000          
    Sr       Shell      38       0.00   3.251000   1.120  0.000  0.000          
    Ba       Core       56     137.33  -7.203000   1.340  0.000  0.000          
    Ba       Shell      56       0.00   9.203000   1.340  0.000  0.000          
--------------------------------------------------------------------------------


  Lattice summation method               =    Ewald          (3-D)
                                         =    Parry          (2-D)
                                         =    Saunders et al (1-D)
  Accuracy factor for lattice sums       =   12.000


  Analytic derivatives to be used

  Time limit = Infinity

  Maximum range for interatomic potentials =    100000.000000 Angstroms

  General interatomic potentials :

--------------------------------------------------------------------------------
Atom  Types   Potential      Parameter       Value         Units   Cutoffs(Ang)
  1     2                                                            Min /  Max 
--------------------------------------------------------------------------------
O    c O    s Spring (c-s)  Spring k 2       593.71600    eV*Ang^-2 0.000  0.800
                            Spring k 4       0.0000000    eV*Ang^-4 
--------------------------------------------------------------------------------
Cl   c Cl   s Spring (c-s)  Spring k 2       29.380000    eV*Ang^-2 0.000  0.800
                            Spring k 4       0.0000000    eV*Ang^-4 
--------------------------------------------------------------------------------
Mg   c Mg   s Spring (c-s)  Spring k 2       361.60000    eV*Ang^-2 0.000  0.800
                            Spring k 4       0.0000000    eV*Ang^-4 
--------------------------------------------------------------------------------
Ca   c Ca   s Spring (c-s)  Spring k 2       110.20000    eV*Ang^-2 0.000  0.800
                            Spring k 4       0.0000000    eV*Ang^-4 
--------------------------------------------------------------------------------
Sr   c Sr   s Spring (c-s)  Spring k 2       71.700000    eV*Ang^-2 0.000  0.800
                            Spring k 4       0.0000000    eV*Ang^-4 
--------------------------------------------------------------------------------
Ba   c Ba   s Spring (c-s)  Spring k 2       495.20000    eV*Ang^-2 0.000  0.800
                            Spring k 4       0.0000000    eV*Ang^-4 
--------------------------------------------------------------------------------
Na   c Na   c Buckingham    Buckingham A     1788.1900    eV        0.000 12.000
                            Buckingham rho  0.15900000    Ang       
                            Buckingham C     0.0000000    eV*Ang^6  
--------------------------------------------------------------------------------
Na   c O    s Buckingham    Buckingham A     1226.8400    eV        0.000 12.000
                            Buckingham rho  0.30700000    Ang       
                            Buckingham C     0.0000000    eV*Ang^6  
--------------------------------------------------------------------------------
Na   c Cl   s Buckingham    Buckingham A     2314.7000    eV        0.000 12.000
                            Buckingham rho  0.29000000    Ang       
                            Buckingham C     0.0000000    eV*Ang^6  
--------------------------------------------------------------------------------
O    s O    s Buckingham    Buckingham A     22764.300    eV        0.000 12.000
                            Buckingham rho  0.14900000    Ang       
                            Buckingham C     13.190000    eV*Ang^6  
--------------------------------------------------------------------------------
O    s Cl   s Buckingham    Buckingham A     8286.9100    eV        0.000 12.000
                            Buckingham rho  0.25900000    Ang       
                            Buckingham C     62.200000    eV*Ang^6  
--------------------------------------------------------------------------------
Cl   s Cl   s Buckingham    Buckingham A     1227.2000    eV        0.000 12.000
                            Buckingham rho  0.32100000    Ang       
                            Buckingham C     14.530000    eV*Ang^6  
--------------------------------------------------------------------------------
O    s Mg   s Buckingham    Buckingham A     1428.5000    eV        0.000 12.000
                            Buckingham rho  0.29450000    Ang       
                            Buckingham C     0.0000000    eV*Ang^6  
--------------------------------------------------------------------------------
Mg   s Cl   s Buckingham    Buckingham A     4914.5400    eV        0.000 12.000
                            Buckingham rho  0.25700000    Ang       
                            Buckingham C     0.0000000    eV*Ang^6  
--------------------------------------------------------------------------------
O    s Ca   s Buckingham    Buckingham A     1090.4000    eV        0.000 12.000
                            Buckingham rho  0.34370000    Ang       
                            Buckingham C     0.0000000    eV*Ang^6  
--------------------------------------------------------------------------------
Cl   s Ca   s Buckingham    Buckingham A     2302.0000    eV        0.000 12.000
                            Buckingham rho  0.34020000    Ang       
                            Buckingham C     0.0000000    eV*Ang^6  
--------------------------------------------------------------------------------
O    s Sr   s Buckingham    Buckingham A     959.10000    eV        0.000 12.000
                            Buckingham rho  0.37210000    Ang       
                            Buckingham C     0.0000000    eV*Ang^6  
--------------------------------------------------------------------------------
Cl   s Sr   s Buckingham    Buckingham A     2191.0900    eV        0.000 12.000
                            Buckingham rho  0.34570000    Ang       
                            Buckingham C     0.0000000    eV*Ang^6  
--------------------------------------------------------------------------------
O    s Ba   s Buckingham    Buckingham A     905.70000    eV        0.000 12.000
                            Buckingham rho  0.39760000    Ang       
                            Buckingham C     0.0000000    eV*Ang^6  
--------------------------------------------------------------------------------
Cl   s Ba   s Buckingham    Buckingham A     2704.5500    eV        0.000 12.000
                            Buckingham rho  0.35280000    Ang       
                            Buckingham C     0.0000000    eV*Ang^6  
--------------------------------------------------------------------------------

********************************************************************************
*  Output for configuration   1                                                *
********************************************************************************


  Components of energy : 

--------------------------------------------------------------------------------
  Interatomic potentials     =           5.13022605 eV    
  Monopole - monopole (real) =         -10.03624526 eV    
  Monopole - monopole (recip)=         -29.53581274 eV    
  Monopole - monopole (total)=         -39.57205800 eV    
--------------------------------------------------------------------------------
  Total lattice energy       =         -34.44183194 eV    
--------------------------------------------------------------------------------
  Total lattice energy       =           -3323.1103 kJ/(mole unit cells)
--------------------------------------------------------------------------------


  Number of variables =        1

  Maximum number of calculations  =          1000
  Maximum Hessian update interval =            10
  Maximum step size               =   1.000000000
  Maximum parameter tolerance     =   0.000010000
  Maximum function  tolerance     =   0.000010000
  Maximum gradient  tolerance     =   0.001000000
  Maximum gradient  component     =   0.010000000

  Symmetry constrained optimisation

  Symmetry used for second derivatives

  Cell parameters to be optimised using strains

  Newton-Raphson optimiser to be used

  BFGS hessian update to be used

  Lower half triangular hessian to be used

  Start of bulk optimisation :

  Cycle:      0 Energy:       -34.441832  Gnorm:      0.196570  CPU:    0.018
  ** Hessian calculated **
  Cycle:      1 Energy:       -34.441914  Gnorm:      0.000103  CPU:    0.023


  **** Optimisation achieved ****


  Final energy =     -34.44191447 eV
  Final Gnorm  =       0.00000000

  Components of energy : 

--------------------------------------------------------------------------------
  Interatomic potentials     =           5.09689708 eV    
  Monopole - monopole (real) =         -10.02781331 eV    
  Monopole - monopole (recip)=         -29.51099824 eV    
  Monopole - monopole (total)=         -39.53881155 eV    
--------------------------------------------------------------------------------
  Total lattice energy       =         -34.44191447 eV    
--------------------------------------------------------------------------------
  Total lattice energy       =           -3323.1183 kJ/(mole unit cells)
--------------------------------------------------------------------------------

  Final asymmetric unit coordinates :

--------------------------------------------------------------------------------
   No.  Atomic        x           y           z         Radius
        Label       (Frac)      (Frac)      (Frac)       (Angs) 
--------------------------------------------------------------------------------
     1  Cl    c     0.000000    0.000000    0.000000    0.000000
     2  O     c     0.500000    0.500000    0.500000    0.000000
     3  Na    c     0.500000    0.500000    0.000000    0.000000
     4  Cl    s     0.000000    0.000000    0.000000    0.000000
     5  O     s     0.500000    0.500000    0.500000    0.000000
--------------------------------------------------------------------------------

  Final Cartesian lattice vectors (Angstroms) :

        4.507787    0.000000    0.000000
        0.000000    4.507787    0.000000
        0.000000    0.000000    4.507787


  Final cell parameters and derivatives :

--------------------------------------------------------------------------------
       a            4.507787 Angstrom     dE/de1(xx)     0.000000 eV/strain
       b            4.507787 Angstrom     dE/de2(yy)     0.000000 eV/strain
       c            4.507787 Angstrom     dE/de3(zz)     0.000000 eV/strain
       alpha       90.000000 Degrees      dE/de4(yz)     0.000000 eV/strain
       beta        90.000000 Degrees      dE/de5(xz)     0.000000 eV/strain
       gamma       90.000000 Degrees      dE/de6(xy)     0.000000 eV/strain
--------------------------------------------------------------------------------

  Primitive cell volume =            91.598892 Angs**3

  Density of cell =      2.183054 g/cm**3

  Non-primitive cell volume =            91.598892 Angs**3


  Final internal derivatives :

--------------------------------------------------------------------------------
   No.  Atomic          a             b             c           Radius
        Label          (eV)          (eV)          (eV)        (eV/Angs)
--------------------------------------------------------------------------------
      1 Cl    c       0.000000      0.000000      0.000000      0.000000
      2 O     c       0.000000      0.000000      0.000000      0.000000
      3 Na    c       0.000000      0.000000      0.000000      0.000000
      4 Cl    s       0.000000      0.000000      0.000000      0.000000
      5 O     s       0.000000      0.000000      0.000000      0.000000
--------------------------------------------------------------------------------
  Maximum abs         0.000000      0.000000      0.000000      0.000000
--------------------------------------------------------------------------------

  Comparison of initial and final structures : 

--------------------------------------------------------------------------------
  Parameter   Initial value   Final value   Difference    Units      Percent
--------------------------------------------------------------------------------
    Volume        91.368216     91.598892     0.230676    Angs**3      0.25
    a              4.504000      4.507787     0.003787    Angstroms    0.08
    b              4.504000      4.507787     0.003787    Angstroms    0.08
    c              4.504000      4.507787     0.003787    Angstroms    0.08
    alpha         90.000000     90.000000     0.000000    Degrees      0.00
    beta          90.000000     90.000000     0.000000    Degrees      0.00
    gamma         90.000000     90.000000     0.000000    Degrees      0.00
      1 x          0.000000      0.000000     0.000000    Fractional   0.00
      1 y          0.000000      0.000000     0.000000    Fractional   0.00
      1 z          0.000000      0.000000     0.000000    Fractional   0.00
      2 x          0.500000      0.500000     0.000000    Fractional   0.00
      2 y          0.500000      0.500000     0.000000    Fractional   0.00
      2 z          0.500000      0.500000     0.000000    Fractional   0.00
      3 x          0.500000      0.500000     0.000000    Fractional   0.00
      3 y          0.500000      0.500000     0.000000    Fractional   0.00
      3 z          0.000000      0.000000     0.000000    Fractional   0.00
      4 x          0.000000      0.000000     0.000000    Fractional   0.00
      4 y          0.000000      0.000000     0.000000    Fractional   0.00
      4 z          0.000000      0.000000     0.000000    Fractional   0.00
      5 x          0.500000      0.500000     0.000000    Fractional   0.00
      5 y          0.500000      0.500000     0.000000    Fractional   0.00
      5 z          0.500000      0.500000     0.000000    Fractional   0.00
--------------------------------------------------------------------------------


  Born effective charge tensors : 

-------------------------------------------------------------------------------
  Atom             x           y             z
-------------------------------------------------------------------------------
    1 Cl    x      -1.0181     -0.0000      0.0000
            y      -0.0000     -1.0181      0.0000
            z       0.0000      0.0000     -1.0181
-------------------------------------------------------------------------------
    2 O     x      -2.2647      0.0000     -0.0000
            y       0.0000     -2.2647     -0.0000
            z      -0.0000     -0.0000     -2.2647
-------------------------------------------------------------------------------
    3 Na    x       1.2258     -0.0000      0.0000
            y      -0.0000      1.2258     -0.0000
            z       0.0000     -0.0000      0.8313
-------------------------------------------------------------------------------




  Elastic Constant Matrix: (Units=GPa)

-------------------------------------------------------------------------------
  Indices      1         2         3         4         5         6    
-------------------------------------------------------------------------------
       1     95.8177   20.0737   20.0737   -0.0000   -0.0000    0.0000
       2     20.0737   95.8177   20.0737   -0.0000   -0.0000    0.0000
       3     20.0737   20.0737   95.8177   -0.0000   -0.0000    0.0000
       4     -0.0000   -0.0000   -0.0000   20.0737   -0.0000    0.0000
       5     -0.0000   -0.0000   -0.0000   -0.0000   20.0737    0.0000
       6      0.0000    0.0000    0.0000    0.0000    0.0000   20.0737
-------------------------------------------------------------------------------


  Elastic Compliance Matrix: (Units=1/GPa)

-------------------------------------------------------------------------------
  Indices      1         2         3         4         5         6    
-------------------------------------------------------------------------------
       1    0.011253 -0.001949 -0.001949  0.000000  0.000000 -0.000000
       2   -0.001949  0.011253 -0.001949  0.000000  0.000000  0.000000
       3   -0.001949 -0.001949  0.011253  0.000000  0.000000 -0.000000
       4    0.000000  0.000000  0.000000  0.049816  0.000000 -0.000000
       5    0.000000  0.000000  0.000000  0.000000  0.049816 -0.000000
       6   -0.000000  0.000000 -0.000000 -0.000000 -0.000000  0.049816
-------------------------------------------------------------------------------

  Mechanical properties :

-------------------------------------------------------------------------------
  Convention :                    Reuss         Voigt         Hill
-------------------------------------------------------------------------------
  Bulk  Modulus (GPa)     =      45.32174      45.32174      45.32174
  Shear Modulus (GPa)     =      24.72085      27.19304      25.95695
-------------------------------------------------------------------------------
  Velocity S-wave (km/s)  =       3.36511       3.52937       3.44822
  Velocity P-wave (km/s)  =       5.98827       6.11304       6.05098
-------------------------------------------------------------------------------
  Compressibility (1/GPa) =    0.02206447
-------------------------------------------------------------------------------
  Stress axis :                     x             y             z
-------------------------------------------------------------------------------
  Youngs Moduli (GPa)     =      88.86373      88.86373      88.86373
-------------------------------------------------------------------------------
  Poissons Ratio (x)      =                     0.17321       0.17321
  Poissons Ratio (y)      =       0.17321                     0.17321
  Poissons Ratio (z)      =       0.17321       0.17321
-------------------------------------------------------------------------------


  Piezoelectric Strain Matrix: (Units=C/m**2)

-------------------------------------------------------------------------------
  Indices      1         2         3         4         5         6    
-------------------------------------------------------------------------------
       x    -0.00000  -0.00000  -0.00000   0.00000  -0.00000  -0.00000
       y    -0.00000  -0.00000   0.00000  -0.00000   0.00000   0.00000
       z    -0.00000  -0.00000  -0.00000  -0.00000   0.00000   0.00000
-------------------------------------------------------------------------------


  Piezoelectric Stress Matrix: (Units=10**-11 C/N)

-------------------------------------------------------------------------------
  Indices      1         2         3         4         5         6    
-------------------------------------------------------------------------------
       x    -0.00000   0.00000   0.00000   0.00000  -0.00000  -0.00000
       y    -0.00000  -0.00000   0.00000  -0.00000   0.00000   0.00000
       z     0.00000   0.00000  -0.00000  -0.00000   0.00000   0.00000
-------------------------------------------------------------------------------


  Static dielectric constant tensor : 

-------------------------------------------------------------------------------
              x         y         z
-------------------------------------------------------------------------------
       x    22.84729   0.00000   0.00000
       y     0.00000  22.84729  -0.00000
       z     0.00000  -0.00000  22.84729
--------------------------------------------------------------------------------

  High frequency dielectric constant tensor : 

-------------------------------------------------------------------------------
              x         y         z
-------------------------------------------------------------------------------
       x     1.47557   0.00000  -0.00000
       y     0.00000   1.47557  -0.00000
       z    -0.00000  -0.00000   1.47557
-------------------------------------------------------------------------------

  Static refractive indices : 

-------------------------------------------------------------------------------
    1 =    4.77988      2 =    4.77988      3 =    4.77988
-------------------------------------------------------------------------------

  High frequency refractive indices : 

-------------------------------------------------------------------------------
    1 =    1.21473      2 =    1.21473      3 =    1.21473
-------------------------------------------------------------------------------


  Time to end of optimisation =       0.0335 seconds

********************************************************************************
*  Defect calculation for configuration   1 :                                  *
********************************************************************************

  Total number of defects =      3

  Total charge on defect  =  -1.00

  Defect centre is at   0.5000   0.2500   0.2500  Frac

  Region 1 radius =  13.0000      Number of ions =    685

  Number of symmetry inequivalent region 1 ions  =    398

  Region 2 radius =  21.0000      Number of ions =   2280

  Number of symmetry inequivalent region 2a ions =   1222

  Region 2a mode = 4 : screened electrostatics due to region 1 
                       neglect correction to region 1 forces from 2a
                       region 2a displacements based on defects only

  Region 2a ions will only interact with defects in region 1

  Vacancies:

--------------------------------------------------------------------------------
    Specification type     Symbol/Number         x          y          z
--------------------------------------------------------------------------------
    Fractional                               0.500000   0.500000   0.000000
    Fractional                               0.500000   0.000000   0.500000
--------------------------------------------------------------------------------

  Interstitials:

--------------------------------------------------------------------------------
    Specification type     Symbol/Number         x          y          z
--------------------------------------------------------------------------------
    Atom/Fractional         Na               0.500000   0.430000   0.070000
--------------------------------------------------------------------------------


  Symmetry reduced region 1 (Relative to defect centre) :

--------------------------------------------------------------------------------
   No.   Atomic       x            y             z       Radius  Multiplicity   
         Label      (Angs)       (Angs)        (Angs)    (Angs)     
--------------------------------------------------------------------------------
     1  Na    c      0.0000       0.8114      -0.8114    0.0000     1    Defect
     2  O     c      0.0000       1.1269 *     1.1269 *  0.0000     1          
     3  Cl    c      2.2539 *    -1.1269 *    -1.1269 *  0.0000     2          
     4  Na    c      2.2539 *     1.1269 *     1.1269 *  0.0000     2          
     5  O     c      0.0000       1.1269 *    -3.3808 *  0.0000     1          
     6  O     c      0.0000      -3.3808 *     1.1269 *  0.0000     1          
     7  Na    c      0.0000       1.1269 *     3.3808 *  0.0000     1          
     8  Na    c      0.0000      -3.3808 *    -1.1269 *  0.0000     1          
     9  Na    c      0.0000      -1.1269 *    -3.3808 *  0.0000     1          
    10  Na    c      0.0000       3.3808 *     1.1269 *  0.0000     1          
    11  Cl    c      2.2539 *    -1.1269 *     3.3808 *  0.0000     2          
    12  Cl    c      2.2539 *     3.3808 *    -1.1269 *  0.0000     2          
    13  Na    c      2.2539 *     1.1269 *    -3.3808 *  0.0000     2          
    14  Na    c      2.2539 *    -3.3808 *     1.1269 *  0.0000     2          
    15  O     c     -4.5078 *     1.1269 *     1.1269 *  0.0000     2          
    16  Na    c     -4.5078 *     1.1269 *    -1.1269 *  0.0000     2          
    17  Na    c     -4.5078 *    -1.1269 *     1.1269 *  0.0000     2          
    18  O     c      0.0000      -3.3808 *    -3.3808 *  0.0000     1          
    19  Na    c      0.0000      -3.3808 *     3.3808 *  0.0000     1          
    20  Na    c      0.0000       3.3808 *    -3.3808 *  0.0000     1          
    21  Cl    c      2.2539 *     3.3808 *     3.3808 *  0.0000     2          
    22  Na    c      2.2539 *    -3.3808 *    -3.3808 *  0.0000     2          
    23  O     c      0.0000       1.1269 *     5.6347 *  0.0000     1          
    24  O     c      0.0000       5.6347 *     1.1269 *  0.0000     1          
    25  Na    c      0.0000       1.1269 *    -5.6347 *  0.0000     1          
    26  Na    c      0.0000       5.6347 *    -1.1269 *  0.0000     1          
    27  Na    c      0.0000      -1.1269 *     5.6347 *  0.0000     1          
    28  Na    c      0.0000      -5.6347 *     1.1269 *  0.0000     1          
    29  O     c     -4.5078 *     1.1269 *    -3.3808 *  0.0000     2          
    30  O     c     -4.5078 *    -3.3808 *     1.1269 *  0.0000     2          
    31  Na    c     -4.5078 *     1.1269 *     3.3808 *  0.0000     2          
    32  Na    c     -4.5078 *    -3.3808 *    -1.1269 *  0.0000     2          
    33  Na    c     -4.5078 *    -1.1269 *    -3.3808 *  0.0000     2          
    34  Na    c     -4.5078 *     3.3808 *     1.1269 *  0.0000     2          
    35  Cl    c      2.2539 *    -1.1269 *    -5.6347 *  0.0000     2          
    36  Cl    c      2.2539 *    -5.6347 *    -1.1269 *  0.0000     2          
    37  Na    c      2.2539 *     1.1269 *     5.6347 *  0.0000     2          
    38  Na    c      2.2539 *     5.6347 *     1.1269 *  0.0000     2          
    39  O     c      0.0000       5.6347 *    -3.3808 *  0.0000     1          
    40  O     c      0.0000      -3.3808 *     5.6347 *  0.0000     1          
    41  Na    c      0.0000       5.6347 *     3.3808 *  0.0000     1          
    42  Na    c      0.0000      -3.3808 *    -5.6347 *  0.0000     1          
    43  Na    c      0.0000       3.3808 *     5.6347 *  0.0000     1          
    44  Na    c      0.0000      -5.6347 *    -3.3808 *  0.0000     1          
    45  O     c      4.5078 *    -3.3808 *    -3.3808 *  0.0000     2          
    46  Na    c      4.5078 *    -3.3808 *     3.3808 *  0.0000     2          
    47  Na    c      4.5078 *     3.3808 *    -3.3808 *  0.0000     2          
    48  Cl    c      2.2539 *     3.3808 *    -5.6347 *  0.0000     2          
    49  Cl    c      2.2539 *    -5.6347 *     3.3808 *  0.0000     2          
    50  Na    c      2.2539 *     5.6347 *    -3.3808 *  0.0000     2          
    51  Na    c      2.2539 *    -3.3808 *     5.6347 *  0.0000     2          
    52  Cl    c      6.7617 *    -1.1269 *    -1.1269 *  0.0000     2          
    53  Na    c      6.7617 *     1.1269 *     1.1269 *  0.0000     2          
    54  O     c     -4.5078 *     1.1269 *     5.6347 *  0.0000     2          
    55  Na    c     -4.5078 *     1.1269 *    -5.6347 *  0.0000     2          
    56  Na    c     -4.5078 *    -1.1269 *     5.6347 *  0.0000     2          
    57  O     c      4.5078 *     5.6347 *     1.1269 *  0.0000     2          
    58  Na    c      4.5078 *     5.6347 *    -1.1269 *  0.0000     2          
    59  Na    c      4.5078 *    -5.6347 *     1.1269 *  0.0000     2          
    60  Cl    c      6.7617 *    -1.1269 *     3.3808 *  0.0000     2          
    61  Na    c      6.7617 *     1.1269 *    -3.3808 *  0.0000     2          
    62  Cl    c      6.7617 *     3.3808 *    -1.1269 *  0.0000     2          
    63  Na    c      6.7617 *    -3.3808 *     1.1269 *  0.0000     2          
    64  O     c      0.0000       5.6347 *     5.6347 *  0.0000     1          
    65  Na    c      0.0000       5.6347 *    -5.6347 *  0.0000     1          
    66  Na    c      0.0000      -5.6347 *     5.6347 *  0.0000     1          
    67  O     c     -4.5078 *    -3.3808 *     5.6347 *  0.0000     2          
    68  Na    c     -4.5078 *    -3.3808 *    -5.6347 *  0.0000     2          
    69  Na    c     -4.5078 *     3.3808 *     5.6347 *  0.0000     2          
    70  O     c      0.0000       1.1269 *    -7.8886 *  0.0000     1          
    71  O     c      0.0000      -7.8886 *     1.1269 *  0.0000     1          
    72  O     c      4.5078 *     5.6347 *    -3.3808 *  0.0000     2          
    73  Na    c      0.0000       1.1269 *     7.8886 *  0.0000     1          
    74  Na    c      0.0000      -7.8886 *    -1.1269 *  0.0000     1          
    75  Na    c      4.5078 *     5.6347 *     3.3808 *  0.0000     2          
    76  Na    c      0.0000      -1.1269 *    -7.8886 *  0.0000     1          
    77  Na    c      0.0000       7.8886 *     1.1269 *  0.0000     1          
    78  Na    c      4.5078 *    -5.6347 *    -3.3808 *  0.0000     2          
    79  Cl    c      2.2539 *    -5.6347 *    -5.6347 *  0.0000     2          
    80  Na    c      2.2539 *     5.6347 *     5.6347 *  0.0000     2          
    81  Cl    c      2.2539 *    -1.1269 *     7.8886 *  0.0000     2          
    82  Na    c      2.2539 *     1.1269 *    -7.8886 *  0.0000     2          
    83  Cl    c      2.2539 *     7.8886 *    -1.1269 *  0.0000     2          
    84  Cl    c      6.7617 *     3.3808 *     3.3808 *  0.0000     2          
    85  Na    c      2.2539 *    -7.8886 *     1.1269 *  0.0000     2          
    86  Na    c      6.7617 *    -3.3808 *    -3.3808 *  0.0000     2          
    87  O     c      0.0000      -3.3808 *    -7.8886 *  0.0000     1          
    88  O     c      0.0000      -7.8886 *    -3.3808 *  0.0000     1          
    89  Na    c      0.0000      -3.3808 *     7.8886 *  0.0000     1          
    90  Na    c      0.0000      -7.8886 *     3.3808 *  0.0000     1          
    91  Na    c      0.0000       3.3808 *    -7.8886 *  0.0000     1          
    92  Na    c      0.0000       7.8886 *    -3.3808 *  0.0000     1          
    93  Cl    c      2.2539 *     3.3808 *     7.8886 *  0.0000     2          
    94  Cl    c      6.7617 *    -1.1269 *    -5.6347 *  0.0000     2          
    95  Na    c      2.2539 *    -3.3808 *    -7.8886 *  0.0000     2          
    96  Na    c      6.7617 *     1.1269 *     5.6347 *  0.0000     2          
    97  Cl    c      2.2539 *     7.8886 *     3.3808 *  0.0000     2          
    98  Cl    c      6.7617 *    -5.6347 *    -1.1269 *  0.0000     2          
    99  Na    c      2.2539 *    -7.8886 *    -3.3808 *  0.0000     2          
   100  Na    c      6.7617 *     5.6347 *     1.1269 *  0.0000     2          
   101  O     c      4.5078 *     5.6347 *     5.6347 *  0.0000     2          
   102  O     c      4.5078 *    -7.8886 *     1.1269 *  0.0000     2          
   103  O     c      9.0156 *     1.1269 *     1.1269 *  0.0000     2          
   104  O     c     -4.5078 *     1.1269 *    -7.8886 *  0.0000     2          
   105  Na    c      4.5078 *     5.6347 *    -5.6347 *  0.0000     2          
   106  Na    c      4.5078 *    -7.8886 *    -1.1269 *  0.0000     2          
   107  Na    c      9.0156 *     1.1269 *    -1.1269 *  0.0000     2          
   108  Na    c     -4.5078 *     1.1269 *     7.8886 *  0.0000     2          
   109  Na    c      4.5078 *     7.8886 *     1.1269 *  0.0000     2          
   110  Na    c      4.5078 *    -5.6347 *     5.6347 *  0.0000     2          
   111  Na    c      9.0156 *    -1.1269 *     1.1269 *  0.0000     2          
   112  Na    c     -4.5078 *    -1.1269 *    -7.8886 *  0.0000     2          
   113  Cl    c      6.7617 *     3.3808 *    -5.6347 *  0.0000     2          
   114  Na    c      6.7617 *    -3.3808 *     5.6347 *  0.0000     2          
   115  Cl    c      6.7617 *    -5.6347 *     3.3808 *  0.0000     2          
   116  Na    c      6.7617 *     5.6347 *    -3.3808 *  0.0000     2          
   117  O     c      0.0000       5.6347 *    -7.8886 *  0.0000     1          
   118  O     c      0.0000      -7.8886 *     5.6347 *  0.0000     1          
   119  O     c      9.0156 *    -3.3808 *     1.1269 *  0.0000     2          
   120  O     c     -4.5078 *    -3.3808 *    -7.8886 *  0.0000     2          
   121  Na    c      0.0000       5.6347 *     7.8886 *  0.0000     1          
   122  Na    c      0.0000      -7.8886 *    -5.6347 *  0.0000     1          
   123  Na    c      9.0156 *    -3.3808 *    -1.1269 *  0.0000     2          
   124  Na    c     -4.5078 *    -3.3808 *     7.8886 *  0.0000     2          
   125  Na    c      0.0000       7.8886 *     5.6347 *  0.0000     1          
   126  Na    c      0.0000      -5.6347 *    -7.8886 *  0.0000     1          
   127  Na    c      9.0156 *     3.3808 *     1.1269 *  0.0000     2          
   128  Na    c     -4.5078 *     3.3808 *    -7.8886 *  0.0000     2          
   129  O     c      4.5078 *    -7.8886 *    -3.3808 *  0.0000     2          
   130  O     c      9.0156 *     1.1269 *    -3.3808 *  0.0000     2          
   131  Na    c      4.5078 *    -7.8886 *     3.3808 *  0.0000     2          
   132  Na    c      9.0156 *     1.1269 *     3.3808 *  0.0000     2          
   133  Na    c      4.5078 *     7.8886 *    -3.3808 *  0.0000     2          
   134  Na    c      9.0156 *    -1.1269 *    -3.3808 *  0.0000     2          
   135  Cl    c      2.2539 *     7.8886 *    -5.6347 *  0.0000     2          
   136  Cl    c      2.2539 *    -5.6347 *     7.8886 *  0.0000     2          
   137  Na    c      2.2539 *     5.6347 *    -7.8886 *  0.0000     2          
   138  Na    c      2.2539 *    -7.8886 *     5.6347 *  0.0000     2          
   139  O     c      0.0000      10.1425 *     1.1269 *  0.0000     1          
   140  Na    c      0.0000      10.1425 *    -1.1269 *  0.0000     1          
   141  Na    c      0.0000     -10.1425 *     1.1269 *  0.0000     1          
   142  O     c      0.0000       1.1269 *    10.1425 *  0.0000     1          
   143  O     c      9.0156 *    -3.3808 *    -3.3808 *  0.0000     2          
   144  Na    c      0.0000       1.1269 *   -10.1425 *  0.0000     1          
   145  Na    c      9.0156 *    -3.3808 *     3.3808 *  0.0000     2          
   146  Na    c      0.0000      -1.1269 *    10.1425 *  0.0000     1          
   147  Na    c      9.0156 *     3.3808 *    -3.3808 *  0.0000     2          
   148  Cl    c      6.7617 *    -5.6347 *    -5.6347 *  0.0000     2          
   149  Na    c      6.7617 *     5.6347 *     5.6347 *  0.0000     2          
   150  Cl    c      2.2539 *    -1.1269 *   -10.1425 *  0.0000     2          
   151  Cl    c      2.2539 *   -10.1425 *    -1.1269 *  0.0000     2          
   152  Cl    c      6.7617 *    -1.1269 *     7.8886 *  0.0000     2          
   153  Cl    c      6.7617 *     7.8886 *    -1.1269 *  0.0000     2          
   154  Na    c      2.2539 *     1.1269 *    10.1425 *  0.0000     2          
   155  Na    c      2.2539 *    10.1425 *     1.1269 *  0.0000     2          
   156  Na    c      6.7617 *     1.1269 *    -7.8886 *  0.0000     2          
   157  Na    c      6.7617 *    -7.8886 *     1.1269 *  0.0000     2          
   158  O     c      4.5078 *     5.6347 *    -7.8886 *  0.0000     2          
   159  O     c      4.5078 *    -7.8886 *     5.6347 *  0.0000     2          
   160  O     c      9.0156 *     1.1269 *     5.6347 *  0.0000     2          
   161  O     c      9.0156 *     5.6347 *     1.1269 *  0.0000     2          
   162  Na    c      4.5078 *     5.6347 *     7.8886 *  0.0000     2          
   163  Na    c      4.5078 *    -7.8886 *    -5.6347 *  0.0000     2          
   164  Na    c      9.0156 *     1.1269 *    -5.6347 *  0.0000     2          
   165  Na    c      9.0156 *     5.6347 *    -1.1269 *  0.0000     2          
   166  Na    c      4.5078 *     7.8886 *     5.6347 *  0.0000     2          
   167  Na    c      4.5078 *    -5.6347 *    -7.8886 *  0.0000     2          
   168  Na    c      9.0156 *    -1.1269 *     5.6347 *  0.0000     2          
   169  Na    c      9.0156 *    -5.6347 *     1.1269 *  0.0000     2          
   170  O     c      0.0000      10.1425 *    -3.3808 *  0.0000     1          
   171  O     c      0.0000      -3.3808 *    10.1425 *  0.0000     1          
   172  Na    c      0.0000      10.1425 *     3.3808 *  0.0000     1          
   173  Na    c      0.0000      -3.3808 *   -10.1425 *  0.0000     1          
   174  Na    c      0.0000       3.3808 *    10.1425 *  0.0000     1          
   175  Na    c      0.0000     -10.1425 *    -3.3808 *  0.0000     1          
   176  Cl    c      2.2539 *     3.3808 *   -10.1425 *  0.0000     2          
   177  Cl    c      2.2539 *   -10.1425 *     3.3808 *  0.0000     2          
   178  Cl    c      6.7617 *     7.8886 *     3.3808 *  0.0000     2          
   179  Na    c      2.2539 *    10.1425 *    -3.3808 *  0.0000     2          
   180  Na    c      2.2539 *    -3.3808 *    10.1425 *  0.0000     2          
   181  Na    c      6.7617 *    -7.8886 *    -3.3808 *  0.0000     2          
   182  Cl    c      6.7617 *     3.3808 *     7.8886 *  0.0000     2          
   183  Na    c      6.7617 *    -3.3808 *    -7.8886 *  0.0000     2          
   184  O     c      9.0156 *    -3.3808 *     5.6347 *  0.0000     2          
   185  O     c     -4.5078 *    10.1425 *     1.1269 *  0.0000     2          
   186  Na    c      9.0156 *    -3.3808 *    -5.6347 *  0.0000     2          
   187  Na    c     -4.5078 *    10.1425 *    -1.1269 *  0.0000     2          
   188  Na    c      9.0156 *     3.3808 *     5.6347 *  0.0000     2          
   189  Na    c     -4.5078 *   -10.1425 *     1.1269 *  0.0000     2          
   190  O     c      0.0000      -7.8886 *    -7.8886 *  0.0000     1          
   191  O     c      4.5078 *     1.1269 *    10.1425 *  0.0000     2          
   192  O     c      9.0156 *     5.6347 *    -3.3808 *  0.0000     2          
   193  Na    c      0.0000      -7.8886 *     7.8886 *  0.0000     1          
   194  Na    c      4.5078 *     1.1269 *   -10.1425 *  0.0000     2          
   195  Na    c      9.0156 *     5.6347 *     3.3808 *  0.0000     2          
   196  Na    c      0.0000       7.8886 *    -7.8886 *  0.0000     1          
   197  Na    c      4.5078 *    -1.1269 *    10.1425 *  0.0000     2          
   198  Na    c      9.0156 *    -5.6347 *    -3.3808 *  0.0000     2          
   199  Cl    c     11.2695 *    -1.1269 *    -1.1269 *  0.0000     2          
   200  Na    c     11.2695 *     1.1269 *     1.1269 *  0.0000     2          
   201  Cl    c      2.2539 *     7.8886 *     7.8886 *  0.0000     2          
   202  Na    c      2.2539 *    -7.8886 *    -7.8886 *  0.0000     2          
   203  O     c      0.0000       5.6347 *    10.1425 *  0.0000     1          
   204  O     c      0.0000      10.1425 *     5.6347 *  0.0000     1          
   205  O     c     -4.5078 *    10.1425 *    -3.3808 *  0.0000     2          
   206  Na    c      0.0000       5.6347 *   -10.1425 *  0.0000     1          
   207  Na    c      0.0000      10.1425 *    -5.6347 *  0.0000     1          
   208  Na    c     -4.5078 *    10.1425 *     3.3808 *  0.0000     2          
   209  Na    c      0.0000      -5.6347 *    10.1425 *  0.0000     1          
   210  Na    c      0.0000     -10.1425 *     5.6347 *  0.0000     1          
   211  Na    c     -4.5078 *   -10.1425 *    -3.3808 *  0.0000     2          
   212  O     c      4.5078 *    -3.3808 *    10.1425 *  0.0000     2          
   213  Na    c      4.5078 *    -3.3808 *   -10.1425 *  0.0000     2          
   214  Na    c      4.5078 *     3.3808 *    10.1425 *  0.0000     2          
   215  Cl    c     11.2695 *    -1.1269 *     3.3808 *  0.0000     2          
   216  Cl    c     11.2695 *     3.3808 *    -1.1269 *  0.0000     2          
   217  Na    c     11.2695 *     1.1269 *    -3.3808 *  0.0000     2          
   218  Na    c     11.2695 *    -3.3808 *     1.1269 *  0.0000     2          
   219  Cl    c      2.2539 *    -5.6347 *   -10.1425 *  0.0000     2          
   220  Cl    c      2.2539 *   -10.1425 *    -5.6347 *  0.0000     2          
   221  Cl    c      6.7617 *     7.8886 *    -5.6347 *  0.0000     2          
   222  Na    c      2.2539 *     5.6347 *    10.1425 *  0.0000     2          
   223  Na    c      2.2539 *    10.1425 *     5.6347 *  0.0000     2          
   224  Na    c      6.7617 *    -7.8886 *     5.6347 *  0.0000     2          
   225  Cl    c      6.7617 *    -5.6347 *     7.8886 *  0.0000     2          
   226  Na    c      6.7617 *     5.6347 *    -7.8886 *  0.0000     2          
   227  O     c      9.0156 *     5.6347 *     5.6347 *  0.0000     2          
   228  O     c      9.0156 *    -7.8886 *     1.1269 *  0.0000     2          
   229  Na    c      9.0156 *     5.6347 *    -5.6347 *  0.0000     2          
   230  Na    c      9.0156 *    -7.8886 *    -1.1269 *  0.0000     2          
   231  Na    c      9.0156 *     7.8886 *     1.1269 *  0.0000     2          
   232  Na    c      9.0156 *    -5.6347 *     5.6347 *  0.0000     2          
   233  O     c      4.5078 *    -7.8886 *    -7.8886 *  0.0000     2          
   234  O     c      9.0156 *     1.1269 *    -7.8886 *  0.0000     2          
   235  Na    c      4.5078 *    -7.8886 *     7.8886 *  0.0000     2          
   236  Na    c      9.0156 *     1.1269 *     7.8886 *  0.0000     2          
   237  Na    c      4.5078 *     7.8886 *    -7.8886 *  0.0000     2          
   238  Na    c      9.0156 *    -1.1269 *    -7.8886 *  0.0000     2          
   239  Cl    c     11.2695 *     3.3808 *     3.3808 *  0.0000     2          
   240  Na    c     11.2695 *    -3.3808 *    -3.3808 *  0.0000     2          
   241  Cl    c      6.7617 *   -10.1425 *    -1.1269 *  0.0000     2          
   242  Na    c      6.7617 *    10.1425 *     1.1269 *  0.0000     2          
   243  Cl    c      6.7617 *    -1.1269 *   -10.1425 *  0.0000     2          
   244  Na    c      6.7617 *     1.1269 *    10.1425 *  0.0000     2          
   245  O     c      0.0000       1.1269 *   -12.3964 *  0.0000     1          
   246  O     c      0.0000     -12.3964 *     1.1269 *  0.0000     1          
   247  O     c      9.0156 *    -7.8886 *    -3.3808 *  0.0000     2          
   248  O     c     -4.5078 *    10.1425 *     5.6347 *  0.0000     2          
   249  Na    c      0.0000       1.1269 *    12.3964 *  0.0000     1          
   250  Na    c      0.0000     -12.3964 *    -1.1269 *  0.0000     1          
   251  Na    c      9.0156 *    -7.8886 *     3.3808 *  0.0000     2          
   252  Na    c     -4.5078 *    10.1425 *    -5.6347 *  0.0000     2          
   253  Na    c      0.0000      -1.1269 *   -12.3964 *  0.0000     1          
   254  Na    c      0.0000      12.3964 *     1.1269 *  0.0000     1          
   255  Na    c      9.0156 *     7.8886 *    -3.3808 *  0.0000     2          
   256  Na    c     -4.5078 *   -10.1425 *     5.6347 *  0.0000     2          
   257  O     c      4.5078 *     5.6347 *    10.1425 *  0.0000     2          
   258  O     c      9.0156 *    -3.3808 *    -7.8886 *  0.0000     2          
   259  Na    c      4.5078 *     5.6347 *   -10.1425 *  0.0000     2          
   260  Na    c      9.0156 *    -3.3808 *     7.8886 *  0.0000     2          
   261  Na    c      4.5078 *    -5.6347 *    10.1425 *  0.0000     2          
   262  Na    c      9.0156 *     3.3808 *    -7.8886 *  0.0000     2          
   263  Cl    c     11.2695 *    -1.1269 *    -5.6347 *  0.0000     2          
   264  Cl    c     11.2695 *    -5.6347 *    -1.1269 *  0.0000     2          
   265  Na    c     11.2695 *     1.1269 *     5.6347 *  0.0000     2          
   266  Na    c     11.2695 *     5.6347 *     1.1269 *  0.0000     2          
   267  Cl    c      2.2539 *    -1.1269 *    12.3964 *  0.0000     2          
   268  Cl    c      2.2539 *    12.3964 *    -1.1269 *  0.0000     2          
   269  Cl    c      6.7617 *   -10.1425 *     3.3808 *  0.0000     2          
   270  Na    c      2.2539 *     1.1269 *   -12.3964 *  0.0000     2          
   271  Na    c      2.2539 *   -12.3964 *     1.1269 *  0.0000     2          
   272  Na    c      6.7617 *    10.1425 *    -3.3808 *  0.0000     2          
   273  Cl    c      6.7617 *     3.3808 *   -10.1425 *  0.0000     2          
   274  Na    c      6.7617 *    -3.3808 *    10.1425 *  0.0000     2          
   275  O     c      0.0000      -3.3808 *   -12.3964 *  0.0000     1          
   276  O     c      0.0000     -12.3964 *    -3.3808 *  0.0000     1          
   277  Na    c      0.0000      -3.3808 *    12.3964 *  0.0000     1          
   278  Na    c      0.0000     -12.3964 *     3.3808 *  0.0000     1          
   279  Na    c      0.0000       3.3808 *   -12.3964 *  0.0000     1          
   280  Na    c      0.0000      12.3964 *    -3.3808 *  0.0000     1          
   281  O     c      0.0000      10.1425 *    -7.8886 *  0.0000     1          
   282  O     c      0.0000      -7.8886 *    10.1425 *  0.0000     1          
   283  Na    c      0.0000      10.1425 *     7.8886 *  0.0000     1          
   284  Na    c      0.0000      -7.8886 *   -10.1425 *  0.0000     1          
   285  Na    c      0.0000       7.8886 *    10.1425 *  0.0000     1          
   286  Na    c      0.0000     -10.1425 *    -7.8886 *  0.0000     1          
   287  O     s      0.0000       1.1269 *     1.1269 *  0.0000     1          
   288  Cl    s      2.2539 *    -1.1269 *    -1.1269 *  0.0000     2          
   289  O     s      0.0000       1.1269 *    -3.3808 *  0.0000     1          
   290  O     s      0.0000      -3.3808 *     1.1269 *  0.0000     1          
   291  Cl    s      2.2539 *    -1.1269 *     3.3808 *  0.0000     2          
   292  Cl    s      2.2539 *     3.3808 *    -1.1269 *  0.0000     2          
   293  O     s     -4.5078 *     1.1269 *     1.1269 *  0.0000     2          
   294  O     s      0.0000      -3.3808 *    -3.3808 *  0.0000     1          
   295  Cl    s      2.2539 *     3.3808 *     3.3808 *  0.0000     2          
   296  O     s      0.0000       1.1269 *     5.6347 *  0.0000     1          
   297  O     s      0.0000       5.6347 *     1.1269 *  0.0000     1          
   298  O     s     -4.5078 *     1.1269 *    -3.3808 *  0.0000     2          
   299  O     s     -4.5078 *    -3.3808 *     1.1269 *  0.0000     2          
   300  Cl    s      2.2539 *    -1.1269 *    -5.6347 *  0.0000     2          
   301  Cl    s      2.2539 *    -5.6347 *    -1.1269 *  0.0000     2          
   302  O     s      0.0000       5.6347 *    -3.3808 *  0.0000     1          
   303  O     s      0.0000      -3.3808 *     5.6347 *  0.0000     1          
   304  O     s      4.5078 *    -3.3808 *    -3.3808 *  0.0000     2          
   305  Cl    s      2.2539 *     3.3808 *    -5.6347 *  0.0000     2          
   306  Cl    s      2.2539 *    -5.6347 *     3.3808 *  0.0000     2          
   307  Cl    s      6.7617 *    -1.1269 *    -1.1269 *  0.0000     2          
   308  O     s     -4.5078 *     1.1269 *     5.6347 *  0.0000     2          
   309  O     s      4.5078 *     5.6347 *     1.1269 *  0.0000     2          
   310  Cl    s      6.7617 *    -1.1269 *     3.3808 *  0.0000     2          
   311  Cl    s      6.7617 *     3.3808 *    -1.1269 *  0.0000     2          
   312  O     s      0.0000       5.6347 *     5.6347 *  0.0000     1          
   313  O     s     -4.5078 *    -3.3808 *     5.6347 *  0.0000     2          
   314  O     s      0.0000       1.1269 *    -7.8886 *  0.0000     1          
   315  O     s      0.0000      -7.8886 *     1.1269 *  0.0000     1          
   316  O     s      4.5078 *     5.6347 *    -3.3808 *  0.0000     2          
   317  Cl    s      2.2539 *    -5.6347 *    -5.6347 *  0.0000     2          
   318  Cl    s      2.2539 *    -1.1269 *     7.8886 *  0.0000     2          
   319  Cl    s      2.2539 *     7.8886 *    -1.1269 *  0.0000     2          
   320  Cl    s      6.7617 *     3.3808 *     3.3808 *  0.0000     2          
   321  O     s      0.0000      -3.3808 *    -7.8886 *  0.0000     1          
   322  O     s      0.0000      -7.8886 *    -3.3808 *  0.0000     1          
   323  Cl    s      2.2539 *     3.3808 *     7.8886 *  0.0000     2          
   324  Cl    s      6.7617 *    -1.1269 *    -5.6347 *  0.0000     2          
   325  Cl    s      2.2539 *     7.8886 *     3.3808 *  0.0000     2          
   326  Cl    s      6.7617 *    -5.6347 *    -1.1269 *  0.0000     2          
   327  O     s      4.5078 *     5.6347 *     5.6347 *  0.0000     2          
   328  O     s      4.5078 *    -7.8886 *     1.1269 *  0.0000     2          
   329  O     s      9.0156 *     1.1269 *     1.1269 *  0.0000     2          
   330  O     s     -4.5078 *     1.1269 *    -7.8886 *  0.0000     2          
   331  Cl    s      6.7617 *     3.3808 *    -5.6347 *  0.0000     2          
   332  Cl    s      6.7617 *    -5.6347 *     3.3808 *  0.0000     2          
   333  O     s      0.0000       5.6347 *    -7.8886 *  0.0000     1          
   334  O     s      0.0000      -7.8886 *     5.6347 *  0.0000     1          
   335  O     s      9.0156 *    -3.3808 *     1.1269 *  0.0000     2          
   336  O     s     -4.5078 *    -3.3808 *    -7.8886 *  0.0000     2          
   337  O     s      4.5078 *    -7.8886 *    -3.3808 *  0.0000     2          
   338  O     s      9.0156 *     1.1269 *    -3.3808 *  0.0000     2          
   339  Cl    s      2.2539 *     7.8886 *    -5.6347 *  0.0000     2          
   340  Cl    s      2.2539 *    -5.6347 *     7.8886 *  0.0000     2          
   341  O     s      0.0000      10.1425 *     1.1269 *  0.0000     1          
   342  O     s      0.0000       1.1269 *    10.1425 *  0.0000     1          
   343  O     s      9.0156 *    -3.3808 *    -3.3808 *  0.0000     2          
   344  Cl    s      6.7617 *    -5.6347 *    -5.6347 *  0.0000     2          
   345  Cl    s      2.2539 *    -1.1269 *   -10.1425 *  0.0000     2          
   346  Cl    s      2.2539 *   -10.1425 *    -1.1269 *  0.0000     2          
   347  Cl    s      6.7617 *    -1.1269 *     7.8886 *  0.0000     2          
   348  Cl    s      6.7617 *     7.8886 *    -1.1269 *  0.0000     2          
   349  O     s      4.5078 *     5.6347 *    -7.8886 *  0.0000     2          
   350  O     s      4.5078 *    -7.8886 *     5.6347 *  0.0000     2          
   351  O     s      9.0156 *     1.1269 *     5.6347 *  0.0000     2          
   352  O     s      9.0156 *     5.6347 *     1.1269 *  0.0000     2          
   353  O     s      0.0000      10.1425 *    -3.3808 *  0.0000     1          
   354  O     s      0.0000      -3.3808 *    10.1425 *  0.0000     1          
   355  Cl    s      2.2539 *     3.3808 *   -10.1425 *  0.0000     2          
   356  Cl    s      2.2539 *   -10.1425 *     3.3808 *  0.0000     2          
   357  Cl    s      6.7617 *     7.8886 *     3.3808 *  0.0000     2          
   358  Cl    s      6.7617 *     3.3808 *     7.8886 *  0.0000     2          
   359  O     s      9.0156 *    -3.3808 *     5.6347 *  0.0000     2          
   360  O     s     -4.5078 *    10.1425 *     1.1269 *  0.0000     2          
   361  O     s      0.0000      -7.8886 *    -7.8886 *  0.0000     1          
   362  O     s      4.5078 *     1.1269 *    10.1425 *  0.0000     2          
   363  O     s      9.0156 *     5.6347 *    -3.3808 *  0.0000     2          
   364  Cl    s     11.2695 *    -1.1269 *    -1.1269 *  0.0000     2          
   365  Cl    s      2.2539 *     7.8886 *     7.8886 *  0.0000     2          
   366  O     s      0.0000       5.6347 *    10.1425 *  0.0000     1          
   367  O     s      0.0000      10.1425 *     5.6347 *  0.0000     1          
   368  O     s     -4.5078 *    10.1425 *    -3.3808 *  0.0000     2          
   369  O     s      4.5078 *    -3.3808 *    10.1425 *  0.0000     2          
   370  Cl    s     11.2695 *    -1.1269 *     3.3808 *  0.0000     2          
   371  Cl    s     11.2695 *     3.3808 *    -1.1269 *  0.0000     2          
   372  Cl    s      2.2539 *    -5.6347 *   -10.1425 *  0.0000     2          
   373  Cl    s      2.2539 *   -10.1425 *    -5.6347 *  0.0000     2          
   374  Cl    s      6.7617 *     7.8886 *    -5.6347 *  0.0000     2          
   375  Cl    s      6.7617 *    -5.6347 *     7.8886 *  0.0000     2          
   376  O     s      9.0156 *     5.6347 *     5.6347 *  0.0000     2          
   377  O     s      9.0156 *    -7.8886 *     1.1269 *  0.0000     2          
   378  O     s      4.5078 *    -7.8886 *    -7.8886 *  0.0000     2          
   379  O     s      9.0156 *     1.1269 *    -7.8886 *  0.0000     2          
   380  Cl    s     11.2695 *     3.3808 *     3.3808 *  0.0000     2          
   381  Cl    s      6.7617 *   -10.1425 *    -1.1269 *  0.0000     2          
   382  Cl    s      6.7617 *    -1.1269 *   -10.1425 *  0.0000     2          
   383  O     s      0.0000       1.1269 *   -12.3964 *  0.0000     1          
   384  O     s      0.0000     -12.3964 *     1.1269 *  0.0000     1          
   385  O     s      9.0156 *    -7.8886 *    -3.3808 *  0.0000     2          
   386  O     s     -4.5078 *    10.1425 *     5.6347 *  0.0000     2          
   387  O     s      4.5078 *     5.6347 *    10.1425 *  0.0000     2          
   388  O     s      9.0156 *    -3.3808 *    -7.8886 *  0.0000     2          
   389  Cl    s     11.2695 *    -1.1269 *    -5.6347 *  0.0000     2          
   390  Cl    s     11.2695 *    -5.6347 *    -1.1269 *  0.0000     2          
   391  Cl    s      2.2539 *    -1.1269 *    12.3964 *  0.0000     2          
   392  Cl    s      2.2539 *    12.3964 *    -1.1269 *  0.0000     2          
   393  Cl    s      6.7617 *   -10.1425 *     3.3808 *  0.0000     2          
   394  Cl    s      6.7617 *     3.3808 *   -10.1425 *  0.0000     2          
   395  O     s      0.0000      -3.3808 *   -12.3964 *  0.0000     1          
   396  O     s      0.0000     -12.3964 *    -3.3808 *  0.0000     1          
   397  O     s      0.0000      10.1425 *    -7.8886 *  0.0000     1          
   398  O     s      0.0000      -7.8886 *    10.1425 *  0.0000     1          
--------------------------------------------------------------------------------

  Components of defect energy : 

--------------------------------------------------------------------------------
  Region 1 - region 1                   =      8.19360502 eV
  Region 1 - region 2a (unrelaxed)      =      0.24250129 eV
  Region 1 - 2a (relaxed - correction)  =     -0.41912140 eV
  Region 1 (Total)                      =      8.01698491 eV
  Region 2a                             =      0.20948666 eV
  Region 2b                             =     -0.32841597 eV
--------------------------------------------------------------------------------
  Total defect energy                   =      7.89805560 eV
--------------------------------------------------------------------------------

  Largest displacement in region 2 =   0.0221 Angstroms


  Number of variables =     1081

  Maximum number of calculations  =        1000
  Maximum Hessian update interval =          10
  Maximum step size               =   1.0000000
  Maximum parameter tolerance     =   0.0000100
  Maximum function  tolerance     =   0.0000100
  Maximum gradient  tolerance     =   0.0010000

  Symmetry adapted optimisation

  Symmetry to be used for second derivatives

  Newton-Raphson optimiser to be used

  BFGS hessian update to be used

  Lower half triangular hessian to be used

  Start of defect optimisation :

  Cycle:      0 Defect Energy:   7.898056  Gnorm:     0.015284  CPU:    7.193
  ** Hessian calculated **
  Cycle:      1 Defect Energy:   6.200320  Gnorm:     0.005801  CPU:   18.997
  Cycle:      2 Defect Energy:   5.668435  Gnorm:     0.004944  CPU:   33.510
  Cycle:      3 Defect Energy:   5.546852  Gnorm:     0.002945  CPU:   43.033
  Cycle:      4 Defect Energy:   5.498544  Gnorm:     0.002884  CPU:   45.533
  Cycle:      5 Defect Energy:   5.432324  Gnorm:     0.002551  CPU:   47.875
  Cycle:      6 Defect Energy:   5.343264  Gnorm:     0.002202  CPU:   50.329
  Cycle:      7 Defect Energy:   5.232773  Gnorm:     0.002143  CPU:   52.649
  Cycle:      8 Defect Energy:   5.141661  Gnorm:     0.001870  CPU:   54.899
  Cycle:      9 Defect Energy:   5.073150  Gnorm:     0.001976  CPU:   57.200
  Cycle:     10 Defect Energy:   5.007214  Gnorm:     0.002036  CPU:   59.581
  ** Hessian calculated **
  Cycle:     11 Defect Energy:   4.940360  Gnorm:     0.001934  CPU:   69.020
  Cycle:     12 Defect Energy:   4.880722  Gnorm:     0.001812  CPU:   71.775
  Cycle:     13 Defect Energy:   4.857931  Gnorm:     0.001780  CPU:   74.278
  ** Hessian calculated **
  Cycle:     14 Defect Energy:   4.667574  Gnorm:     0.001279  CPU:   80.430
  Cycle:     15 Defect Energy:   4.571673  Gnorm:     0.000947  CPU:   82.918
  Cycle:     16 Defect Energy:   4.615586  Gnorm:     0.001293  CPU:   85.300
  Cycle:     17 Defect Energy:   4.600322  Gnorm:     0.001189  CPU:   87.549
  ** Hessian calculated **
  Cycle:     18 Defect Energy:   4.585467  Gnorm:     0.000775  CPU:   93.023
  Cycle:     19 Defect Energy:   4.571239  Gnorm:     0.000676  CPU:   95.179
  Cycle:     20 Defect Energy:   4.558484  Gnorm:     0.000670  CPU:  100.866
  Cycle:     21 Defect Energy:   4.548001  Gnorm:     0.000630  CPU:  103.496
  Cycle:     22 Defect Energy:   4.541275  Gnorm:     0.000614  CPU:  106.228
  Cycle:     23 Defect Energy:   4.535478  Gnorm:     0.000614  CPU:  108.780
  Cycle:     24 Defect Energy:   4.530034  Gnorm:     0.000609  CPU:  111.429
  Cycle:     25 Defect Energy:   4.524722  Gnorm:     0.000594  CPU:  113.818
  Cycle:     26 Defect Energy:   4.519472  Gnorm:     0.000585  CPU:  116.272
  Cycle:     27 Defect Energy:   4.513650  Gnorm:     0.000577  CPU:  118.607
  ** Hessian calculated **
  Cycle:     28 Defect Energy:   4.505557  Gnorm:     0.000548  CPU:  124.244
  Cycle:     29 Defect Energy:   4.493959  Gnorm:     0.000509  CPU:  126.497
  Cycle:     30 Defect Energy:   4.476536  Gnorm:     0.000453  CPU:  128.621
  Cycle:     31 Defect Energy:   4.454716  Gnorm:     0.000404  CPU:  130.801
  Cycle:     32 Defect Energy:   4.449331  Gnorm:     0.000603  CPU:  136.629
  ** Hessian calculated **
  Cycle:     33 Defect Energy:   4.445418  Gnorm:     0.000341  CPU:  143.277
  Cycle:     34 Defect Energy:   4.443124  Gnorm:     0.000265  CPU:  145.806
  Cycle:     35 Defect Energy:   4.440616  Gnorm:     0.000251  CPU:  148.317
  Cycle:     36 Defect Energy:   4.438207  Gnorm:     0.000247  CPU:  150.759
  Cycle:     37 Defect Energy:   4.436185  Gnorm:     0.000249  CPU:  153.165
  Cycle:     38 Defect Energy:   4.434356  Gnorm:     0.000265  CPU:  155.490
  Cycle:     39 Defect Energy:   4.432504  Gnorm:     0.000279  CPU:  157.855
  Cycle:     40 Defect Energy:   4.430557  Gnorm:     0.000282  CPU:  160.141
  Cycle:     41 Defect Energy:   4.428259  Gnorm:     0.000302  CPU:  162.458
  Cycle:     42 Defect Energy:   4.425609  Gnorm:     0.000317  CPU:  164.636
  ** Hessian calculated **
  Cycle:     43 Defect Energy:   4.424790  Gnorm:     0.000302  CPU:  174.556
  Cycle:     44 Defect Energy:   4.423726  Gnorm:     0.000295  CPU:  177.185
  Cycle:     45 Defect Energy:   4.422233  Gnorm:     0.000287  CPU:  179.847
  Cycle:     46 Defect Energy:   4.420192  Gnorm:     0.000280  CPU:  182.391
  Cycle:     47 Defect Energy:   4.417392  Gnorm:     0.000275  CPU:  184.943
  Cycle:     48 Defect Energy:   4.413699  Gnorm:     0.000280  CPU:  187.446
  Cycle:     49 Defect Energy:   4.408742  Gnorm:     0.000315  CPU:  189.758
  Cycle:     50 Defect Energy:   4.402766  Gnorm:     0.000370  CPU:  192.131
  Cycle:     51 Defect Energy:   4.397567  Gnorm:     0.000438  CPU:  194.365
  Cycle:     52 Defect Energy:   4.393275  Gnorm:     0.000488  CPU:  196.643
  ** Hessian calculated **
  Cycle:     53 Defect Energy:   4.389962  Gnorm:     0.000452  CPU:  202.266
  Cycle:     54 Defect Energy:   4.385585  Gnorm:     0.000441  CPU:  208.046
  Cycle:     55 Defect Energy:   4.379711  Gnorm:     0.000425  CPU:  210.657
  Cycle:     56 Defect Energy:   4.372149  Gnorm:     0.000417  CPU:  213.345
  Cycle:     57 Defect Energy:   4.362673  Gnorm:     0.000424  CPU:  215.850
  Cycle:     58 Defect Energy:   4.351665  Gnorm:     0.000463  CPU:  218.395
  Cycle:     59 Defect Energy:   4.340549  Gnorm:     0.000539  CPU:  220.783
  Cycle:     60 Defect Energy:   4.326876  Gnorm:     0.000633  CPU:  223.215
  Cycle:     61 Defect Energy:   4.313020  Gnorm:     0.000748  CPU:  225.492
  Cycle:     62 Defect Energy:   4.301199  Gnorm:     0.000818  CPU:  227.891
  ** Hessian calculated **
  Cycle:     63 Defect Energy:   4.292828  Gnorm:     0.000775  CPU:  233.464
  Cycle:     64 Defect Energy:   4.281696  Gnorm:     0.000749  CPU:  235.625
  Cycle:     65 Defect Energy:   4.267138  Gnorm:     0.000716  CPU:  237.677
  Cycle:     66 Defect Energy:   4.248920  Gnorm:     0.000679  CPU:  243.699
  Cycle:     67 Defect Energy:   4.231754  Gnorm:     0.000665  CPU:  246.395
  Cycle:     68 Defect Energy:   4.219402  Gnorm:     0.000663  CPU:  249.255
  Cycle:     69 Defect Energy:   4.208639  Gnorm:     0.000696  CPU:  251.813
  Cycle:     70 Defect Energy:   4.196974  Gnorm:     0.000727  CPU:  254.414
  Cycle:     71 Defect Energy:   4.185085  Gnorm:     0.000765  CPU:  256.826
  Cycle:     72 Defect Energy:   4.172306  Gnorm:     0.000800  CPU:  259.271
  ** Hessian calculated **
  Cycle:     73 Defect Energy:   4.167319  Gnorm:     0.000778  CPU:  264.999
  Cycle:     74 Defect Energy:   4.160552  Gnorm:     0.000769  CPU:  267.223
  Cycle:     75 Defect Energy:   4.151546  Gnorm:     0.000746  CPU:  269.482
  Cycle:     76 Defect Energy:   4.140000  Gnorm:     0.000730  CPU:  271.578
  Cycle:     77 Defect Energy:   4.126392  Gnorm:     0.000731  CPU:  273.597
  Cycle:     78 Defect Energy:   4.115131  Gnorm:     0.000730  CPU:  279.818
  Cycle:     79 Defect Energy:   4.106698  Gnorm:     0.000756  CPU:  282.501
  Cycle:     80 Defect Energy:   4.099460  Gnorm:     0.000755  CPU:  285.309
  Cycle:     81 Defect Energy:   4.092994  Gnorm:     0.000777  CPU:  287.837
  Cycle:     82 Defect Energy:   4.085791  Gnorm:     0.000788  CPU:  290.589
  ** Hessian calculated **
  Cycle:     83 Defect Energy:   4.053410  Gnorm:     0.000699  CPU:  296.569
  Cycle:     84 Defect Energy:   4.009108  Gnorm:     0.000533  CPU:  298.895
  Cycle:     85 Defect Energy:   3.982120  Gnorm:     0.000360  CPU:  301.187
  Cycle:     86 Defect Energy:   3.970698  Gnorm:     0.000252  CPU:  303.457
  Cycle:     87 Defect Energy:   3.965118  Gnorm:     0.000163  CPU:  305.730
  Cycle:     88 Defect Energy:   3.962334  Gnorm:     0.000104  CPU:  307.897
  Cycle:     89 Defect Energy:   3.961377  Gnorm:     0.000068  CPU:  312.742
  Cycle:     90 Defect Energy:   3.961019  Gnorm:     0.000046  CPU:  316.306
  Cycle:     91 Defect Energy:   3.960817  Gnorm:     0.000033  CPU:  319.137
  Cycle:     92 Defect Energy:   3.960747  Gnorm:     0.000020  CPU:  321.745
  ** Hessian calculated **
  Cycle:     93 Defect Energy:   3.960717  Gnorm:     0.000014  CPU:  328.037
  Cycle:     94 Defect Energy:   3.960703  Gnorm:     0.000010  CPU:  330.427


  **** Optimisation achieved ****


  Final defect energy  =        3.96069667
  Final defect Gnorm   =        0.00000670

  Components of defect energy : 

--------------------------------------------------------------------------------
  Region 1 - region 1                   =      5.29950014 eV
  Region 1 - region 2a (unrelaxed)      =     -0.83080094 eV
  Region 1 - 2a (relaxed - correction)  =     -0.35975532 eV
  Region 1 (Total)                      =      4.10894388 eV
  Region 2a                             =      0.17969082 eV
  Region 2b                             =     -0.32793803 eV
--------------------------------------------------------------------------------
  Total defect energy                   =      3.96069667 eV
--------------------------------------------------------------------------------

  Largest displacement in region 2 =   0.0221 Angstroms

  Final coordinates of region 1 :

--------------------------------------------------------------------------------
   No.  Atomic        x           y           z          Radius      Charge
        Label       (Angs)      (Angs)      (Angs)       (Angs)       (e) 
--------------------------------------------------------------------------------
     1  Na    c     2.253894    1.938349    0.315545    0.000000    1.000000
     2  O     c     2.253894    2.386561    2.442064    0.000000    0.183000
     3  Cl    c     4.591269    0.024563   -0.106843    0.000000    1.485000
     4  Cl    c    -0.083482    0.024563   -0.106843    0.000000    1.485000
     5  Na    c     4.450419    1.995684    2.399968    0.000000    1.000000
     6  Na    c     0.057368    1.995684    2.399968    0.000000    1.000000
     7  O     c     2.253894    2.186116   -2.112890    0.000000    0.183000
     8  O     c     2.253894   -2.418408    2.302685    0.000000    0.183000
     9  Na    c     2.253894    1.687564    4.526447    0.000000    1.000000
    10  Na    c     2.253894   -2.555486    0.077655    0.000000    1.000000
    11  Na    c     2.253894   -0.058207   -1.914960    0.000000    1.000000
    12  Na    c     2.253894    4.558869    2.676574    0.000000    1.000000
    13  Cl    c     4.604976   -0.017298    4.588560    0.000000    1.485000
    14  Cl    c    -0.097189   -0.017298    4.588560    0.000000    1.485000
    15  Cl    c     4.567666    4.606889   -0.086298    0.000000    1.485000
    16  Cl    c    -0.059879    4.606889   -0.086298    0.000000    1.485000
    17  Na    c     4.495803    2.316419   -2.054737    0.000000    1.000000
    18  Na    c     0.011984    2.316419   -2.054737    0.000000    1.000000
    19  Na    c     4.390500   -1.805023    2.220290    0.000000    1.000000
    20  Na    c     0.117287   -1.805023    2.220290    0.000000    1.000000
    21  O     c    -2.235000    2.248991    2.277034    0.000000    0.183000
    22  O     c     6.742787    2.248991    2.277034    0.000000    0.183000
    23  Na    c    -2.248007    1.873641    0.031025    0.000000    1.000000
    24  Na    c     6.755795    1.873641    0.031025    0.000000    1.000000
    25  Na    c    -2.462176    0.010904    2.643631    0.000000    1.000000
    26  Na    c     6.969963    0.010904    2.643631    0.000000    1.000000
    27  O     c     2.253894   -2.292070   -2.228305    0.000000    0.183000
    28  Na    c     2.253894   -1.814797    4.452364    0.000000    1.000000
    29  Na    c     2.253894    4.444009   -2.332046    0.000000    1.000000
    30  Cl    c     4.605329    4.576748    4.590602    0.000000    1.485000
    31  Cl    c    -0.097542    4.576748    4.590602    0.000000    1.485000
    32  Na    c     4.509320   -2.352263   -2.220344    0.000000    1.000000
    33  Na    c    -0.001533   -2.352263   -2.220344    0.000000    1.000000
    34  O     c     2.253894    2.237508    6.761728    0.000000    0.183000
    35  O     c     2.253894    6.816677    2.277592    0.000000    0.183000
    36  Na    c     2.253894    1.937800   -4.408422    0.000000    1.000000
    37  Na    c     2.253894    6.323853    0.055298    0.000000    1.000000
    38  Na    c     2.253894   -0.005961    7.193217    0.000000    1.000000
    39  Na    c     2.253894   -4.567006    2.687794    0.000000    1.000000
    40  O     c    -2.257674    2.254100   -2.228711    0.000000    0.183000
    41  O     c     6.765461    2.254100   -2.228711    0.000000    0.183000
    42  O     c    -2.196489   -2.217188    2.250337    0.000000    0.183000
    43  O     c     6.704276   -2.217188    2.250337    0.000000    0.183000
    44  Na    c    -2.261692    2.622229    4.517587    0.000000    1.000000
    45  Na    c     6.769479    2.622229    4.517587    0.000000    1.000000
    46  Na    c    -2.202805   -1.883598    0.007679    0.000000    1.000000
    47  Na    c     6.710592   -1.883598    0.007679    0.000000    1.000000
    48  Na    c    -2.091157    0.008434   -2.589565    0.000000    1.000000
    49  Na    c     6.598945    0.008434   -2.589565    0.000000    1.000000
    50  Na    c    -1.982240    4.489104    1.937249    0.000000    1.000000
    51  Na    c     6.490027    4.489104    1.937249    0.000000    1.000000
    52  Cl    c     4.473376   -0.020194   -4.544512    0.000000    1.485000
    53  Cl    c     0.034411   -0.020194   -4.544512    0.000000    1.485000
    54  Cl    c     4.536503   -4.579557   -0.141269    0.000000    1.485000
    55  Cl    c    -0.028716   -4.579557   -0.141269    0.000000    1.485000
    56  Na    c     4.511662    2.310036    6.724003    0.000000    1.000000
    57  Na    c    -0.003874    2.310036    6.724003    0.000000    1.000000
    58  Na    c     4.511610    6.887747    2.241866    0.000000    1.000000
    59  Na    c    -0.003823    6.887747    2.241866    0.000000    1.000000
    60  O     c     2.253894    6.735631   -2.191304    0.000000    0.183000
    61  O     c     2.253894   -2.244386    6.740486    0.000000    0.183000
    62  Na    c     2.253894    7.217756    4.511742    0.000000    1.000000
    63  Na    c     2.253894   -1.921031   -4.475060    0.000000    1.000000
    64  Na    c     2.253894    4.480697    6.279199    0.000000    1.000000
    65  Na    c     2.253894   -4.524686   -2.574105    0.000000    1.000000
    66  O     c     6.772207   -2.242380   -2.244466    0.000000    0.183000
    67  O     c    -2.264420   -2.242380   -2.244466    0.000000    0.183000
    68  Na    c     6.650471   -2.576065    4.489282    0.000000    1.000000
    69  Na    c    -2.142684   -2.576065    4.489282    0.000000    1.000000
    70  Na    c     6.807406    4.501570   -1.865451    0.000000    1.000000
    71  Na    c    -2.299618    4.501570   -1.865451    0.000000    1.000000
    72  Cl    c     4.483905    4.500112   -4.488429    0.000000    1.485000
    73  Cl    c     0.023882    4.500112   -4.488429    0.000000    1.485000
    74  Cl    c     4.570425   -4.602358    4.602987    0.000000    1.485000
    75  Cl    c    -0.062638   -4.602358    4.602987    0.000000    1.485000
    76  Na    c     4.514489    6.692325   -2.141237    0.000000    1.000000
    77  Na    c    -0.006702    6.692325   -2.141237    0.000000    1.000000
    78  Na    c     4.504946   -2.281787    6.731829    0.000000    1.000000
    79  Na    c     0.002841   -2.281787    6.731829    0.000000    1.000000
    80  Cl    c     9.024055   -0.006140    0.035266    0.000000    1.485000
    81  Cl    c    -4.516268   -0.006140    0.035266    0.000000    1.485000
    82  Na    c     8.999296    2.486339    2.199590    0.000000    1.000000
    83  Na    c    -4.491509    2.486339    2.199590    0.000000    1.000000
    84  O     c    -2.267288    2.259746    6.763811    0.000000    0.183000
    85  O     c     6.775076    2.259746    6.763811    0.000000    0.183000
    86  Na    c    -2.215622    2.620344   -4.468713    0.000000    1.000000
    87  Na    c     6.723410    2.620344   -4.468713    0.000000    1.000000
    88  Na    c    -2.174744    0.005682    6.463417    0.000000    1.000000
    89  Na    c     6.682531    0.005682    6.463417    0.000000    1.000000
    90  O     c     6.768187    6.740158    2.251354    0.000000    0.183000
    91  O     c    -2.260400    6.740158    2.251354    0.000000    0.183000
    92  Na    c     6.833283    7.062793    0.001247    0.000000    1.000000
    93  Na    c    -2.325495    7.062793    0.001247    0.000000    1.000000
    94  Na    c     6.409712   -4.462029    1.977420    0.000000    1.000000
    95  Na    c    -1.901925   -4.462029    1.977420    0.000000    1.000000
    96  Cl    c     9.041054    0.021681    4.596306    0.000000    1.485000
    97  Cl    c    -4.533266    0.021681    4.596306    0.000000    1.485000
    98  Na    c     9.012026    2.143717   -2.239875    0.000000    1.000000
    99  Na    c    -4.504239    2.143717   -2.239875    0.000000    1.000000
   100  Cl    c     9.048198    4.514273    0.037929    0.000000    1.485000
   101  Cl    c    -4.540411    4.514273    0.037929    0.000000    1.485000
   102  Na    c     8.970696   -2.473617    2.194147    0.000000    1.000000
   103  Na    c    -4.462909   -2.473617    2.194147    0.000000    1.000000
   104  O     c     2.253894    6.736822    6.738663    0.000000    0.183000
   105  Na    c     2.253894    7.006189   -4.442546    0.000000    1.000000
   106  Na    c     2.253894   -4.499299    6.344901    0.000000    1.000000
   107  O     c    -2.258108   -2.250073    6.746134    0.000000    0.183000
   108  O     c     6.765895   -2.250073    6.746134    0.000000    0.183000
   109  Na    c    -2.327494   -2.571822   -4.483392    0.000000    1.000000
   110  Na    c     6.835281   -2.571822   -4.483392    0.000000    1.000000
   111  Na    c    -2.358951    4.503629    7.056448    0.000000    1.000000
   112  Na    c     6.866738    4.503629    7.056448    0.000000    1.000000
   113  O     c     2.253894    2.257093   -6.703766    0.000000    0.183000
   114  O     c     2.253894   -6.810531    2.259704    0.000000    0.183000
   115  O     c     6.781258    6.751569   -2.255046    0.000000    0.183000
   116  O     c    -2.273471    6.751569   -2.255046    0.000000    0.183000
   117  Na    c     2.253894    2.645436    8.990797    0.000000    1.000000
   118  Na    c     2.253894   -6.384146    0.012228    0.000000    1.000000
   119  Na    c     6.724916    6.477416    4.509602    0.000000    1.000000
   120  Na    c    -2.217129    6.477416    4.509602    0.000000    1.000000
   121  Na    c     2.253894    0.009524   -6.994277    0.000000    1.000000
   122  Na    c     2.253894    9.036642    1.836537    0.000000    1.000000
   123  Na    c     6.811923   -4.498404   -1.939052    0.000000    1.000000
   124  Na    c    -2.304135   -4.498404   -1.939052    0.000000    1.000000
   125  Cl    c     4.529378   -4.505346   -4.542379    0.000000    1.485000
   126  Cl    c    -0.021591   -4.505346   -4.542379    0.000000    1.485000
   127  Na    c     4.515315    6.636756    6.740093    0.000000    1.000000
[...]
    318 y          0.000000     -0.009364    -0.009364    Cartesian    0.00
    318 z          9.015574      9.056883     0.041308    Cartesian    0.46
    319 x          4.507787      4.535563     0.027776    Cartesian    0.62
    319 y          9.015574      9.035474     0.019900    Cartesian    0.22
    319 z          0.000000      0.012197     0.012197    Cartesian    0.00
    320 x          9.015574      9.051275     0.035701    Cartesian    0.40
    320 y          4.507787      4.529327     0.021540    Cartesian    0.48
    320 z          4.507787      4.539067     0.031280    Cartesian    0.69
    321 x          2.253894      2.253894     0.000000    Cartesian    0.00
    321 y         -2.253894     -2.253080     0.000814    Cartesian   -0.04
    321 z         -6.761681     -6.732547     0.029134    Cartesian   -0.43
    322 x          2.253894      2.253894     0.000000    Cartesian    0.00
    322 y         -6.761681     -6.767855    -0.006174    Cartesian    0.09
    322 z         -2.253894     -2.245241     0.008653    Cartesian   -0.38
    323 x          4.507787      4.529136     0.021349    Cartesian    0.47
    323 y          4.507787      4.515863     0.008076    Cartesian    0.18
    323 z          9.015574      9.040138     0.024563    Cartesian    0.27
    324 x          9.015574      9.056522     0.040948    Cartesian    0.45
    324 y          0.000000     -0.022365    -0.022365    Cartesian    0.00
    324 z         -4.507787     -4.523264    -0.015477    Cartesian    0.34
    325 x          4.507787      4.552579     0.044792    Cartesian    0.99
    325 y          9.015574      9.071324     0.055749    Cartesian    0.62
    325 z          4.507787      4.510302     0.002515    Cartesian    0.06
    326 x          9.015574      9.069665     0.054090    Cartesian    0.60
    326 y         -4.507787     -4.546797    -0.039009    Cartesian    0.87
    326 z          0.000000      0.014355     0.014355    Cartesian    0.00
    327 x          6.761681      6.777993     0.016312    Cartesian    0.24
    327 y          6.761681      6.755521    -0.006160    Cartesian   -0.09
    327 z          6.761681      6.766600     0.004919    Cartesian    0.07
    328 x          6.761681      6.750420    -0.011261    Cartesian   -0.17
    328 y         -6.761681     -6.724667     0.037013    Cartesian   -0.55
    328 z          2.253894      2.244733    -0.009160    Cartesian   -0.41
    329 x         11.269468     11.258142    -0.011326    Cartesian   -0.10
    329 y          2.253894      2.253024    -0.000870    Cartesian   -0.04
    329 z          2.253894      2.241904    -0.011990    Cartesian   -0.53
    330 x         -2.253894     -2.260901    -0.007008    Cartesian    0.31
    330 y          2.253894      2.260624     0.006731    Cartesian    0.30
    330 z         -6.761681     -6.726393     0.035288    Cartesian   -0.52
    331 x          9.015574      9.043226     0.027651    Cartesian    0.31
    331 y          4.507787      4.550974     0.043187    Cartesian    0.96
    331 z         -4.507787     -4.560456    -0.052668    Cartesian    1.17
    332 x          9.015574      9.040814     0.025239    Cartesian    0.28
    332 y         -4.507787     -4.516556    -0.008769    Cartesian    0.19
    332 z          4.507787      4.539804     0.032017    Cartesian    0.71
    333 x          2.253894      2.253894     0.000000    Cartesian    0.00
    333 y          6.761681      6.742760    -0.018921    Cartesian   -0.28
    333 z         -6.761681     -6.716920     0.044761    Cartesian   -0.66
    334 x          2.253894      2.253894     0.000000    Cartesian    0.00
    334 y         -6.761681     -6.756141     0.005540    Cartesian   -0.08
    334 z          6.761681      6.738269    -0.023412    Cartesian   -0.35
    335 x         11.269468     11.244190    -0.025278    Cartesian   -0.22
    335 y         -2.253894     -2.246886     0.007008    Cartesian   -0.31
    335 z          2.253894      2.245453    -0.008440    Cartesian   -0.37
    336 x         -2.253894     -2.257440    -0.003546    Cartesian    0.16
    336 y         -2.253894     -2.249390     0.004503    Cartesian   -0.20
    336 z         -6.761681     -6.734843     0.026838    Cartesian   -0.40
    337 x          6.761681      6.780365     0.018684    Cartesian    0.28
    337 y         -6.761681     -6.757137     0.004543    Cartesian   -0.07
    337 z         -2.253894     -2.247699     0.006195    Cartesian   -0.27
    338 x         11.269468     11.271780     0.002312    Cartesian    0.02
    338 y          2.253894      2.241299    -0.012595    Cartesian   -0.56
    338 z         -2.253894     -2.248153     0.005740    Cartesian   -0.25
    339 x          4.507787      4.539438     0.031650    Cartesian    0.70
    339 y          9.015574      9.057953     0.042378    Cartesian    0.47
    339 z         -4.507787     -4.532779    -0.024992    Cartesian    0.55
    340 x          4.507787      4.512738     0.004951    Cartesian    0.11
    340 y         -4.507787     -4.523868    -0.016080    Cartesian    0.36
    340 z          9.015574      9.051048     0.035473    Cartesian    0.39
    341 x          2.253894      2.253894     0.000000    Cartesian    0.00
    341 y         11.269468     11.260938    -0.008530    Cartesian   -0.08
    341 z          2.253894      2.239146    -0.014747    Cartesian   -0.65
    342 x          2.253894      2.253894     0.000000    Cartesian    0.00
    342 y          2.253894      2.246522    -0.007372    Cartesian   -0.33
    342 z         11.269468     11.240639    -0.028829    Cartesian   -0.26
    343 x         11.269468     11.271503     0.002034    Cartesian    0.02
    343 y         -2.253894     -2.219485     0.034409    Cartesian   -1.53
    343 z         -2.253894     -2.251532     0.002362    Cartesian   -0.10
    344 x          9.015574      9.051889     0.036315    Cartesian    0.40
    344 y         -4.507787     -4.543734    -0.035947    Cartesian    0.80
    344 z         -4.507787     -4.544404    -0.036617    Cartesian    0.81
    345 x          4.507787      4.557140     0.049353    Cartesian    1.09
    345 y          0.000000      0.012493     0.012493    Cartesian    0.00
    345 z         -9.015574     -9.054712    -0.039138    Cartesian    0.43
    346 x          4.507787      4.502213    -0.005574    Cartesian   -0.12
    346 y         -9.015574     -9.045300    -0.029725    Cartesian    0.33
    346 z          0.000000      0.001663     0.001663    Cartesian    0.00
    347 x          9.015574      9.026054     0.010479    Cartesian    0.12
    347 y          0.000000      0.009120     0.009120    Cartesian    0.00
    347 z          9.015574      9.068680     0.053106    Cartesian    0.59
    348 x          9.015574      9.046235     0.030661    Cartesian    0.34
    348 y          9.015574      9.070259     0.054684    Cartesian    0.61
    348 z          0.000000      0.009594     0.009594    Cartesian    0.00
    349 x          6.761681      6.763646     0.001965    Cartesian    0.03
    349 y          6.761681      6.735120    -0.026561    Cartesian   -0.39
    349 z         -6.761681     -6.754958     0.006722    Cartesian   -0.10
    350 x          6.761681      6.774684     0.013003    Cartesian    0.19
    350 y         -6.761681     -6.746965     0.014716    Cartesian   -0.22
    350 z          6.761681      6.771592     0.009911    Cartesian    0.15
    351 x         11.269468     11.273796     0.004328    Cartesian    0.04
    351 y          2.253894      2.258281     0.004387    Cartesian    0.19
    351 z          6.761681      6.736085    -0.025596    Cartesian   -0.38
    352 x         11.269468     11.270648     0.001180    Cartesian    0.01
    352 y          6.761681      6.737407    -0.024273    Cartesian   -0.36
    352 z          2.253894      2.233464    -0.020430    Cartesian   -0.91
    353 x          2.253894      2.253894     0.000000    Cartesian    0.00
    353 y         11.269468     11.253524    -0.015944    Cartesian   -0.14
    353 z         -2.253894     -2.231044     0.022849    Cartesian   -1.01
    354 x          2.253894      2.253894     0.000000    Cartesian    0.00
    354 y         -2.253894     -2.253538     0.000355    Cartesian   -0.02
    354 z         11.269468     11.230198    -0.039270    Cartesian   -0.35
    355 x          4.507787      4.499467    -0.008320    Cartesian   -0.18
    355 y          4.507787      4.524281     0.016494    Cartesian    0.37
    355 z         -9.015574     -9.025768    -0.010194    Cartesian    0.11
    356 x          4.507787      4.549260     0.041473    Cartesian    0.92
    356 y         -9.015574     -9.063086    -0.047512    Cartesian    0.53
    356 z          4.507787      4.486985    -0.020803    Cartesian   -0.46
    357 x          9.015574      9.026581     0.011006    Cartesian    0.12
    357 y          9.015574      9.086911     0.071336    Cartesian    0.79
    357 z          4.507787      4.540279     0.032492    Cartesian    0.72
    358 x          9.015574      9.072325     0.056750    Cartesian    0.63
    358 y          4.507787      4.524424     0.016637    Cartesian    0.37
    358 z          9.015574      9.049599     0.034024    Cartesian    0.38
    359 x         11.269468     11.272072     0.002604    Cartesian    0.02
    359 y         -2.253894     -2.250399     0.003495    Cartesian   -0.16
    359 z          6.761681      6.730120    -0.031561    Cartesian   -0.47
    360 x         -2.253894     -2.266524    -0.012631    Cartesian    0.56
    360 y         11.269468     11.258267    -0.011201    Cartesian   -0.10
    360 z          2.253894      2.264771     0.010878    Cartesian    0.48
    361 x          2.253894      2.253894     0.000000    Cartesian    0.00
    361 y         -6.761681     -6.772188    -0.010508    Cartesian    0.16
    361 z         -6.761681     -6.724348     0.037333    Cartesian   -0.55
    362 x          6.761681      6.766566     0.004885    Cartesian    0.07
    362 y          2.253894      2.238710    -0.015183    Cartesian   -0.67
    362 z         11.269468     11.263945    -0.005523    Cartesian   -0.05
    363 x         11.269468     11.267061    -0.002407    Cartesian   -0.02
    363 y          6.761681      6.754980    -0.006701    Cartesian   -0.10
    363 z         -2.253894     -2.246997     0.006897    Cartesian   -0.31
    364 x         13.523362     13.578380     0.055018    Cartesian    0.41
    364 y          0.000000      0.001891     0.001891    Cartesian    0.00
    364 z          0.000000      0.018354     0.018354    Cartesian    0.00
    365 x          4.507787      4.516281     0.008493    Cartesian    0.19
    365 y          9.015574      9.043388     0.027813    Cartesian    0.31
    365 z          9.015574      9.052533     0.036959    Cartesian    0.41
    366 x          2.253894      2.253894     0.000000    Cartesian    0.00
    366 y          6.761681      6.716393    -0.045288    Cartesian   -0.67
    366 z         11.269468     11.261662    -0.007806    Cartesian   -0.07
    367 x          2.253894      2.253894     0.000000    Cartesian    0.00
    367 y         11.269468     11.241147    -0.028321    Cartesian   -0.25
    367 z          6.761681      6.783478     0.021797    Cartesian    0.32
    368 x         -2.253894     -2.248806     0.005088    Cartesian   -0.23
    368 y         11.269468     11.255679    -0.013789    Cartesian   -0.12
    368 z         -2.253894     -2.270345    -0.016451    Cartesian    0.73
    369 x          6.761681      6.770675     0.008994    Cartesian    0.13
    369 y         -2.253894     -2.235136     0.018758    Cartesian   -0.83
    369 z         11.269468     11.261014    -0.008454    Cartesian   -0.08
    370 x         13.523362     13.586750     0.063388    Cartesian    0.47
    370 y          0.000000     -0.006746    -0.006746    Cartesian    0.00
    370 z          4.507787      4.476220    -0.031567    Cartesian   -0.70
    371 x         13.523362     13.581771     0.058409    Cartesian    0.43
    371 y          4.507787      4.501751    -0.006036    Cartesian   -0.13
    371 z          0.000000     -0.038877    -0.038877    Cartesian    0.00
    372 x          4.507787      4.504959    -0.002828    Cartesian   -0.06
    372 y         -4.507787     -4.537668    -0.029881    Cartesian    0.66
    372 z         -9.015574     -9.049016    -0.033442    Cartesian    0.37
    373 x          4.507787      4.544035     0.036248    Cartesian    0.80
    373 y         -9.015574     -9.055488    -0.039914    Cartesian    0.44
    373 z         -4.507787     -4.529595    -0.021808    Cartesian    0.48
    374 x          9.015574      9.039843     0.024269    Cartesian    0.27
    374 y          9.015574      9.055428     0.039854    Cartesian    0.44
    374 z         -4.507787     -4.513492    -0.005705    Cartesian    0.13
    375 x          9.015574      9.068212     0.052637    Cartesian    0.58
    375 y         -4.507787     -4.520725    -0.012938    Cartesian    0.29
    375 z          9.015574      9.045528     0.029953    Cartesian    0.33
    376 x         11.269468     11.272163     0.002695    Cartesian    0.02
    376 y          6.761681      6.753275    -0.008406    Cartesian   -0.12
    376 z          6.761681      6.761828     0.000147    Cartesian    0.00
    377 x         11.269468     11.270639     0.001171    Cartesian    0.01
    377 y         -6.761681     -6.735378     0.026303    Cartesian   -0.39
    377 z          2.253894      2.236138    -0.017756    Cartesian   -0.79
    378 x          6.761681      6.764748     0.003067    Cartesian    0.05
    378 y         -6.761681     -6.742193     0.019488    Cartesian   -0.29
    378 z         -6.761681     -6.775616    -0.013936    Cartesian    0.21
    379 x         11.269468     11.265810    -0.003659    Cartesian   -0.03
    379 y          2.253894      2.263041     0.009148    Cartesian    0.41
    379 z         -6.761681     -6.745556     0.016125    Cartesian   -0.24
    380 x         13.523362     13.557655     0.034294    Cartesian    0.25
    380 y          4.507787      4.508594     0.000807    Cartesian    0.02
    380 z          4.507787      4.518074     0.010287    Cartesian    0.23
    381 x          9.015574      9.078018     0.062444    Cartesian    0.69
    381 y         -9.015574     -9.046002    -0.030428    Cartesian    0.34
    381 z          0.000000     -0.009382    -0.009382    Cartesian    0.00
    382 x          9.015574      8.982105    -0.033470    Cartesian   -0.37
    382 y          0.000000     -0.004825    -0.004825    Cartesian    0.00
    382 z         -9.015574     -9.066491    -0.050917    Cartesian    0.56
    383 x          2.253894      2.253894     0.000000    Cartesian    0.00
    383 y          2.253894      2.275833     0.021940    Cartesian    0.97
    383 z        -11.269468    -11.244482     0.024986    Cartesian   -0.22
    384 x          2.253894      2.253894     0.000000    Cartesian    0.00
    384 y        -11.269468    -11.269771    -0.000303    Cartesian    0.00
    384 z          2.253894      2.224626    -0.029268    Cartesian   -1.30
    385 x         11.269468     11.265263    -0.004205    Cartesian   -0.04
    385 y         -6.761681     -6.763807    -0.002126    Cartesian    0.03
    385 z         -2.253894     -2.250438     0.003455    Cartesian   -0.15
    386 x         -2.253894     -2.253920    -0.000026    Cartesian    0.00
    386 y         11.269468     11.280505     0.011037    Cartesian    0.10
    386 z          6.761681      6.754813    -0.006867    Cartesian   -0.10
    387 x          6.761681      6.764451     0.002771    Cartesian    0.04
    387 y          6.761681      6.774335     0.012654    Cartesian    0.19
    387 z         11.269468     11.258223    -0.011245    Cartesian   -0.10
    388 x         11.269468     11.274523     0.005055    Cartesian    0.04
    388 y         -2.253894     -2.255439    -0.001545    Cartesian    0.07
    388 z         -6.761681     -6.747609     0.014072    Cartesian   -0.21
    389 x         13.523362     13.574542     0.051180    Cartesian    0.38
    389 y          0.000000      0.002321     0.002321    Cartesian    0.00
    389 z         -4.507787     -4.546679    -0.038892    Cartesian    0.86
    390 x         13.523362     13.567850     0.044488    Cartesian    0.33
    390 y         -4.507787     -4.503109     0.004679    Cartesian   -0.10
    390 z          0.000000     -0.019786    -0.019786    Cartesian    0.00
    391 x          4.507787      4.516272     0.008485    Cartesian    0.19
    391 y          0.000000      0.002633     0.002633    Cartesian    0.00
    391 z         13.523362     13.594925     0.071563    Cartesian    0.53
    392 x          4.507787      4.501889    -0.005898    Cartesian   -0.13
    392 y         13.523362     13.553709     0.030347    Cartesian    0.22
    392 z          0.000000     -0.015977    -0.015977    Cartesian    0.00
    393 x          9.015574      8.983113    -0.032461    Cartesian   -0.36
    393 y         -9.015574     -9.086615    -0.071041    Cartesian    0.79
    393 z          4.507787      4.524796     0.017009    Cartesian    0.38
    394 x          9.015574      9.080680     0.065106    Cartesian    0.72
    394 y          4.507787      4.521101     0.013314    Cartesian    0.30
    394 z         -9.015574     -9.050420    -0.034846    Cartesian    0.39
    395 x          2.253894      2.253894     0.000000    Cartesian    0.00
    395 y         -2.253894     -2.266679    -0.012785    Cartesian    0.57
    395 z        -11.269468    -11.247802     0.021666    Cartesian   -0.19
    396 x          2.253894      2.253894     0.000000    Cartesian    0.00
    396 y        -11.269468    -11.284459    -0.014991    Cartesian    0.13
    396 z         -2.253894     -2.237379     0.016515    Cartesian   -0.73
    397 x          2.253894      2.253894     0.000000    Cartesian    0.00
    397 y         11.269468     11.253736    -0.015732    Cartesian   -0.14
    397 z         -6.761681     -6.773279    -0.011598    Cartesian    0.17
    398 x          2.253894      2.253894     0.000000    Cartesian    0.00
    398 y         -6.761681     -6.746205     0.015476    Cartesian   -0.23
    398 z         11.269468     11.283211     0.013743    Cartesian    0.12
--------------------------------------------------------------------------------


  Time to end of optimisation  =      332.8159 seconds


  Peak dynamic memory used =     144.25 MB 


  Timing analysis for GULP :

--------------------------------------------------------------------------------
  Task / Subroutine                                          Time (Seconds)
--------------------------------------------------------------------------------
  Calculation of reciprocal space energy and derivatives          0.0008
  Calculation of reciprocal space energy using symmetry           0.0012
  Calculation of real space energy and derivatives                0.0045
  Calculation of real space energy using symmetry                 0.0106
  Calculation for region 1 energy and derivatives (2-b)         113.6814
  Calculation for region 2a energy                              205.8967
  Calculation for region 2b energy                                0.0302
  Calculation and manipulation of Hessian matrix                  0.3520
  Calculation of matrix inversion                                12.0372
  Symmetry generation of equivalent positions                     0.0053
--------------------------------------------------------------------------------
  Total CPU time                                                332.8160
--------------------------------------------------------------------------------


  Dump file written as Na3OCl.grs


  Job Finished at 18:35.34  3rd December   2020                               

