********************************************************************************
*                       GENERAL UTILITY LATTICE PROGRAM                        *
*                                 Julian Gale                                  *
*                       Curtin Institute for Computation                       *
*                    School of Molecular and Life Sciences                     *
*                    Curtin University, Western Australia                      *
********************************************************************************
* Version = 5.2.0 * Last modified =  10th September 2020                       *
********************************************************************************
*  optimise     - perform optimisation run                                     *
*  conp         - constant pressure calculation                                *
*  property     - calculate properties for final geometry                      *
*  defect       - perform defect calculation after bulk run                    *
*  compare      - compare initial and final structures                         *
********************************************************************************

  Job Started  at 18:39.31 26th November   2020                               

  Number of CPUs =     1


  Total number of configurations input =      1

********************************************************************************
*  Input for Configuration =   1                                               *
********************************************************************************

  Formula = ClONa3                                                      

  Number of irreducible atoms/shells =       5


  Total number atoms/shells =       7

  Dimensionality = 3               :  Bulk   


  Symmetry :

  Crystal family                   :  Cubic       
  Crystal class  (Groth - 1921)    :  Cubic Hexakisoctahedral              

  Space group (centrosymmetric)    :  P M 3 M         

  Patterson group                  :  P m -3 m 

  Cartesian lattice vectors (Angstroms) :

        4.504000    0.000000    0.000000
        0.000000    4.504000    0.000000
        0.000000    0.000000    4.504000

  Cell parameters (Angstroms/Degrees):

  a =       4.5040    alpha =  90.0000
  b =       4.5040    beta  =  90.0000
  c =       4.5040    gamma =  90.0000

  Initial cell volume =          91.368216 Angs**3

  Temperature of configuration =   0.00     K 

  Pressure of configuration =         0.000 GPa 

  Fractional coordinates of asymmetric unit :

--------------------------------------------------------------------------------
   No.  Atomic       x           y          z         Charge      Occupancy
        Label      (Frac)      (Frac)     (Frac)        (e)         (Frac)  
--------------------------------------------------------------------------------
      1 Cl    c    0.000000    0.000000    0.000000     1.48500    1.000000    
      2 O     c    0.500000    0.500000    0.500000     0.18300    1.000000    
      3 Na    c    0.500000    0.500000    0.000000     1.00000    1.000000    
      4 Cl    s    0.000000    0.000000    0.000000    -2.48500    1.000000    
      5 O     s    0.500000    0.500000    0.500000    -2.18300    1.000000    
--------------------------------------------------------------------------------


  Constraints : 

--------------------------------------------------------------------------------
  Constraint no.      Unconstrained     Constrained    Coefficient    Offset
                         Variable         Variable
--------------------------------------------------------------------------------
           1              Strain 1        Strain 2       1.00000      0.0000
           2              Strain 1        Strain 3       1.00000      0.0000
--------------------------------------------------------------------------------


********************************************************************************
*  General input information                                                   *
********************************************************************************

  Species output for all configurations : 

--------------------------------------------------------------------------------
  Species    Type    Atomic    Atomic    Charge       Radii (Angs)     Library
                     Number     Mass       (e)     Cova   Ionic  VDW   Symbol
--------------------------------------------------------------------------------
    Na       Core       11      22.99   1.000000   0.970  0.000  2.300          
    O        Core        8      16.00   0.183000   0.730  0.000  1.360          
    O        Shell       8       0.00  -2.183000   0.730  0.000  1.360          
    Cl       Core       17      35.45   1.485000   0.990  0.000  1.650          
    Cl       Shell      17       0.00  -2.485000   0.990  0.000  1.650          
--------------------------------------------------------------------------------


  Lattice summation method               =    Ewald          (3-D)
                                         =    Parry          (2-D)
                                         =    Saunders et al (1-D)
  Accuracy factor for lattice sums       =   12.000


  Analytic derivatives to be used

  Time limit = Infinity

  Maximum range for interatomic potentials =    100000.000000 Angstroms

  General interatomic potentials :

--------------------------------------------------------------------------------
Atom  Types   Potential      Parameter       Value         Units   Cutoffs(Ang)
  1     2                                                            Min /  Max 
--------------------------------------------------------------------------------
O    c O    s Spring (c-s)  Spring k 2       593.72000    eV*Ang^-2 0.000  0.800
                            Spring k 4       0.0000000    eV*Ang^-4 
--------------------------------------------------------------------------------
Cl   c Cl   s Spring (c-s)  Spring k 2       29.380000    eV*Ang^-2 0.000  0.800
                            Spring k 4       0.0000000    eV*Ang^-4 
--------------------------------------------------------------------------------
Na   c Na   c Buckingham    Buckingham A     1788.1900    eV        0.000 12.000
                            Buckingham rho  0.15900000    Ang       
                            Buckingham C     0.0000000    eV*Ang^6  
--------------------------------------------------------------------------------
Na   c O    s Buckingham    Buckingham A     1226.8400    eV        0.000 12.000
                            Buckingham rho  0.30700000    Ang       
                            Buckingham C     0.0000000    eV*Ang^6  
--------------------------------------------------------------------------------
Na   c Cl   s Buckingham    Buckingham A     2314.7000    eV        0.000 12.000
                            Buckingham rho  0.29000000    Ang       
                            Buckingham C     0.0000000    eV*Ang^6  
--------------------------------------------------------------------------------
O    s O    s Buckingham    Buckingham A     22764.300    eV        0.000 12.000
                            Buckingham rho  0.14900000    Ang       
                            Buckingham C     13.190000    eV*Ang^6  
--------------------------------------------------------------------------------
O    s Cl   s Buckingham    Buckingham A     8286.9100    eV        0.000 12.000
                            Buckingham rho  0.25900000    Ang       
                            Buckingham C     62.200000    eV*Ang^6  
--------------------------------------------------------------------------------
Cl   s Cl   s Buckingham    Buckingham A     1227.2000    eV        0.000 12.000
                            Buckingham rho  0.32100000    Ang       
                            Buckingham C     14.530000    eV*Ang^6  
--------------------------------------------------------------------------------

********************************************************************************
*  Output for configuration   1                                                *
********************************************************************************


  Components of energy : 

--------------------------------------------------------------------------------
  Interatomic potentials     =           5.13022605 eV    
  Monopole - monopole (real) =         -10.03624526 eV    
  Monopole - monopole (recip)=         -29.53581274 eV    
  Monopole - monopole (total)=         -39.57205800 eV    
--------------------------------------------------------------------------------
  Total lattice energy       =         -34.44183194 eV    
--------------------------------------------------------------------------------
  Total lattice energy       =           -3323.1103 kJ/(mole unit cells)
--------------------------------------------------------------------------------


  Number of variables =        1

  Maximum number of calculations  =          1000
  Maximum Hessian update interval =            10
  Maximum step size               =   1.000000000
  Maximum parameter tolerance     =   0.000010000
  Maximum function  tolerance     =   0.000010000
  Maximum gradient  tolerance     =   0.001000000
  Maximum gradient  component     =   0.010000000

  Symmetry constrained optimisation

  Symmetry used for second derivatives

  Cell parameters to be optimised using strains

  Newton-Raphson optimiser to be used

  BFGS hessian update to be used

  Lower half triangular hessian to be used

  Start of bulk optimisation :

  Cycle:      0 Energy:       -34.441832  Gnorm:      0.196570  CPU:    0.013
  ** Hessian calculated **
  Cycle:      1 Energy:       -34.441914  Gnorm:      0.000103  CPU:    0.017


  **** Optimisation achieved ****


  Final energy =     -34.44191447 eV
  Final Gnorm  =       0.00000000

  Components of energy : 

--------------------------------------------------------------------------------
  Interatomic potentials     =           5.09689708 eV    
  Monopole - monopole (real) =         -10.02781331 eV    
  Monopole - monopole (recip)=         -29.51099824 eV    
  Monopole - monopole (total)=         -39.53881155 eV    
--------------------------------------------------------------------------------
  Total lattice energy       =         -34.44191447 eV    
--------------------------------------------------------------------------------
  Total lattice energy       =           -3323.1183 kJ/(mole unit cells)
--------------------------------------------------------------------------------

  Final asymmetric unit coordinates :

--------------------------------------------------------------------------------
   No.  Atomic        x           y           z         Radius
        Label       (Frac)      (Frac)      (Frac)       (Angs) 
--------------------------------------------------------------------------------
     1  Cl    c     0.000000    0.000000    0.000000    0.000000
     2  O     c     0.500000    0.500000    0.500000    0.000000
     3  Na    c     0.500000    0.500000    0.000000    0.000000
     4  Cl    s     0.000000    0.000000    0.000000    0.000000
     5  O     s     0.500000    0.500000    0.500000    0.000000
--------------------------------------------------------------------------------

  Final Cartesian lattice vectors (Angstroms) :

        4.507787    0.000000    0.000000
        0.000000    4.507787    0.000000
        0.000000    0.000000    4.507787


  Final cell parameters and derivatives :

--------------------------------------------------------------------------------
       a            4.507787 Angstrom     dE/de1(xx)     0.000000 eV/strain
       b            4.507787 Angstrom     dE/de2(yy)     0.000000 eV/strain
       c            4.507787 Angstrom     dE/de3(zz)     0.000000 eV/strain
       alpha       90.000000 Degrees      dE/de4(yz)     0.000000 eV/strain
       beta        90.000000 Degrees      dE/de5(xz)     0.000000 eV/strain
       gamma       90.000000 Degrees      dE/de6(xy)     0.000000 eV/strain
--------------------------------------------------------------------------------

  Primitive cell volume =            91.598892 Angs**3

  Density of cell =      2.183054 g/cm**3

  Non-primitive cell volume =            91.598892 Angs**3


  Final internal derivatives :

--------------------------------------------------------------------------------
   No.  Atomic          a             b             c           Radius
        Label          (eV)          (eV)          (eV)        (eV/Angs)
--------------------------------------------------------------------------------
      1 Cl    c       0.000000      0.000000      0.000000      0.000000
      2 O     c       0.000000      0.000000      0.000000      0.000000
      3 Na    c       0.000000      0.000000      0.000000      0.000000
      4 Cl    s       0.000000      0.000000      0.000000      0.000000
      5 O     s       0.000000      0.000000      0.000000      0.000000
--------------------------------------------------------------------------------
  Maximum abs         0.000000      0.000000      0.000000      0.000000
--------------------------------------------------------------------------------

  Comparison of initial and final structures : 

--------------------------------------------------------------------------------
  Parameter   Initial value   Final value   Difference    Units      Percent
--------------------------------------------------------------------------------
    Volume        91.368216     91.598892     0.230676    Angs**3      0.25
    a              4.504000      4.507787     0.003787    Angstroms    0.08
    b              4.504000      4.507787     0.003787    Angstroms    0.08
    c              4.504000      4.507787     0.003787    Angstroms    0.08
    alpha         90.000000     90.000000     0.000000    Degrees      0.00
    beta          90.000000     90.000000     0.000000    Degrees      0.00
    gamma         90.000000     90.000000     0.000000    Degrees      0.00
      1 x          0.000000      0.000000     0.000000    Fractional   0.00
      1 y          0.000000      0.000000     0.000000    Fractional   0.00
      1 z          0.000000      0.000000     0.000000    Fractional   0.00
      2 x          0.500000      0.500000     0.000000    Fractional   0.00
      2 y          0.500000      0.500000     0.000000    Fractional   0.00
      2 z          0.500000      0.500000     0.000000    Fractional   0.00
      3 x          0.500000      0.500000     0.000000    Fractional   0.00
      3 y          0.500000      0.500000     0.000000    Fractional   0.00
      3 z          0.000000      0.000000     0.000000    Fractional   0.00
      4 x          0.000000      0.000000     0.000000    Fractional   0.00
      4 y          0.000000      0.000000     0.000000    Fractional   0.00
      4 z          0.000000      0.000000     0.000000    Fractional   0.00
      5 x          0.500000      0.500000     0.000000    Fractional   0.00
      5 y          0.500000      0.500000     0.000000    Fractional   0.00
      5 z          0.500000      0.500000     0.000000    Fractional   0.00
--------------------------------------------------------------------------------


  Born effective charge tensors : 

-------------------------------------------------------------------------------
  Atom             x           y             z
-------------------------------------------------------------------------------
    1 Cl    x      -1.0181     -0.0000      0.0000
            y      -0.0000     -1.0181      0.0000
            z       0.0000      0.0000     -1.0181
-------------------------------------------------------------------------------
    2 O     x      -2.2647      0.0000     -0.0000
            y       0.0000     -2.2647     -0.0000
            z      -0.0000     -0.0000     -2.2647
-------------------------------------------------------------------------------
    3 Na    x       1.2258     -0.0000      0.0000
            y      -0.0000      1.2258     -0.0000
            z       0.0000     -0.0000      0.8313
-------------------------------------------------------------------------------




  Elastic Constant Matrix: (Units=GPa)

-------------------------------------------------------------------------------
  Indices      1         2         3         4         5         6    
-------------------------------------------------------------------------------
       1     95.8177   20.0737   20.0737   -0.0000   -0.0000    0.0000
       2     20.0737   95.8177   20.0737   -0.0000   -0.0000    0.0000
       3     20.0737   20.0737   95.8177   -0.0000   -0.0000    0.0000
       4     -0.0000   -0.0000   -0.0000   20.0737   -0.0000    0.0000
       5     -0.0000   -0.0000   -0.0000   -0.0000   20.0737    0.0000
       6      0.0000    0.0000    0.0000    0.0000    0.0000   20.0737
-------------------------------------------------------------------------------


  Elastic Compliance Matrix: (Units=1/GPa)

-------------------------------------------------------------------------------
  Indices      1         2         3         4         5         6    
-------------------------------------------------------------------------------
       1    0.011253 -0.001949 -0.001949  0.000000  0.000000 -0.000000
       2   -0.001949  0.011253 -0.001949  0.000000  0.000000  0.000000
       3   -0.001949 -0.001949  0.011253  0.000000  0.000000 -0.000000
       4    0.000000  0.000000  0.000000  0.049816  0.000000 -0.000000
       5    0.000000  0.000000  0.000000  0.000000  0.049816 -0.000000
       6   -0.000000  0.000000 -0.000000 -0.000000 -0.000000  0.049816
-------------------------------------------------------------------------------

  Mechanical properties :

-------------------------------------------------------------------------------
  Convention :                    Reuss         Voigt         Hill
-------------------------------------------------------------------------------
  Bulk  Modulus (GPa)     =      45.32174      45.32174      45.32174
  Shear Modulus (GPa)     =      24.72085      27.19304      25.95695
-------------------------------------------------------------------------------
  Velocity S-wave (km/s)  =       3.36511       3.52937       3.44822
  Velocity P-wave (km/s)  =       5.98827       6.11304       6.05098
-------------------------------------------------------------------------------
  Compressibility (1/GPa) =    0.02206447
-------------------------------------------------------------------------------
  Stress axis :                     x             y             z
-------------------------------------------------------------------------------
  Youngs Moduli (GPa)     =      88.86373      88.86373      88.86373
-------------------------------------------------------------------------------
  Poissons Ratio (x)      =                     0.17321       0.17321
  Poissons Ratio (y)      =       0.17321                     0.17321
  Poissons Ratio (z)      =       0.17321       0.17321
-------------------------------------------------------------------------------


  Piezoelectric Strain Matrix: (Units=C/m**2)

-------------------------------------------------------------------------------
  Indices      1         2         3         4         5         6    
-------------------------------------------------------------------------------
       x    -0.00000  -0.00000  -0.00000   0.00000  -0.00000  -0.00000
       y    -0.00000  -0.00000   0.00000  -0.00000   0.00000   0.00000
       z    -0.00000  -0.00000  -0.00000  -0.00000   0.00000   0.00000
-------------------------------------------------------------------------------


  Piezoelectric Stress Matrix: (Units=10**-11 C/N)

-------------------------------------------------------------------------------
  Indices      1         2         3         4         5         6    
-------------------------------------------------------------------------------
       x    -0.00000   0.00000   0.00000   0.00000  -0.00000  -0.00000
       y    -0.00000  -0.00000   0.00000  -0.00000   0.00000   0.00000
       z     0.00000   0.00000  -0.00000  -0.00000   0.00000   0.00000
-------------------------------------------------------------------------------


  Static dielectric constant tensor : 

-------------------------------------------------------------------------------
              x         y         z
-------------------------------------------------------------------------------
       x    22.84729   0.00000   0.00000
       y     0.00000  22.84729  -0.00000
       z     0.00000  -0.00000  22.84729
--------------------------------------------------------------------------------

  High frequency dielectric constant tensor : 

-------------------------------------------------------------------------------
              x         y         z
-------------------------------------------------------------------------------
       x     1.47557   0.00000  -0.00000
       y     0.00000   1.47557  -0.00000
       z    -0.00000  -0.00000   1.47557
-------------------------------------------------------------------------------

  Static refractive indices : 

-------------------------------------------------------------------------------
    1 =    4.77988      2 =    4.77988      3 =    4.77988
-------------------------------------------------------------------------------

  High frequency refractive indices : 

-------------------------------------------------------------------------------
    1 =    1.21473      2 =    1.21473      3 =    1.21473
-------------------------------------------------------------------------------


  Time to end of optimisation =       0.0256 seconds

********************************************************************************
*  Defect calculation for configuration   1 :                                  *
********************************************************************************

  Total number of defects =      3

  Total charge on defect  =  -1.00

  Defect centre is at   0.5000   0.2500   0.2500  Frac

  Region 1 radius =  12.0000      Number of ions =    543

  Number of symmetry inequivalent region 1 ions  =    315

  Region 2 radius =  16.0000      Number of ions =    766

  Number of symmetry inequivalent region 2a ions =    417

  Region 2a mode = 4 : screened electrostatics due to region 1 
                       neglect correction to region 1 forces from 2a
                       region 2a displacements based on defects only

  Region 2a ions will only interact with defects in region 1

  Vacancies:

--------------------------------------------------------------------------------
    Specification type     Symbol/Number         x          y          z
--------------------------------------------------------------------------------
    Fractional                               0.500000   0.500000   0.000000
    Fractional                               0.500000   0.000000   0.500000
--------------------------------------------------------------------------------

  Interstitials:

--------------------------------------------------------------------------------
    Specification type     Symbol/Number         x          y          z
--------------------------------------------------------------------------------
    Atom/Fractional         Na               0.500000   0.340000   0.160000
--------------------------------------------------------------------------------


  Symmetry reduced region 1 (Relative to defect centre) :

--------------------------------------------------------------------------------
   No.   Atomic       x            y             z       Radius  Multiplicity   
         Label      (Angs)       (Angs)        (Angs)    (Angs)     
--------------------------------------------------------------------------------
     1  Na    c      0.0000       0.4057 *    -0.4057 *  0.0000     1    Defect
     2  O     c      0.0000       1.1269 *     1.1269 *  0.0000     1          
     3  Cl    c      2.2539 *    -1.1269 *    -1.1269 *  0.0000     2          
     4  Na    c      2.2539 *     1.1269 *     1.1269 *  0.0000     2          
     5  O     c      0.0000       1.1269 *    -3.3808 *  0.0000     1          
     6  O     c      0.0000      -3.3808 *     1.1269 *  0.0000     1          
     7  Na    c      0.0000       1.1269 *     3.3808 *  0.0000     1          
     8  Na    c      0.0000      -3.3808 *    -1.1269 *  0.0000     1          
     9  Na    c      0.0000      -1.1269 *    -3.3808 *  0.0000     1          
    10  Na    c      0.0000       3.3808 *     1.1269 *  0.0000     1          
    11  Cl    c      2.2539 *    -1.1269 *     3.3808 *  0.0000     2          
    12  Cl    c      2.2539 *     3.3808 *    -1.1269 *  0.0000     2          
    13  Na    c      2.2539 *     1.1269 *    -3.3808 *  0.0000     2          
    14  Na    c      2.2539 *    -3.3808 *     1.1269 *  0.0000     2          
    15  O     c     -4.5078 *     1.1269 *     1.1269 *  0.0000     2          
    16  Na    c     -4.5078 *     1.1269 *    -1.1269 *  0.0000     2          
    17  Na    c     -4.5078 *    -1.1269 *     1.1269 *  0.0000     2          
    18  O     c      0.0000      -3.3808 *    -3.3808 *  0.0000     1          
    19  Na    c      0.0000      -3.3808 *     3.3808 *  0.0000     1          
    20  Na    c      0.0000       3.3808 *    -3.3808 *  0.0000     1          
    21  Cl    c      2.2539 *     3.3808 *     3.3808 *  0.0000     2          
    22  Na    c      2.2539 *    -3.3808 *    -3.3808 *  0.0000     2          
    23  O     c      0.0000       1.1269 *     5.6347 *  0.0000     1          
    24  O     c      0.0000       5.6347 *     1.1269 *  0.0000     1          
    25  Na    c      0.0000       1.1269 *    -5.6347 *  0.0000     1          
    26  Na    c      0.0000       5.6347 *    -1.1269 *  0.0000     1          
    27  Na    c      0.0000      -1.1269 *     5.6347 *  0.0000     1          
    28  Na    c      0.0000      -5.6347 *     1.1269 *  0.0000     1          
    29  O     c     -4.5078 *     1.1269 *    -3.3808 *  0.0000     2          
    30  O     c     -4.5078 *    -3.3808 *     1.1269 *  0.0000     2          
    31  Na    c     -4.5078 *     1.1269 *     3.3808 *  0.0000     2          
    32  Na    c     -4.5078 *    -3.3808 *    -1.1269 *  0.0000     2          
    33  Na    c     -4.5078 *    -1.1269 *    -3.3808 *  0.0000     2          
    34  Na    c     -4.5078 *     3.3808 *     1.1269 *  0.0000     2          
    35  Cl    c      2.2539 *    -1.1269 *    -5.6347 *  0.0000     2          
    36  Cl    c      2.2539 *    -5.6347 *    -1.1269 *  0.0000     2          
    37  Na    c      2.2539 *     1.1269 *     5.6347 *  0.0000     2          
    38  Na    c      2.2539 *     5.6347 *     1.1269 *  0.0000     2          
    39  O     c      0.0000       5.6347 *    -3.3808 *  0.0000     1          
    40  O     c      0.0000      -3.3808 *     5.6347 *  0.0000     1          
    41  Na    c      0.0000       5.6347 *     3.3808 *  0.0000     1          
    42  Na    c      0.0000      -3.3808 *    -5.6347 *  0.0000     1          
    43  Na    c      0.0000       3.3808 *     5.6347 *  0.0000     1          
    44  Na    c      0.0000      -5.6347 *    -3.3808 *  0.0000     1          
    45  O     c      4.5078 *    -3.3808 *    -3.3808 *  0.0000     2          
    46  Na    c      4.5078 *    -3.3808 *     3.3808 *  0.0000     2          
    47  Na    c      4.5078 *     3.3808 *    -3.3808 *  0.0000     2          
    48  Cl    c      2.2539 *     3.3808 *    -5.6347 *  0.0000     2          
    49  Cl    c      2.2539 *    -5.6347 *     3.3808 *  0.0000     2          
    50  Na    c      2.2539 *     5.6347 *    -3.3808 *  0.0000     2          
    51  Na    c      2.2539 *    -3.3808 *     5.6347 *  0.0000     2          
    52  Cl    c      6.7617 *    -1.1269 *    -1.1269 *  0.0000     2          
    53  Na    c      6.7617 *     1.1269 *     1.1269 *  0.0000     2          
    54  O     c     -4.5078 *     1.1269 *     5.6347 *  0.0000     2          
    55  Na    c     -4.5078 *     1.1269 *    -5.6347 *  0.0000     2          
    56  Na    c     -4.5078 *    -1.1269 *     5.6347 *  0.0000     2          
    57  O     c      4.5078 *     5.6347 *     1.1269 *  0.0000     2          
    58  Na    c      4.5078 *     5.6347 *    -1.1269 *  0.0000     2          
    59  Na    c      4.5078 *    -5.6347 *     1.1269 *  0.0000     2          
    60  Cl    c      6.7617 *    -1.1269 *     3.3808 *  0.0000     2          
    61  Na    c      6.7617 *     1.1269 *    -3.3808 *  0.0000     2          
    62  Cl    c      6.7617 *     3.3808 *    -1.1269 *  0.0000     2          
    63  Na    c      6.7617 *    -3.3808 *     1.1269 *  0.0000     2          
    64  O     c      0.0000       5.6347 *     5.6347 *  0.0000     1          
    65  Na    c      0.0000       5.6347 *    -5.6347 *  0.0000     1          
    66  Na    c      0.0000      -5.6347 *     5.6347 *  0.0000     1          
    67  O     c     -4.5078 *    -3.3808 *     5.6347 *  0.0000     2          
    68  Na    c     -4.5078 *    -3.3808 *    -5.6347 *  0.0000     2          
    69  Na    c     -4.5078 *     3.3808 *     5.6347 *  0.0000     2          
    70  O     c      0.0000       1.1269 *    -7.8886 *  0.0000     1          
    71  O     c      0.0000      -7.8886 *     1.1269 *  0.0000     1          
    72  O     c      4.5078 *     5.6347 *    -3.3808 *  0.0000     2          
    73  Na    c      0.0000       1.1269 *     7.8886 *  0.0000     1          
    74  Na    c      0.0000      -7.8886 *    -1.1269 *  0.0000     1          
    75  Na    c      4.5078 *     5.6347 *     3.3808 *  0.0000     2          
    76  Na    c      0.0000      -1.1269 *    -7.8886 *  0.0000     1          
    77  Na    c      0.0000       7.8886 *     1.1269 *  0.0000     1          
    78  Na    c      4.5078 *    -5.6347 *    -3.3808 *  0.0000     2          
    79  Cl    c      2.2539 *    -5.6347 *    -5.6347 *  0.0000     2          
    80  Na    c      2.2539 *     5.6347 *     5.6347 *  0.0000     2          
    81  Cl    c      2.2539 *    -1.1269 *     7.8886 *  0.0000     2          
    82  Na    c      2.2539 *     1.1269 *    -7.8886 *  0.0000     2          
    83  Cl    c      2.2539 *     7.8886 *    -1.1269 *  0.0000     2          
    84  Cl    c      6.7617 *     3.3808 *     3.3808 *  0.0000     2          
    85  Na    c      2.2539 *    -7.8886 *     1.1269 *  0.0000     2          
    86  Na    c      6.7617 *    -3.3808 *    -3.3808 *  0.0000     2          
    87  O     c      0.0000      -3.3808 *    -7.8886 *  0.0000     1          
    88  O     c      0.0000      -7.8886 *    -3.3808 *  0.0000     1          
    89  Na    c      0.0000      -3.3808 *     7.8886 *  0.0000     1          
    90  Na    c      0.0000      -7.8886 *     3.3808 *  0.0000     1          
    91  Na    c      0.0000       3.3808 *    -7.8886 *  0.0000     1          
    92  Na    c      0.0000       7.8886 *    -3.3808 *  0.0000     1          
    93  Cl    c      2.2539 *     3.3808 *     7.8886 *  0.0000     2          
    94  Cl    c      6.7617 *    -1.1269 *    -5.6347 *  0.0000     2          
    95  Na    c      2.2539 *    -3.3808 *    -7.8886 *  0.0000     2          
    96  Na    c      6.7617 *     1.1269 *     5.6347 *  0.0000     2          
    97  Cl    c      2.2539 *     7.8886 *     3.3808 *  0.0000     2          
    98  Cl    c      6.7617 *    -5.6347 *    -1.1269 *  0.0000     2          
    99  Na    c      2.2539 *    -7.8886 *    -3.3808 *  0.0000     2          
   100  Na    c      6.7617 *     5.6347 *     1.1269 *  0.0000     2          
   101  O     c      4.5078 *     5.6347 *     5.6347 *  0.0000     2          
   102  O     c      4.5078 *    -7.8886 *     1.1269 *  0.0000     2          
   103  O     c      9.0156 *     1.1269 *     1.1269 *  0.0000     2          
   104  O     c     -4.5078 *     1.1269 *    -7.8886 *  0.0000     2          
   105  Na    c      4.5078 *     5.6347 *    -5.6347 *  0.0000     2          
   106  Na    c      4.5078 *    -7.8886 *    -1.1269 *  0.0000     2          
   107  Na    c      9.0156 *     1.1269 *    -1.1269 *  0.0000     2          
   108  Na    c     -4.5078 *     1.1269 *     7.8886 *  0.0000     2          
   109  Na    c      4.5078 *     7.8886 *     1.1269 *  0.0000     2          
   110  Na    c      4.5078 *    -5.6347 *     5.6347 *  0.0000     2          
   111  Na    c      9.0156 *    -1.1269 *     1.1269 *  0.0000     2          
   112  Na    c     -4.5078 *    -1.1269 *    -7.8886 *  0.0000     2          
   113  Cl    c      6.7617 *     3.3808 *    -5.6347 *  0.0000     2          
   114  Na    c      6.7617 *    -3.3808 *     5.6347 *  0.0000     2          
   115  Cl    c      6.7617 *    -5.6347 *     3.3808 *  0.0000     2          
   116  Na    c      6.7617 *     5.6347 *    -3.3808 *  0.0000     2          
   117  O     c      0.0000       5.6347 *    -7.8886 *  0.0000     1          
   118  O     c      0.0000      -7.8886 *     5.6347 *  0.0000     1          
   119  O     c      9.0156 *    -3.3808 *     1.1269 *  0.0000     2          
   120  O     c     -4.5078 *    -3.3808 *    -7.8886 *  0.0000     2          
   121  Na    c      0.0000       5.6347 *     7.8886 *  0.0000     1          
   122  Na    c      0.0000      -7.8886 *    -5.6347 *  0.0000     1          
   123  Na    c      9.0156 *    -3.3808 *    -1.1269 *  0.0000     2          
   124  Na    c     -4.5078 *    -3.3808 *     7.8886 *  0.0000     2          
   125  Na    c      0.0000       7.8886 *     5.6347 *  0.0000     1          
   126  Na    c      0.0000      -5.6347 *    -7.8886 *  0.0000     1          
   127  Na    c      9.0156 *     3.3808 *     1.1269 *  0.0000     2          
   128  Na    c     -4.5078 *     3.3808 *    -7.8886 *  0.0000     2          
   129  O     c      4.5078 *    -7.8886 *    -3.3808 *  0.0000     2          
   130  O     c      9.0156 *     1.1269 *    -3.3808 *  0.0000     2          
   131  Na    c      4.5078 *    -7.8886 *     3.3808 *  0.0000     2          
   132  Na    c      9.0156 *     1.1269 *     3.3808 *  0.0000     2          
   133  Na    c      4.5078 *     7.8886 *    -3.3808 *  0.0000     2          
   134  Na    c      9.0156 *    -1.1269 *    -3.3808 *  0.0000     2          
   135  Cl    c      2.2539 *     7.8886 *    -5.6347 *  0.0000     2          
   136  Cl    c      2.2539 *    -5.6347 *     7.8886 *  0.0000     2          
   137  Na    c      2.2539 *     5.6347 *    -7.8886 *  0.0000     2          
   138  Na    c      2.2539 *    -7.8886 *     5.6347 *  0.0000     2          
   139  O     c      0.0000      10.1425 *     1.1269 *  0.0000     1          
   140  Na    c      0.0000      10.1425 *    -1.1269 *  0.0000     1          
   141  Na    c      0.0000     -10.1425 *     1.1269 *  0.0000     1          
   142  O     c      0.0000       1.1269 *    10.1425 *  0.0000     1          
   143  O     c      9.0156 *    -3.3808 *    -3.3808 *  0.0000     2          
   144  Na    c      0.0000       1.1269 *   -10.1425 *  0.0000     1          
   145  Na    c      9.0156 *    -3.3808 *     3.3808 *  0.0000     2          
   146  Na    c      0.0000      -1.1269 *    10.1425 *  0.0000     1          
   147  Na    c      9.0156 *     3.3808 *    -3.3808 *  0.0000     2          
   148  Cl    c      6.7617 *    -5.6347 *    -5.6347 *  0.0000     2          
   149  Na    c      6.7617 *     5.6347 *     5.6347 *  0.0000     2          
   150  Cl    c      2.2539 *    -1.1269 *   -10.1425 *  0.0000     2          
   151  Cl    c      2.2539 *   -10.1425 *    -1.1269 *  0.0000     2          
   152  Cl    c      6.7617 *    -1.1269 *     7.8886 *  0.0000     2          
   153  Cl    c      6.7617 *     7.8886 *    -1.1269 *  0.0000     2          
   154  Na    c      2.2539 *     1.1269 *    10.1425 *  0.0000     2          
   155  Na    c      2.2539 *    10.1425 *     1.1269 *  0.0000     2          
   156  Na    c      6.7617 *     1.1269 *    -7.8886 *  0.0000     2          
   157  Na    c      6.7617 *    -7.8886 *     1.1269 *  0.0000     2          
   158  O     c      4.5078 *     5.6347 *    -7.8886 *  0.0000     2          
   159  O     c      4.5078 *    -7.8886 *     5.6347 *  0.0000     2          
   160  O     c      9.0156 *     1.1269 *     5.6347 *  0.0000     2          
   161  O     c      9.0156 *     5.6347 *     1.1269 *  0.0000     2          
   162  Na    c      4.5078 *     5.6347 *     7.8886 *  0.0000     2          
   163  Na    c      4.5078 *    -7.8886 *    -5.6347 *  0.0000     2          
   164  Na    c      9.0156 *     1.1269 *    -5.6347 *  0.0000     2          
   165  Na    c      9.0156 *     5.6347 *    -1.1269 *  0.0000     2          
   166  Na    c      4.5078 *     7.8886 *     5.6347 *  0.0000     2          
   167  Na    c      4.5078 *    -5.6347 *    -7.8886 *  0.0000     2          
   168  Na    c      9.0156 *    -1.1269 *     5.6347 *  0.0000     2          
   169  Na    c      9.0156 *    -5.6347 *     1.1269 *  0.0000     2          
   170  O     c      0.0000      10.1425 *    -3.3808 *  0.0000     1          
   171  O     c      0.0000      -3.3808 *    10.1425 *  0.0000     1          
   172  Na    c      0.0000      10.1425 *     3.3808 *  0.0000     1          
   173  Na    c      0.0000      -3.3808 *   -10.1425 *  0.0000     1          
   174  Na    c      0.0000       3.3808 *    10.1425 *  0.0000     1          
   175  Na    c      0.0000     -10.1425 *    -3.3808 *  0.0000     1          
   176  Cl    c      2.2539 *     3.3808 *   -10.1425 *  0.0000     2          
   177  Cl    c      2.2539 *   -10.1425 *     3.3808 *  0.0000     2          
   178  Cl    c      6.7617 *     7.8886 *     3.3808 *  0.0000     2          
   179  Na    c      2.2539 *    10.1425 *    -3.3808 *  0.0000     2          
   180  Na    c      2.2539 *    -3.3808 *    10.1425 *  0.0000     2          
   181  Na    c      6.7617 *    -7.8886 *    -3.3808 *  0.0000     2          
   182  Cl    c      6.7617 *     3.3808 *     7.8886 *  0.0000     2          
   183  Na    c      6.7617 *    -3.3808 *    -7.8886 *  0.0000     2          
   184  O     c      9.0156 *    -3.3808 *     5.6347 *  0.0000     2          
   185  O     c     -4.5078 *    10.1425 *     1.1269 *  0.0000     2          
   186  Na    c      9.0156 *    -3.3808 *    -5.6347 *  0.0000     2          
   187  Na    c     -4.5078 *    10.1425 *    -1.1269 *  0.0000     2          
   188  Na    c      9.0156 *     3.3808 *     5.6347 *  0.0000     2          
   189  Na    c     -4.5078 *   -10.1425 *     1.1269 *  0.0000     2          
   190  O     c      0.0000      -7.8886 *    -7.8886 *  0.0000     1          
   191  O     c      4.5078 *     1.1269 *    10.1425 *  0.0000     2          
   192  O     c      9.0156 *     5.6347 *    -3.3808 *  0.0000     2          
   193  Na    c      0.0000      -7.8886 *     7.8886 *  0.0000     1          
   194  Na    c      4.5078 *     1.1269 *   -10.1425 *  0.0000     2          
   195  Na    c      9.0156 *     5.6347 *     3.3808 *  0.0000     2          
   196  Na    c      0.0000       7.8886 *    -7.8886 *  0.0000     1          
   197  Na    c      4.5078 *    -1.1269 *    10.1425 *  0.0000     2          
   198  Na    c      9.0156 *    -5.6347 *    -3.3808 *  0.0000     2          
   199  Cl    c     11.2695 *    -1.1269 *    -1.1269 *  0.0000     2          
   200  Na    c     11.2695 *     1.1269 *     1.1269 *  0.0000     2          
   201  Cl    c      2.2539 *     7.8886 *     7.8886 *  0.0000     2          
   202  Na    c      2.2539 *    -7.8886 *    -7.8886 *  0.0000     2          
   203  O     c      0.0000       5.6347 *    10.1425 *  0.0000     1          
   204  O     c      0.0000      10.1425 *     5.6347 *  0.0000     1          
   205  O     c     -4.5078 *    10.1425 *    -3.3808 *  0.0000     2          
   206  Na    c      0.0000       5.6347 *   -10.1425 *  0.0000     1          
   207  Na    c      0.0000      10.1425 *    -5.6347 *  0.0000     1          
   208  Na    c     -4.5078 *    10.1425 *     3.3808 *  0.0000     2          
   209  Na    c      0.0000      -5.6347 *    10.1425 *  0.0000     1          
   210  Na    c      0.0000     -10.1425 *     5.6347 *  0.0000     1          
   211  Na    c     -4.5078 *   -10.1425 *    -3.3808 *  0.0000     2          
   212  O     c      4.5078 *    -3.3808 *    10.1425 *  0.0000     2          
   213  Na    c      4.5078 *    -3.3808 *   -10.1425 *  0.0000     2          
   214  Na    c      4.5078 *     3.3808 *    10.1425 *  0.0000     2          
   215  Cl    c     11.2695 *    -1.1269 *     3.3808 *  0.0000     2          
   216  Cl    c     11.2695 *     3.3808 *    -1.1269 *  0.0000     2          
   217  Na    c     11.2695 *     1.1269 *    -3.3808 *  0.0000     2          
   218  Na    c     11.2695 *    -3.3808 *     1.1269 *  0.0000     2          
   219  Cl    c      2.2539 *    -5.6347 *   -10.1425 *  0.0000     2          
   220  Cl    c      2.2539 *   -10.1425 *    -5.6347 *  0.0000     2          
   221  Cl    c      6.7617 *     7.8886 *    -5.6347 *  0.0000     2          
   222  Na    c      2.2539 *     5.6347 *    10.1425 *  0.0000     2          
   223  Na    c      2.2539 *    10.1425 *     5.6347 *  0.0000     2          
   224  Na    c      6.7617 *    -7.8886 *     5.6347 *  0.0000     2          
   225  Cl    c      6.7617 *    -5.6347 *     7.8886 *  0.0000     2          
   226  Na    c      6.7617 *     5.6347 *    -7.8886 *  0.0000     2          
   227  O     s      0.0000       1.1269 *     1.1269 *  0.0000     1          
   228  Cl    s      2.2539 *    -1.1269 *    -1.1269 *  0.0000     2          
   229  O     s      0.0000       1.1269 *    -3.3808 *  0.0000     1          
   230  O     s      0.0000      -3.3808 *     1.1269 *  0.0000     1          
   231  Cl    s      2.2539 *    -1.1269 *     3.3808 *  0.0000     2          
   232  Cl    s      2.2539 *     3.3808 *    -1.1269 *  0.0000     2          
   233  O     s     -4.5078 *     1.1269 *     1.1269 *  0.0000     2          
   234  O     s      0.0000      -3.3808 *    -3.3808 *  0.0000     1          
   235  Cl    s      2.2539 *     3.3808 *     3.3808 *  0.0000     2          
   236  O     s      0.0000       1.1269 *     5.6347 *  0.0000     1          
   237  O     s      0.0000       5.6347 *     1.1269 *  0.0000     1          
   238  O     s     -4.5078 *     1.1269 *    -3.3808 *  0.0000     2          
   239  O     s     -4.5078 *    -3.3808 *     1.1269 *  0.0000     2          
   240  Cl    s      2.2539 *    -1.1269 *    -5.6347 *  0.0000     2          
   241  Cl    s      2.2539 *    -5.6347 *    -1.1269 *  0.0000     2          
   242  O     s      0.0000       5.6347 *    -3.3808 *  0.0000     1          
   243  O     s      0.0000      -3.3808 *     5.6347 *  0.0000     1          
   244  O     s      4.5078 *    -3.3808 *    -3.3808 *  0.0000     2          
   245  Cl    s      2.2539 *     3.3808 *    -5.6347 *  0.0000     2          
   246  Cl    s      2.2539 *    -5.6347 *     3.3808 *  0.0000     2          
   247  Cl    s      6.7617 *    -1.1269 *    -1.1269 *  0.0000     2          
   248  O     s     -4.5078 *     1.1269 *     5.6347 *  0.0000     2          
   249  O     s      4.5078 *     5.6347 *     1.1269 *  0.0000     2          
   250  Cl    s      6.7617 *    -1.1269 *     3.3808 *  0.0000     2          
   251  Cl    s      6.7617 *     3.3808 *    -1.1269 *  0.0000     2          
   252  O     s      0.0000       5.6347 *     5.6347 *  0.0000     1          
   253  O     s     -4.5078 *    -3.3808 *     5.6347 *  0.0000     2          
   254  O     s      0.0000       1.1269 *    -7.8886 *  0.0000     1          
   255  O     s      0.0000      -7.8886 *     1.1269 *  0.0000     1          
   256  O     s      4.5078 *     5.6347 *    -3.3808 *  0.0000     2          
   257  Cl    s      2.2539 *    -5.6347 *    -5.6347 *  0.0000     2          
   258  Cl    s      2.2539 *    -1.1269 *     7.8886 *  0.0000     2          
   259  Cl    s      2.2539 *     7.8886 *    -1.1269 *  0.0000     2          
   260  Cl    s      6.7617 *     3.3808 *     3.3808 *  0.0000     2          
   261  O     s      0.0000      -3.3808 *    -7.8886 *  0.0000     1          
   262  O     s      0.0000      -7.8886 *    -3.3808 *  0.0000     1          
   263  Cl    s      2.2539 *     3.3808 *     7.8886 *  0.0000     2          
   264  Cl    s      6.7617 *    -1.1269 *    -5.6347 *  0.0000     2          
   265  Cl    s      2.2539 *     7.8886 *     3.3808 *  0.0000     2          
   266  Cl    s      6.7617 *    -5.6347 *    -1.1269 *  0.0000     2          
   267  O     s      4.5078 *     5.6347 *     5.6347 *  0.0000     2          
   268  O     s      4.5078 *    -7.8886 *     1.1269 *  0.0000     2          
   269  O     s      9.0156 *     1.1269 *     1.1269 *  0.0000     2          
   270  O     s     -4.5078 *     1.1269 *    -7.8886 *  0.0000     2          
   271  Cl    s      6.7617 *     3.3808 *    -5.6347 *  0.0000     2          
   272  Cl    s      6.7617 *    -5.6347 *     3.3808 *  0.0000     2          
   273  O     s      0.0000       5.6347 *    -7.8886 *  0.0000     1          
   274  O     s      0.0000      -7.8886 *     5.6347 *  0.0000     1          
   275  O     s      9.0156 *    -3.3808 *     1.1269 *  0.0000     2          
   276  O     s     -4.5078 *    -3.3808 *    -7.8886 *  0.0000     2          
   277  O     s      4.5078 *    -7.8886 *    -3.3808 *  0.0000     2          
   278  O     s      9.0156 *     1.1269 *    -3.3808 *  0.0000     2          
   279  Cl    s      2.2539 *     7.8886 *    -5.6347 *  0.0000     2          
   280  Cl    s      2.2539 *    -5.6347 *     7.8886 *  0.0000     2          
   281  O     s      0.0000      10.1425 *     1.1269 *  0.0000     1          
   282  O     s      0.0000       1.1269 *    10.1425 *  0.0000     1          
   283  O     s      9.0156 *    -3.3808 *    -3.3808 *  0.0000     2          
   284  Cl    s      6.7617 *    -5.6347 *    -5.6347 *  0.0000     2          
   285  Cl    s      2.2539 *    -1.1269 *   -10.1425 *  0.0000     2          
   286  Cl    s      2.2539 *   -10.1425 *    -1.1269 *  0.0000     2          
   287  Cl    s      6.7617 *    -1.1269 *     7.8886 *  0.0000     2          
   288  Cl    s      6.7617 *     7.8886 *    -1.1269 *  0.0000     2          
   289  O     s      4.5078 *     5.6347 *    -7.8886 *  0.0000     2          
   290  O     s      4.5078 *    -7.8886 *     5.6347 *  0.0000     2          
   291  O     s      9.0156 *     1.1269 *     5.6347 *  0.0000     2          
   292  O     s      9.0156 *     5.6347 *     1.1269 *  0.0000     2          
   293  O     s      0.0000      10.1425 *    -3.3808 *  0.0000     1          
   294  O     s      0.0000      -3.3808 *    10.1425 *  0.0000     1          
   295  Cl    s      2.2539 *     3.3808 *   -10.1425 *  0.0000     2          
   296  Cl    s      2.2539 *   -10.1425 *     3.3808 *  0.0000     2          
   297  Cl    s      6.7617 *     7.8886 *     3.3808 *  0.0000     2          
   298  Cl    s      6.7617 *     3.3808 *     7.8886 *  0.0000     2          
   299  O     s      9.0156 *    -3.3808 *     5.6347 *  0.0000     2          
   300  O     s     -4.5078 *    10.1425 *     1.1269 *  0.0000     2          
   301  O     s      0.0000      -7.8886 *    -7.8886 *  0.0000     1          
   302  O     s      4.5078 *     1.1269 *    10.1425 *  0.0000     2          
   303  O     s      9.0156 *     5.6347 *    -3.3808 *  0.0000     2          
   304  Cl    s     11.2695 *    -1.1269 *    -1.1269 *  0.0000     2          
   305  Cl    s      2.2539 *     7.8886 *     7.8886 *  0.0000     2          
   306  O     s      0.0000       5.6347 *    10.1425 *  0.0000     1          
   307  O     s      0.0000      10.1425 *     5.6347 *  0.0000     1          
   308  O     s     -4.5078 *    10.1425 *    -3.3808 *  0.0000     2          
   309  O     s      4.5078 *    -3.3808 *    10.1425 *  0.0000     2          
   310  Cl    s     11.2695 *    -1.1269 *     3.3808 *  0.0000     2          
   311  Cl    s     11.2695 *     3.3808 *    -1.1269 *  0.0000     2          
   312  Cl    s      2.2539 *    -5.6347 *   -10.1425 *  0.0000     2          
   313  Cl    s      2.2539 *   -10.1425 *    -5.6347 *  0.0000     2          
   314  Cl    s      6.7617 *     7.8886 *    -5.6347 *  0.0000     2          
   315  Cl    s      6.7617 *    -5.6347 *     7.8886 *  0.0000     2          
--------------------------------------------------------------------------------

  Components of defect energy : 

--------------------------------------------------------------------------------
  Region 1 - region 1                   =      9.93514642 eV
  Region 1 - region 2a (unrelaxed)      =     -0.27000860 eV
  Region 1 - 2a (relaxed - correction)  =     -0.28838916 eV
  Region 1 (Total)                      =      9.37674865 eV
  Region 2a                             =      0.14412427 eV
  Region 2b                             =     -0.43205783 eV
--------------------------------------------------------------------------------
  Total defect energy                   =      9.08881509 eV
--------------------------------------------------------------------------------

  Largest displacement in region 2 =   0.0211 Angstroms


  Number of variables =      858

  Maximum number of calculations  =        1000
  Maximum Hessian update interval =          10
  Maximum step size               =   1.0000000
  Maximum parameter tolerance     =   0.0000100
  Maximum function  tolerance     =   0.0000100
  Maximum gradient  tolerance     =   0.0010000

  Symmetry adapted optimisation

  Symmetry to be used for second derivatives

  Newton-Raphson optimiser to be used

  BFGS hessian update to be used

  Lower half triangular hessian to be used

  Start of defect optimisation :

  Cycle:      0 Defect Energy:   9.088815  Gnorm:     0.023652  CPU:    3.996
  ** Hessian calculated **
  Cycle:      1 Defect Energy:   8.351401  Gnorm:     0.020909  CPU:   12.672
  ** Hessian calculated **
  Cycle:      2 Defect Energy:   7.510060  Gnorm:     0.017127  CPU:   19.011
  ** Hessian calculated **
  Cycle:      3 Defect Energy:   5.919313  Gnorm:     0.006467  CPU:   23.607
  Cycle:      4 Defect Energy:   5.620360  Gnorm:     0.003740  CPU:   26.595
  Cycle:      5 Defect Energy:   5.561437  Gnorm:     0.002749  CPU:   27.514
  Cycle:      6 Defect Energy:   5.487700  Gnorm:     0.002161  CPU:   28.333
  Cycle:      7 Defect Energy:   5.391079  Gnorm:     0.001859  CPU:   29.140
  Cycle:      8 Defect Energy:   5.268900  Gnorm:     0.001807  CPU:   29.953
  Cycle:      9 Defect Energy:   5.138247  Gnorm:     0.001833  CPU:   30.771
  Cycle:     10 Defect Energy:   5.059753  Gnorm:     0.002151  CPU:   31.582
  Cycle:     11 Defect Energy:   4.994028  Gnorm:     0.002506  CPU:   32.505
  Cycle:     12 Defect Energy:   4.918310  Gnorm:     0.002545  CPU:   33.292
  ** Hessian calculated **
  Cycle:     13 Defect Energy:   4.884365  Gnorm:     0.001671  CPU:   35.349
  Cycle:     14 Defect Energy:   4.844395  Gnorm:     0.001469  CPU:   36.123
  Cycle:     15 Defect Energy:   4.795962  Gnorm:     0.001354  CPU:   36.931
  Cycle:     16 Defect Energy:   4.747499  Gnorm:     0.001345  CPU:   40.411
  Cycle:     17 Defect Energy:   4.703889  Gnorm:     0.001403  CPU:   42.495
  Cycle:     18 Defect Energy:   4.672840  Gnorm:     0.001270  CPU:   43.475
  Cycle:     19 Defect Energy:   4.648235  Gnorm:     0.001387  CPU:   44.449
  Cycle:     20 Defect Energy:   4.625530  Gnorm:     0.001307  CPU:   45.426
  Cycle:     21 Defect Energy:   4.605383  Gnorm:     0.001281  CPU:   46.390
  Cycle:     22 Defect Energy:   4.587369  Gnorm:     0.001286  CPU:   47.412
  ** Hessian calculated **
  Cycle:     23 Defect Energy:   4.551550  Gnorm:     0.001168  CPU:   49.878
  Cycle:     24 Defect Energy:   4.510556  Gnorm:     0.001002  CPU:   50.803
  Cycle:     25 Defect Energy:   4.506861  Gnorm:     0.000982  CPU:   51.796
  ** Hessian calculated **
  Cycle:     26 Defect Energy:   4.459302  Gnorm:     0.000689  CPU:   54.156
  Cycle:     27 Defect Energy:   4.438279  Gnorm:     0.000492  CPU:   55.016
  Cycle:     28 Defect Energy:   4.434478  Gnorm:     0.000444  CPU:   55.906
  ** Hessian calculated **
  Cycle:     29 Defect Energy:   4.426928  Gnorm:     0.000315  CPU:   58.289
  Cycle:     30 Defect Energy:   4.423397  Gnorm:     0.000241  CPU:   59.147
  ** Hessian calculated **
  Cycle:     31 Defect Energy:   4.420086  Gnorm:     0.000176  CPU:   61.529
  Cycle:     32 Defect Energy:   4.417567  Gnorm:     0.000145  CPU:   62.342
  Cycle:     33 Defect Energy:   4.414488  Gnorm:     0.000158  CPU:   63.162
  Cycle:     34 Defect Energy:   4.410482  Gnorm:     0.000269  CPU:   63.971
  Cycle:     35 Defect Energy:   4.407187  Gnorm:     0.000257  CPU:   64.793
  Cycle:     36 Defect Energy:   4.405125  Gnorm:     0.000216  CPU:   65.602
  Cycle:     37 Defect Energy:   4.402947  Gnorm:     0.000179  CPU:   66.522
  Cycle:     38 Defect Energy:   4.400199  Gnorm:     0.000186  CPU:   67.282
  Cycle:     39 Defect Energy:   4.398456  Gnorm:     0.000240  CPU:   68.105
  ** Hessian calculated **
  Cycle:     40 Defect Energy:   4.395681  Gnorm:     0.000169  CPU:   70.199
  Cycle:     41 Defect Energy:   4.394150  Gnorm:     0.000120  CPU:   70.969
  Cycle:     42 Defect Energy:   4.393158  Gnorm:     0.000080  CPU:   71.782
  Cycle:     43 Defect Energy:   4.392429  Gnorm:     0.000062  CPU:   72.699
  Cycle:     44 Defect Energy:   4.391515  Gnorm:     0.000073  CPU:   76.620
  Cycle:     45 Defect Energy:   4.390190  Gnorm:     0.000182  CPU:   77.983
  Cycle:     46 Defect Energy:   4.389929  Gnorm:     0.000462  CPU:   78.932
  Cycle:     47 Defect Energy:   4.389382  Gnorm:     0.000412  CPU:   79.900
  ** Hessian calculated **
  Cycle:     48 Defect Energy:   4.388150  Gnorm:     0.000201  CPU:   82.617
  Cycle:     49 Defect Energy:   4.387113  Gnorm:     0.000151  CPU:   83.550
  Cycle:     50 Defect Energy:   4.386010  Gnorm:     0.000139  CPU:   84.451
  Cycle:     51 Defect Energy:   4.384626  Gnorm:     0.000165  CPU:   85.382
  Cycle:     52 Defect Energy:   4.383087  Gnorm:     0.000189  CPU:   86.285
  Cycle:     53 Defect Energy:   4.381433  Gnorm:     0.000236  CPU:   87.353
  Cycle:     54 Defect Energy:   4.379236  Gnorm:     0.000284  CPU:   88.245
  Cycle:     55 Defect Energy:   4.376373  Gnorm:     0.000340  CPU:   89.115
  Cycle:     56 Defect Energy:   4.373236  Gnorm:     0.000418  CPU:   89.984
  Cycle:     57 Defect Energy:   4.371988  Gnorm:     0.000435  CPU:   90.888
  ** Hessian calculated **
  Cycle:     58 Defect Energy:   4.364094  Gnorm:     0.000428  CPU:   93.252
  Cycle:     59 Defect Energy:   4.351382  Gnorm:     0.000401  CPU:   94.081
  Cycle:     60 Defect Energy:   4.334449  Gnorm:     0.000296  CPU:   94.932
  Cycle:     61 Defect Energy:   4.329835  Gnorm:     0.000207  CPU:   95.778
  Cycle:     62 Defect Energy:   4.322835  Gnorm:     0.000065  CPU:   96.693
  Cycle:     63 Defect Energy:   4.322552  Gnorm:     0.000044  CPU:   97.525
  Cycle:     64 Defect Energy:   4.322531  Gnorm:     0.000030  CPU:   98.337


  **** Optimisation achieved ****


  Final defect energy  =        4.32252489
  Final defect Gnorm   =        0.00002077

  Components of defect energy : 

--------------------------------------------------------------------------------
  Region 1 - region 1                   =      5.84824217 eV
  Region 1 - region 2a (unrelaxed)      =     -0.98410937 eV
  Region 1 - 2a (relaxed - correction)  =     -0.21934628 eV
  Region 1 (Total)                      =      4.64478652 eV
  Region 2a                             =      0.10962489 eV
  Region 2b                             =     -0.43188652 eV
--------------------------------------------------------------------------------
  Total defect energy                   =      4.32252489 eV
--------------------------------------------------------------------------------

  Largest displacement in region 2 =   0.0227 Angstroms

  Final coordinates of region 1 :

--------------------------------------------------------------------------------
   No.  Atomic        x           y           z          Radius      Charge
        Label       (Angs)      (Angs)      (Angs)       (Angs)       (e) 
--------------------------------------------------------------------------------
     1  Na    c     2.253894    1.822079    0.048740    0.000000    1.000000
     2  O     c     2.253894    2.443701    2.204481    0.000000    0.183000
     3  Cl    c     4.596462    0.006255   -0.111987    0.000000    1.485000
     4  Cl    c    -0.088675    0.006255   -0.111987    0.000000    1.485000
     5  Na    c     4.384055    1.795527    2.343573    0.000000    1.000000
     6  Na    c     0.123732    1.795527    2.343573    0.000000    1.000000
     7  O     c     2.253894    2.247782   -2.246110    0.000000    0.183000
     8  O     c     2.253894   -2.416347    2.204713    0.000000    0.183000
     9  Na    c     2.253894    2.671303    4.422943    0.000000    1.000000
    10  Na    c     2.253894   -1.806624    0.050850    0.000000    1.000000
    11  Na    c     2.253894    0.007230   -2.648763    0.000000    1.000000
    12  Na    c     2.253894    4.593146    1.768791    0.000000    1.000000
    13  Cl    c     4.726444    0.004586    4.629091    0.000000    1.485000
    14  Cl    c    -0.218657    0.004586    4.629091    0.000000    1.485000
    15  Cl    c     4.593906    4.629948   -0.112589    0.000000    1.485000
    16  Cl    c    -0.086119    4.629948   -0.112589    0.000000    1.485000
    17  Na    c     4.505419    2.176470   -2.314989    0.000000    1.000000
    18  Na    c     0.002369    2.176470   -2.314989    0.000000    1.000000
    19  Na    c     4.389444   -1.791980    2.320223    0.000000    1.000000
    20  Na    c     0.118343   -1.791980    2.320223    0.000000    1.000000
    21  O     c    -2.185626    2.249926    2.257884    0.000000    0.183000
    22  O     c     6.693413    2.249926    2.257884    0.000000    0.183000
    23  Na    c    -2.047223    2.254968    0.014308    0.000000    1.000000
    24  Na    c     6.555011    2.254968    0.014308    0.000000    1.000000
    25  Na    c    -2.566720    0.005670    2.304882    0.000000    1.000000
    26  Na    c     7.074507    0.005670    2.304882    0.000000    1.000000
    27  O     c     2.253894   -2.232296   -2.238301    0.000000    0.183000
    28  Na    c     2.253894   -2.638499    4.421772    0.000000    1.000000
    29  Na    c     2.253894    4.502309   -1.834915    0.000000    1.000000
    30  Cl    c     4.579285    4.575466    4.628564    0.000000    1.485000
    31  Cl    c    -0.071498    4.575466    4.628564    0.000000    1.485000
    32  Na    c     4.504547   -2.167492   -2.273632    0.000000    1.000000
    33  Na    c     0.003240   -2.167492   -2.273632    0.000000    1.000000
    34  O     c     2.253894    2.226388    6.692915    0.000000    0.183000
    35  O     c     2.253894    6.830180    2.244229    0.000000    0.183000
    36  Na    c     2.253894    2.682326   -4.482324    0.000000    1.000000
    37  Na    c     2.253894    7.215747   -0.006216    0.000000    1.000000
    38  Na    c     2.253894    0.006559    6.136439    0.000000    1.000000
    39  Na    c     2.253894   -4.568063    1.797611    0.000000    1.000000
    40  O     c    -2.259960    2.258450   -2.241913    0.000000    0.183000
    41  O     c     6.767747    2.258450   -2.241913    0.000000    0.183000
    42  O     c    -2.186202   -2.240194    2.260102    0.000000    0.183000
    43  O     c     6.693989   -2.240194    2.260102    0.000000    0.183000
    44  Na    c    -2.242918    2.336823    4.513626    0.000000    1.000000
    45  Na    c     6.750705    2.336823    4.513626    0.000000    1.000000
    46  Na    c    -2.094826   -2.263077    0.015781    0.000000    1.000000
    47  Na    c     6.602613   -2.263077    0.015781    0.000000    1.000000
    48  Na    c    -2.383375    0.003980   -2.149096    0.000000    1.000000
    49  Na    c     6.891162    0.003980   -2.149096    0.000000    1.000000
    50  Na    c    -1.765348    4.476849    2.234565    0.000000    1.000000
    51  Na    c     6.273136    4.476849    2.234565    0.000000    1.000000
    52  Cl    c     4.531647    0.001889   -4.524551    0.000000    1.485000
    53  Cl    c    -0.023860    0.001889   -4.524551    0.000000    1.485000
    54  Cl    c     4.593578   -4.615062   -0.110954    0.000000    1.485000
    55  Cl    c    -0.085791   -4.615062   -0.110954    0.000000    1.485000
    56  Na    c     4.510601    2.115348    6.715118    0.000000    1.000000
    57  Na    c    -0.002814    2.115348    6.715118    0.000000    1.000000
    58  Na    c     4.505203    6.989958    2.282238    0.000000    1.000000
    59  Na    c     0.002584    6.989958    2.282238    0.000000    1.000000
    60  O     c     2.253894    6.767901   -2.243714    0.000000    0.183000
    61  O     c     2.253894   -2.208621    6.693623    0.000000    0.183000
    62  Na    c     2.253894    6.355552    4.478944    0.000000    1.000000
    63  Na    c     2.253894   -2.650426   -4.473420    0.000000    1.000000
    64  Na    c     2.253894    4.479127    7.068739    0.000000    1.000000
    65  Na    c     2.253894   -4.491029   -1.859656    0.000000    1.000000
    66  O     c     6.765025   -2.251174   -2.245221    0.000000    0.183000
    67  O     c    -2.257238   -2.251174   -2.245221    0.000000    0.183000
    68  Na    c     6.703518   -2.303512    4.510893    0.000000    1.000000
    69  Na    c    -2.195731   -2.303512    4.510893    0.000000    1.000000
    70  Na    c     6.649090    4.509380   -2.308042    0.000000    1.000000
    71  Na    c    -2.141303    4.509380   -2.308042    0.000000    1.000000
    72  Cl    c     4.535090    4.516870   -4.530020    0.000000    1.485000
    73  Cl    c    -0.027303    4.516870   -4.530020    0.000000    1.485000
    74  Cl    c     4.576813   -4.576039    4.625654    0.000000    1.485000
    75  Cl    c    -0.069026   -4.576039    4.625654    0.000000    1.485000
    76  Na    c     4.506213    6.758481   -2.221237    0.000000    1.000000
    77  Na    c     0.001574    6.758481   -2.221237    0.000000    1.000000
    78  Na    c     4.511291   -2.107044    6.749045    0.000000    1.000000
    79  Na    c    -0.003504   -2.107044    6.749045    0.000000    1.000000
    80  Cl    c     9.034518    0.006482   -0.026619    0.000000    1.485000
    81  Cl    c    -4.526731    0.006482   -0.026619    0.000000    1.485000
    82  Na    c     8.956495    2.600485    2.158591    0.000000    1.000000
    83  Na    c    -4.448708    2.600485    2.158591    0.000000    1.000000
    84  O     c    -2.264305    2.263292    6.781670    0.000000    0.183000
    85  O     c     6.772092    2.263292    6.781670    0.000000    0.183000
    86  Na    c    -2.386732    2.161738   -4.493954    0.000000    1.000000
    87  Na    c     6.894519    2.161738   -4.493954    0.000000    1.000000
    88  Na    c    -2.427896    0.006185    6.606575    0.000000    1.000000
    89  Na    c     6.935684    0.006185    6.606575    0.000000    1.000000
    90  O     c     6.747973    6.716790    2.265268    0.000000    0.183000
    91  O     c    -2.240186    6.716790    2.265268    0.000000    0.183000
    92  Na    c     6.739459    6.700528    0.000968    0.000000    1.000000
    93  Na    c    -2.231672    6.700528    0.000968    0.000000    1.000000
    94  Na    c     6.307307   -4.476453    2.257426    0.000000    1.000000
    95  Na    c    -1.799520   -4.476453    2.257426    0.000000    1.000000
    96  Cl    c     9.051267   -0.009323    4.530126    0.000000    1.485000
    97  Cl    c    -4.543480   -0.009323    4.530126    0.000000    1.485000
    98  Na    c     9.011596    2.397537   -2.073700    0.000000    1.000000
    99  Na    c    -4.503809    2.397537   -2.073700    0.000000    1.000000
   100  Cl    c     9.073467    4.546269   -0.040946    0.000000    1.485000
   101  Cl    c    -4.565680    4.546269   -0.040946    0.000000    1.485000
   102  Na    c     8.953612   -2.590617    2.214898    0.000000    1.000000
   103  Na    c    -4.445825   -2.590617    2.214898    0.000000    1.000000
   104  O     c     2.253894    6.745366    6.731454    0.000000    0.183000
   105  Na    c     2.253894    6.424293   -4.497251    0.000000    1.000000
   106  Na    c     2.253894   -4.460738    7.024714    0.000000    1.000000
   107  O     c    -2.264727   -2.251969    6.773863    0.000000    0.183000
   108  O     c     6.772514   -2.251969    6.773863    0.000000    0.183000
   109  Na    c    -2.336664   -2.142449   -4.496768    0.000000    1.000000
   110  Na    c     6.844451   -2.142449   -4.496768    0.000000    1.000000
   111  Na    c    -2.047332    4.504144    6.926325    0.000000    1.000000
   112  Na    c     6.555119    4.504144    6.926325    0.000000    1.000000
   113  O     c     2.253894    2.264877   -6.724312    0.000000    0.183000
   114  O     c     2.253894   -6.807663    2.233656    0.000000    0.183000
   115  O     c     6.771037    6.768356   -2.263592    0.000000    0.183000
   116  O     c    -2.263249    6.768356   -2.263592    0.000000    0.183000
   117  Na    c     2.253894    1.922748    8.963367    0.000000    1.000000
   118  Na    c     2.253894   -7.152040   -0.009209    0.000000    1.000000
   119  Na    c     6.868176    6.575938    4.518681    0.000000    1.000000
   120  Na    c    -2.360389    6.575938    4.518681    0.000000    1.000000
   121  Na    c     2.253894    0.004773   -6.428255    0.000000    1.000000
   122  Na    c     2.253894    9.049343    2.639881    0.000000    1.000000
   123  Na    c     6.661268   -4.502277   -2.319193    0.000000    1.000000
   124  Na    c    -2.153481   -4.502277   -2.319193    0.000000    1.000000
   125  Cl    c     4.523478   -4.519753   -4.548596    0.000000    1.485000
   126  Cl    c    -0.015690   -4.519753   -4.548596    0.000000    1.485000
   127  Na    c     4.504667    6.815207    6.629607    0.000000    1.000000
   128  Na    c     0.003121    6.815207    6.629607    0.000000    1.000000
   129  Cl    c     4.537546   -0.005203    9.082684    0.000000    1.485000
   130  Cl    c    -0.029759   -0.005203    9.082684    0.000000    1.485000
   131  Na    c     4.509879    2.221462   -6.645454    0.000000    1.000000
   132  Na    c    -0.002092    2.221462   -6.645454    0.000000    1.000000
   133  Cl    c     4.545658    9.050831    0.001529    0.000000    1.485000
   134  Cl    c    -0.037870    9.050831    0.001529    0.000000    1.485000
   135  Cl    c     9.080029    4.512061    4.522070    0.000000    1.485000
   136  Cl    c    -4.572242    4.512061    4.522070    0.000000    1.485000
   137  Na    c     4.497509   -6.950676    2.267385    0.000000    1.000000
   138  Na    c     0.010278   -6.950676    2.267385    0.000000    1.000000
   139  Na    c     9.007943   -2.386972   -2.132416    0.000000    1.000000
   140  Na    c    -4.500156   -2.386972   -2.132416    0.000000    1.000000
   141  O     c     2.253894   -2.254111   -6.719451    0.000000    0.183000
   142  O     c     2.253894   -6.761190   -2.240568    0.000000    0.183000
   143  Na    c     2.253894   -1.936080    8.965270    0.000000    1.000000
   144  Na    c     2.253894   -6.425670    4.486705    0.000000    1.000000
   145  Na    c     2.253894    4.495103   -7.094179    0.000000    1.000000
   146  Na    c     2.253894    9.004919   -2.589628    0.000000    1.000000
   147  Cl    c     4.513655    4.523456    9.060638    0.000000    1.485000
   148  Cl    c    -0.005867    4.523456    9.060638    0.000000    1.485000
   149  Cl    c     9.014268   -0.004726   -4.546312    0.000000    1.485000
   150  Cl    c    -4.506481   -0.004726   -4.546312    0.000000    1.485000
   151  Na    c     4.507767   -2.213125   -6.668763    0.000000    1.000000
   152  Na    c     0.000020   -2.213125   -6.668763    0.000000    1.000000
   153  Na    c     9.010616    2.459926    6.812542    0.000000    1.000000
   154  Na    c    -4.502829    2.459926    6.812542    0.000000    1.000000
   155  Cl    c     4.498208    9.064467    4.520916    0.000000    1.485000
   156  Cl    c     0.009580    9.064467    4.520916    0.000000    1.485000
   157  Cl    c     9.084922   -4.524479   -0.029700    0.000000    1.485000
   158  Cl    c    -4.577135   -4.524479   -0.029700    0.000000    1.485000
   159  Na    c     4.505103   -6.734438   -2.216836    0.000000    1.000000
   160  Na    c     0.002684   -6.734438   -2.216836    0.000000    1.000000
   161  Na    c     9.005547    6.504369    2.191822    0.000000    1.000000
   162  Na    c    -4.497760    6.504369    2.191822    0.000000    1.000000
   163  O     c     6.763321    6.756485    6.772760    0.000000    0.183000
   164  O     c    -2.255534    6.756485    6.772760    0.000000    0.183000
   165  O     c     6.737926   -6.723511    2.260929    0.000000    0.183000
   166  O     c    -2.230139   -6.723511    2.260929    0.000000    0.183000
   167  O     c    11.226631    2.248935    2.254632    0.000000    0.183000
   168  O     c    -6.718844    2.248935    2.254632    0.000000    0.183000
   169  O     c    -2.256393    2.250103   -6.757394    0.000000    0.183000
   170  O     c     6.764180    2.250103   -6.757394    0.000000    0.183000
   171  Na    c     6.779589    6.820969   -4.504554    0.000000    1.000000
   172  Na    c    -2.271802    6.820969   -4.504554    0.000000    1.000000
   173  Na    c     6.750981   -6.678348   -0.000758    0.000000    1.000000
   174  Na    c    -2.243194   -6.678348   -0.000758    0.000000    1.000000
   175  Na    c    11.350103    2.205398    0.011395    0.000000    1.000000
   176  Na    c    -6.842316    2.205398    0.011395    0.000000    1.000000
   177  Na    c    -2.249028    2.076704    9.021141    0.000000    1.000000
   178  Na    c     6.756815    2.076704    9.021141    0.000000    1.000000
   179  Na    c     6.938250    8.982062    2.303054    0.000000    1.000000
   180  Na    c    -2.430463    8.982062    2.303054    0.000000    1.000000
   181  Na    c     6.603861   -4.500006    6.838098    0.000000    1.000000
   182  Na    c    -2.096074   -4.500006    6.838098    0.000000    1.000000
   183  Na    c    10.925961   -0.003320    2.245347    0.000000    1.000000
   184  Na    c    -6.418174   -0.003320    2.245347    0.000000    1.000000
   185  Na    c    -2.306769    0.003364   -6.845133    0.000000    1.000000
   186  Na    c     6.814556    0.003364   -6.845133    0.000000    1.000000
   187  Cl    c     9.031917    4.513690   -4.542115    0.000000    1.485000
   188  Cl    c    -4.524130    4.513690   -4.542115    0.000000    1.485000
   189  Na    c     9.009792   -2.399104    6.756150    0.000000    1.000000
   190  Na    c    -4.502005   -2.399104    6.756150    0.000000    1.000000
   191  Cl    c     9.068144   -4.508618    4.533546    0.000000    1.485000
   192  Cl    c    -4.560357   -4.508618    4.533546    0.000000    1.485000
   193  Na    c     9.022295    6.677405   -2.242610    0.000000    1.000000
   194  Na    c    -4.514508    6.677405   -2.242610    0.000000    1.000000
   195  O     c     2.253894    6.731710   -6.760639    0.000000    0.183000
   196  O     c     2.253894   -6.729037    6.749829    0.000000    0.183000
   197  O     c    11.223655   -2.253652    2.254546    0.000000    0.183000
   198  O     c    -6.715868   -2.253652    2.254546    0.000000    0.183000
   199  O     c    -2.253636   -2.244972   -6.759142    0.000000    0.183000
   200  O     c     6.761423   -2.244972   -6.759142    0.000000    0.183000
   201  Na    c     2.253894    6.948967    8.988389    0.000000    1.000000
   202  Na    c     2.253894   -6.518148   -4.498238    0.000000    1.000000
   203  Na    c    11.294397   -2.206660    0.008884    0.000000    1.000000
   204  Na    c    -6.786609   -2.206660    0.008884    0.000000    1.000000
   205  Na    c    -2.272375   -2.141804    9.019099    0.000000    1.000000
   206  Na    c     6.780162   -2.141804    9.019099    0.000000    1.000000
   207  Na    c     2.253894    9.005670    6.532912    0.000000    1.000000
   208  Na    c     2.253894   -4.491827   -6.997578    0.000000    1.000000
   209  Na    c    11.469531    4.491946    2.307719    0.000000    1.000000
   210  Na    c    -6.961743    4.491946    2.307719    0.000000    1.000000
   211  Na    c    -2.215458    4.507877   -6.690219    0.000000    1.000000
   212  Na    c     6.723245    4.507877   -6.690219    0.000000    1.000000
   213  O     c     6.764569   -6.759059   -2.265804    0.000000    0.183000
   214  O     c    -2.256782   -6.759059   -2.265804    0.000000    0.183000
   215  O     c    11.264425    2.252114   -2.243594    0.000000    0.183000
   216  O     c    -6.756638    2.252114   -2.243594    0.000000    0.183000
   217  Na    c     6.828093   -6.660825    4.513325    0.000000    1.000000
   218  Na    c    -2.320305   -6.660825    4.513325    0.000000    1.000000
   219  Na    c    11.147705    2.181823    4.506577    0.000000    1.000000
   220  Na    c    -6.639918    2.181823    4.506577    0.000000    1.000000
   221  Na    c     6.810843    9.014614   -2.205663    0.000000    1.000000
   222  Na    c    -2.303056    9.014614   -2.205663    0.000000    1.000000
   223  Na    c    11.132803   -0.003137   -2.306684    0.000000    1.000000
   224  Na    c    -6.625015   -0.003137   -2.306684    0.000000    1.000000
   225  Cl    c     4.505620    9.047529   -4.537932    0.000000    1.485000
   226  Cl    c     0.002167    9.047529   -4.537932    0.000000    1.485000
   227  Cl    c     4.516381   -4.518266    9.043818    0.000000    1.485000
   228  Cl    c    -0.008594   -4.518266    9.043818    0.000000    1.485000
   229  Na    c     4.504201    6.765584   -6.729284    0.000000    1.000000
   230  Na    c     0.003587    6.765584   -6.729284    0.000000    1.000000
   231  Na    c     4.502232   -6.767113    6.694281    0.000000    1.000000
   232  Na    c     0.005555   -6.767113    6.694281    0.000000    1.000000
   233  O     c     2.253894   11.267325    2.271732    0.000000    0.183000
   234  Na    c     2.253894   11.129983   -0.001619    0.000000    1.000000
   235  Na    c     2.253894   -9.041025    2.494404    0.000000    1.000000
   236  O     c     2.253894    2.237159   11.242332    0.000000    0.183000
   237  O     c    11.263215   -2.256512   -2.245870    0.000000    0.183000
   238  O     c    -6.755428   -2.256512   -2.245870    0.000000    0.183000
   239  Na    c     2.253894    2.057519   -8.991013    0.000000    1.000000
   240  Na    c    11.206269   -2.220796    4.508155    0.000000    1.000000
   241  Na    c    -6.698481   -2.220796    4.508155    0.000000    1.000000
   242  Na    c     2.253894    0.002394   11.412940    0.000000    1.000000
   243  Na    c    11.356811    4.504587   -2.223620    0.000000    1.000000
   244  Na    c    -6.849024    4.504587   -2.223620    0.000000    1.000000
   245  Cl    c     9.032028   -4.507970   -4.531960    0.000000    1.485000
   246  Cl    c    -4.524240   -4.507970   -4.531960    0.000000    1.485000
   247  Na    c     9.011899    6.636717    6.873944    0.000000    1.000000
   248  Na    c    -4.504112    6.636717    6.873944    0.000000    1.000000
   249  Cl    c     4.494709   -0.000070   -9.071447    0.000000    1.485000
   250  Cl    c     0.013079   -0.000070   -9.071447    0.000000    1.485000
   251  Cl    c     4.540886   -9.026373    0.000530    0.000000    1.485000
   252  Cl    c    -0.033099   -9.026373    0.000530    0.000000    1.485000
   253  Cl    c     9.033566    0.000893    9.041145    0.000000    1.485000
   254  Cl    c    -4.525779    0.000893    9.041145    0.000000    1.485000
   255  Cl    c     9.012057    9.059967   -0.008130    0.000000    1.485000
   256  Cl    c    -4.504270    9.059967   -0.008130    0.000000    1.485000
   257  Na    c     4.504224    2.325807   11.232541    0.000000    1.000000
   258  Na    c     0.003563    2.325807   11.232541    0.000000    1.000000
   259  Na    c     4.515862   11.211109    2.188621    0.000000    1.000000
   260  Na    c    -0.008074   11.211109    2.188621    0.000000    1.000000
   261  Na    c     9.013939    2.285367   -6.821846    0.000000    1.000000
   262  Na    c    -4.506151    2.285367   -6.821846    0.000000    1.000000
   263  Na    c     9.002498   -6.586524    2.234944    0.000000    1.000000
   264  Na    c    -4.494710   -6.586524    2.234944    0.000000    1.000000
   265  O     c     6.759411    6.767024   -6.756421    0.000000    0.183000
   266  O     c    -2.251624    6.767024   -6.756421    0.000000    0.183000
   267  O     c     6.760915   -6.760340    6.769172    0.000000    0.183000
   268  O     c    -2.253128   -6.760340    6.769172    0.000000    0.183000
   269  O     c    11.264703    2.261630    6.761614    0.000000    0.183000
   270  O     c    -6.756916    2.261630    6.761614    0.000000    0.183000
   271  O     c    11.266897    6.746929    2.255460    0.000000    0.183000
   272  O     c    -6.759110    6.746929    2.255460    0.000000    0.183000
   273  Na    c     6.663608    6.877830    9.017364    0.000000    1.000000
   274  Na    c    -2.155820    6.877830    9.017364    0.000000    1.000000
   275  Na    c     6.788843   -6.810587   -4.505974    0.000000    1.000000
   276  Na    c    -2.281056   -6.810587   -4.505974    0.000000    1.000000
   277  Na    c    11.177492    2.273476   -4.501970    0.000000    1.000000
   278  Na    c    -6.669705    2.273476   -4.501970    0.000000    1.000000
   279  Na    c    11.265217    6.747572    0.002394    0.000000    1.000000
   280  Na    c    -6.757429    6.747572    0.002394    0.000000    1.000000
   281  Na    c     6.867251    9.006093    6.661889    0.000000    1.000000
   282  Na    c    -2.359464    9.006093    6.661889    0.000000    1.000000
   283  Na    c     6.734186   -4.503013   -6.688134    0.000000    1.000000
   284  Na    c    -2.226398   -4.503013   -6.688134    0.000000    1.000000
   285  Na    c    11.151414    0.003097    6.808495    0.000000    1.000000
   286  Na    c    -6.643627    0.003097    6.808495    0.000000    1.000000
   287  Na    c    11.416732   -4.499149    2.259195    0.000000    1.000000
   288  Na    c    -6.908945   -4.499149    2.259195    0.000000    1.000000
   289  O     c     2.253894   11.254214   -2.275604    0.000000    0.183000
   290  O     c     2.253894   -2.233368   11.243879    0.000000    0.183000
   291  Na    c     2.253894   11.451118    4.515087    0.000000    1.000000
   292  Na    c     2.253894   -2.089334   -8.989934    0.000000    1.000000
   293  Na    c     2.253894    4.498787   11.107528    0.000000    1.000000
   294  Na    c     2.253894   -9.011781   -2.468590    0.000000    1.000000
   295  Cl    c     4.529065    4.515704   -9.040067    0.000000    1.485000
[...]
    235 y          4.507787      4.585312     0.077525    Cartesian    1.72
    235 z          4.507787      4.632835     0.125048    Cartesian    2.77
    236 x          2.253894      2.253894     0.000000    Cartesian    0.00
    236 y          2.253894      2.226374    -0.027520    Cartesian   -1.22
    236 z          6.761681      6.692921    -0.068760    Cartesian   -1.02
    237 x          2.253894      2.253894     0.000000    Cartesian    0.00
    237 y          6.761681      6.830264     0.068583    Cartesian    1.01
    237 z          2.253894      2.244233    -0.009661    Cartesian   -0.43
    238 x         -2.253894     -2.259959    -0.006065    Cartesian    0.27
    238 y          2.253894      2.258450     0.004557    Cartesian    0.20
    238 z         -2.253894     -2.241903     0.011990    Cartesian   -0.53
    239 x         -2.253894     -2.186249     0.067645    Cartesian   -3.00
    239 y         -2.253894     -2.240218     0.013675    Cartesian   -0.61
    239 z          2.253894      2.260102     0.006209    Cartesian    0.28
    240 x          4.507787      4.521396     0.013608    Cartesian    0.30
    240 y          0.000000      0.001960     0.001960    Cartesian    0.00
    240 z         -4.507787     -4.526289    -0.018502    Cartesian    0.41
    241 x          4.507787      4.601960     0.094173    Cartesian    2.09
    241 y         -4.507787     -4.625357    -0.117570    Cartesian    2.61
    241 z          0.000000     -0.117787    -0.117787    Cartesian    0.00
    242 x          2.253894      2.253894     0.000000    Cartesian    0.00
    242 y          6.761681      6.767960     0.006279    Cartesian    0.09
    242 z         -2.253894     -2.243710     0.010184    Cartesian   -0.45
    243 x          2.253894      2.253894     0.000000    Cartesian    0.00
    243 y         -2.253894     -2.208621     0.045273    Cartesian   -2.01
    243 z          6.761681      6.693640    -0.068041    Cartesian   -1.01
    244 x          6.761681      6.765030     0.003349    Cartesian    0.05
    244 y         -2.253894     -2.251175     0.002719    Cartesian   -0.12
    244 z         -2.253894     -2.245217     0.008677    Cartesian   -0.38
    245 x          4.507787      4.528527     0.020740    Cartesian    0.46
    245 y          4.507787      4.516161     0.008374    Cartesian    0.19
    245 z         -4.507787     -4.532636    -0.024849    Cartesian    0.55
    246 x          4.507787      4.585060     0.077273    Cartesian    1.71
    246 y         -4.507787     -4.584362    -0.076575    Cartesian    1.70
    246 z          4.507787      4.630749     0.122961    Cartesian    2.73
    247 x          9.015574      9.038767     0.023192    Cartesian    0.26
    247 y          0.000000      0.006633     0.006633    Cartesian    0.00
    247 z          0.000000     -0.027197    -0.027197    Cartesian    0.00
    248 x         -2.253894     -2.264313    -0.010419    Cartesian    0.46
    248 y          2.253894      2.263298     0.009404    Cartesian    0.42
    248 z          6.761681      6.781688     0.020007    Cartesian    0.30
    249 x          6.761681      6.747939    -0.013742    Cartesian   -0.20
    249 y          6.761681      6.716800    -0.044881    Cartesian   -0.66
    249 z          2.253894      2.265263     0.011369    Cartesian    0.50
    250 x          9.015574      9.055056     0.039481    Cartesian    0.44
    250 y          0.000000     -0.008955    -0.008955    Cartesian    0.00
    250 z          4.507787      4.527421     0.019634    Cartesian    0.44
    251 x          9.015574      9.078710     0.063136    Cartesian    0.70
    251 y          4.507787      4.546522     0.038735    Cartesian    0.86
    251 z          0.000000     -0.039889    -0.039889    Cartesian    0.00
    252 x          2.253894      2.253894     0.000000    Cartesian    0.00
    252 y          6.761681      6.745393    -0.016288    Cartesian   -0.24
    252 z          6.761681      6.731465    -0.030216    Cartesian   -0.45
    253 x         -2.253894     -2.264745    -0.010852    Cartesian    0.48
    253 y         -2.253894     -2.251980     0.001913    Cartesian   -0.08
    253 z          6.761681      6.773861     0.012180    Cartesian    0.18
    254 x          2.253894      2.253894     0.000000    Cartesian    0.00
    254 y          2.253894      2.264916     0.011023    Cartesian    0.49
    254 z         -6.761681     -6.724310     0.037370    Cartesian   -0.55
    255 x          2.253894      2.253894     0.000000    Cartesian    0.00
    255 y         -6.761681     -6.807756    -0.046075    Cartesian    0.68
    255 z          2.253894      2.233626    -0.020267    Cartesian   -0.90
    256 x          6.761681      6.771034     0.009354    Cartesian    0.14
    256 y          6.761681      6.768357     0.006676    Cartesian    0.10
    256 z         -2.253894     -2.263610    -0.009716    Cartesian    0.43
    257 x          4.507787      4.518571     0.010783    Cartesian    0.24
    257 y         -4.507787     -4.519174    -0.011387    Cartesian    0.25
    257 z         -4.507787     -4.552938    -0.045150    Cartesian    1.00
    258 x          4.507787      4.534879     0.027092    Cartesian    0.60
    258 y          0.000000     -0.005260    -0.005260    Cartesian    0.00
    258 z          9.015574      9.087970     0.072395    Cartesian    0.80
    259 x          4.507787      4.540449     0.032662    Cartesian    0.72
    259 y          9.015574      9.049609     0.034035    Cartesian    0.38
    259 z          0.000000      0.002959     0.002959    Cartesian    0.00
    260 x          9.015574      9.084323     0.068749    Cartesian    0.76
    260 y          4.507787      4.513658     0.005871    Cartesian    0.13
    260 z          4.507787      4.520623     0.012836    Cartesian    0.28
    261 x          2.253894      2.253894     0.000000    Cartesian    0.00
    261 y         -2.253894     -2.254161    -0.000268    Cartesian    0.01
    261 z         -6.761681     -6.719445     0.042236    Cartesian   -0.62
    262 x          2.253894      2.253894     0.000000    Cartesian    0.00
    262 y         -6.761681     -6.761257     0.000424    Cartesian   -0.01
    262 z         -2.253894     -2.240539     0.013355    Cartesian   -0.59
    263 x          4.507787      4.515864     0.008077    Cartesian    0.18
    263 y          4.507787      4.525486     0.017699    Cartesian    0.39
    263 z          9.015574      9.061794     0.046219    Cartesian    0.51
    264 x          9.015574      9.011685    -0.003890    Cartesian   -0.04
    264 y          0.000000     -0.004691    -0.004691    Cartesian    0.00
    264 z         -4.507787     -4.548680    -0.040893    Cartesian    0.91
    265 x          4.507787      4.486679    -0.021108    Cartesian   -0.47
    265 y          9.015574      9.065972     0.050398    Cartesian    0.56
    265 z          4.507787      4.519311     0.011524    Cartesian    0.26
    266 x          9.015574      9.092112     0.076538    Cartesian    0.85
    266 y         -4.507787     -4.522042    -0.014255    Cartesian    0.32
    266 z          0.000000     -0.030307    -0.030307    Cartesian    0.00
    267 x          6.761681      6.763317     0.001636    Cartesian    0.02
    267 y          6.761681      6.756483    -0.005198    Cartesian   -0.08
    267 z          6.761681      6.772779     0.011098    Cartesian    0.16
    268 x          6.761681      6.737878    -0.023803    Cartesian   -0.35
    268 y         -6.761681     -6.723534     0.038146    Cartesian   -0.56
    268 z          2.253894      2.260932     0.007038    Cartesian    0.31
    269 x         11.269468     11.226656    -0.042812    Cartesian   -0.38
    269 y          2.253894      2.248961    -0.004933    Cartesian   -0.22
    269 z          2.253894      2.254628     0.000734    Cartesian    0.03
    270 x         -2.253894     -2.256412    -0.002519    Cartesian    0.11
    270 y          2.253894      2.250087    -0.003807    Cartesian   -0.17
    270 z         -6.761681     -6.757407     0.004274    Cartesian   -0.06
    271 x          9.015574      9.034002     0.018427    Cartesian    0.20
    271 y          4.507787      4.513932     0.006145    Cartesian    0.14
    271 z         -4.507787     -4.546732    -0.038945    Cartesian    0.86
    272 x          9.015574      9.073416     0.057842    Cartesian    0.64
    272 y         -4.507787     -4.506759     0.001028    Cartesian   -0.02
    272 z          4.507787      4.533523     0.025735    Cartesian    0.57
    273 x          2.253894      2.253894     0.000000    Cartesian    0.00
    273 y          6.761681      6.731691    -0.029990    Cartesian   -0.44
    273 z         -6.761681     -6.760694     0.000987    Cartesian   -0.01
    274 x          2.253894      2.253894     0.000000    Cartesian    0.00
    274 y         -6.761681     -6.729049     0.032631    Cartesian   -0.48
    274 z          6.761681      6.749867    -0.011814    Cartesian   -0.17
    275 x         11.269468     11.223671    -0.045797    Cartesian   -0.41
    275 y         -2.253894     -2.253687     0.000207    Cartesian   -0.01
    275 z          2.253894      2.254537     0.000643    Cartesian    0.03
    276 x         -2.253894     -2.253650     0.000244    Cartesian   -0.01
    276 y         -2.253894     -2.244954     0.008940    Cartesian   -0.40
    276 z         -6.761681     -6.759151     0.002530    Cartesian   -0.04
    277 x          6.761681      6.764566     0.002885    Cartesian    0.04
    277 y         -6.761681     -6.759058     0.002623    Cartesian   -0.04
    277 z         -2.253894     -2.265822    -0.011928    Cartesian    0.53
    278 x         11.269468     11.264433    -0.005035    Cartesian   -0.04
    278 y          2.253894      2.252128    -0.001765    Cartesian   -0.08
    278 z         -2.253894     -2.243579     0.010314    Cartesian   -0.46
    279 x          4.507787      4.499704    -0.008083    Cartesian   -0.18
    279 y          9.015574      9.050677     0.035103    Cartesian    0.39
    279 z         -4.507787     -4.539704    -0.031916    Cartesian    0.71
    280 x          4.507787      4.516716     0.008928    Cartesian    0.20
    280 y         -4.507787     -4.520481    -0.012694    Cartesian    0.28
    280 z          9.015574      9.044231     0.028657    Cartesian    0.32
    281 x          2.253894      2.253894     0.000000    Cartesian    0.00
    281 y         11.269468     11.267312    -0.002156    Cartesian   -0.02
    281 z          2.253894      2.271799     0.017906    Cartesian    0.79
    282 x          2.253894      2.253894     0.000000    Cartesian    0.00
    282 y          2.253894      2.237114    -0.016780    Cartesian   -0.74
    282 z         11.269468     11.242362    -0.027106    Cartesian   -0.24
    283 x         11.269468     11.263200    -0.006268    Cartesian   -0.06
    283 y         -2.253894     -2.256534    -0.002640    Cartesian    0.12
    283 z         -2.253894     -2.245858     0.008035    Cartesian   -0.36
    284 x          9.015574      9.033945     0.018371    Cartesian    0.20
    284 y         -4.507787     -4.507412     0.000375    Cartesian   -0.01
    284 z         -4.507787     -4.535129    -0.027342    Cartesian    0.61
    285 x          4.507787      4.490263    -0.017525    Cartesian   -0.39
    285 y          0.000000      0.000381     0.000381    Cartesian    0.00
    285 z         -9.015574     -9.079404    -0.063830    Cartesian    0.71
    286 x          4.507787      4.538892     0.031105    Cartesian    0.69
    286 y         -9.015574     -9.019890    -0.004316    Cartesian    0.05
    286 z          0.000000      0.001152     0.001152    Cartesian    0.00
    287 x          9.015574      9.034482     0.018908    Cartesian    0.21
    287 y          0.000000      0.001487     0.001487    Cartesian    0.00
    287 z          9.015574      9.042059     0.026485    Cartesian    0.29
    288 x          9.015574      9.008922    -0.006652    Cartesian   -0.07
    288 y          9.015574      9.067566     0.051992    Cartesian    0.58
    288 z          0.000000     -0.009233    -0.009233    Cartesian    0.00
    289 x          6.761681      6.759412    -0.002269    Cartesian   -0.03
    289 y          6.761681      6.767043     0.005362    Cartesian    0.08
    289 z         -6.761681     -6.756397     0.005284    Cartesian   -0.08
    290 x          6.761681      6.760912    -0.000769    Cartesian   -0.01
    290 y         -6.761681     -6.760333     0.001348    Cartesian   -0.02
    290 z          6.761681      6.769186     0.007506    Cartesian    0.11
    291 x         11.269468     11.264689    -0.004779    Cartesian   -0.04
    291 y          2.253894      2.261659     0.007765    Cartesian    0.34
    291 z          6.761681      6.761624    -0.000057    Cartesian   -0.00
    292 x         11.269468     11.266939    -0.002529    Cartesian   -0.02
    292 y          6.761681      6.746900    -0.014781    Cartesian   -0.22
    292 z          2.253894      2.255456     0.001562    Cartesian    0.07
    293 x          2.253894      2.253894     0.000000    Cartesian    0.00
    293 y         11.269468     11.254217    -0.015251    Cartesian   -0.14
    293 z         -2.253894     -2.275675    -0.021781    Cartesian    0.97
    294 x          2.253894      2.253894     0.000000    Cartesian    0.00
    294 y         -2.253894     -2.233322     0.020572    Cartesian   -0.91
    294 z         11.269468     11.243905    -0.025563    Cartesian   -0.23
    295 x          4.507787      4.529526     0.021738    Cartesian    0.48
    295 y          4.507787      4.515783     0.007996    Cartesian    0.18
    295 z         -9.015574     -9.039533    -0.023959    Cartesian    0.27
    296 x          4.507787      4.463693    -0.044094    Cartesian   -0.98
    296 y         -9.015574     -9.091659    -0.076085    Cartesian    0.84
    296 z          4.507787      4.497380    -0.010407    Cartesian   -0.23
    297 x          9.015574      9.026386     0.010811    Cartesian    0.12
    297 y          9.015574      9.060655     0.045081    Cartesian    0.50
    297 z          4.507787      4.521359     0.013572    Cartesian    0.30
    298 x          9.015574      9.057821     0.042247    Cartesian    0.47
    298 y          4.507787      4.515369     0.007582    Cartesian    0.17
    298 z          9.015574      9.034824     0.019250    Cartesian    0.21
    299 x         11.269468     11.263798    -0.005670    Cartesian   -0.05
    299 y         -2.253894     -2.255028    -0.001134    Cartesian    0.05
    299 z          6.761681      6.766291     0.004611    Cartesian    0.07
    300 x         -2.253894     -2.263719    -0.009826    Cartesian    0.44
    300 y         11.269468     11.257829    -0.011639    Cartesian   -0.10
    300 z          2.253894      2.256263     0.002369    Cartesian    0.11
    301 x          2.253894      2.253894     0.000000    Cartesian    0.00
    301 y         -6.761681     -6.740526     0.021155    Cartesian   -0.31
    301 z         -6.761681     -6.765716    -0.004035    Cartesian    0.06
    302 x          6.761681      6.763201     0.001520    Cartesian    0.02
    302 y          2.253894      2.245508    -0.008385    Cartesian   -0.37
    302 z         11.269468     11.271636     0.002168    Cartesian    0.02
    303 x         11.269468     11.278092     0.008624    Cartesian    0.08
    303 y          6.761681      6.761626    -0.000055    Cartesian   -0.00
    303 z         -2.253894     -2.257382    -0.003489    Cartesian    0.15
    304 x         13.523362     13.581642     0.058281    Cartesian    0.43
    304 y          0.000000      0.008386     0.008386    Cartesian    0.00
    304 z          0.000000      0.016585     0.016585    Cartesian    0.00
    305 x          4.507787      4.515199     0.007411    Cartesian    0.16
    305 y          9.015574      9.038445     0.022870    Cartesian    0.25
    305 z          9.015574      9.047524     0.031950    Cartesian    0.35
    306 x          2.253894      2.253894     0.000000    Cartesian    0.00
    306 y          6.761681      6.765720     0.004039    Cartesian    0.06
    306 z         11.269468     11.254983    -0.014485    Cartesian   -0.13
    307 x          2.253894      2.253894     0.000000    Cartesian    0.00
    307 y         11.269468     11.269722     0.000254    Cartesian    0.00
    307 z          6.761681      6.755297    -0.006383    Cartesian   -0.09
    308 x         -2.253894     -2.259414    -0.005520    Cartesian    0.24
    308 y         11.269468     11.272475     0.003007    Cartesian    0.03
    308 z         -2.253894     -2.252608     0.001286    Cartesian   -0.06
    309 x          6.761681      6.763127     0.001446    Cartesian    0.02
    309 y         -2.253894     -2.254581    -0.000687    Cartesian    0.03
    309 z         11.269468     11.277419     0.007951    Cartesian    0.07
    310 x         13.523362     13.618520     0.095159    Cartesian    0.70
    310 y          0.000000     -0.001012    -0.001012    Cartesian    0.00
    310 z          4.507787      4.466415    -0.041372    Cartesian   -0.92
    311 x         13.523362     13.522794    -0.000567    Cartesian   -0.00
    311 y          4.507787      4.558428     0.050641    Cartesian    1.12
    311 z          0.000000     -0.002338    -0.002338    Cartesian    0.00
    312 x          4.507787      4.497392    -0.010395    Cartesian   -0.23
    312 y         -4.507787     -4.527209    -0.019422    Cartesian    0.43
    312 z         -9.015574     -9.043034    -0.027460    Cartesian    0.30
    313 x          4.507787      4.508896     0.001109    Cartesian    0.02
    313 y         -9.015574     -9.076584    -0.061010    Cartesian    0.68
    313 z         -4.507787     -4.523215    -0.015427    Cartesian    0.34
    314 x          9.015574      9.025368     0.009794    Cartesian    0.11
    314 y          9.015574      9.041560     0.025985    Cartesian    0.29
    314 z         -4.507787     -4.536539    -0.028752    Cartesian    0.64
    315 x          9.015574      9.063954     0.048379    Cartesian    0.54
    315 y         -4.507787     -4.525044    -0.017257    Cartesian    0.38
    315 z          9.015574      9.030663     0.015089    Cartesian    0.17
--------------------------------------------------------------------------------


  Time to end of optimisation  =       99.1658 seconds


  Peak dynamic memory used =      91.13 MB 


  Timing analysis for GULP :

--------------------------------------------------------------------------------
  Task / Subroutine                                          Time (Seconds)
--------------------------------------------------------------------------------
  Calculation of reciprocal space energy and derivatives          0.0006
  Calculation of reciprocal space energy using symmetry           0.0009
  Calculation of real space energy and derivatives                0.0035
  Calculation of real space energy using symmetry                 0.0083
  Calculation for region 1 energy and derivatives (2-b)          57.1752
  Calculation for region 2a energy                               35.5624
  Calculation for region 2b energy                                0.0172
  Calculation and manipulation of Hessian matrix                  0.3848
  Calculation of matrix inversion                                 5.5982
  Symmetry generation of equivalent positions                     0.0042
--------------------------------------------------------------------------------
  Total CPU time                                                 99.1659
--------------------------------------------------------------------------------


  Dump file written as Na3OCl.grs


  Job Finished at 18:41.15 26th November   2020                               

