********************************************************************************
*                       GENERAL UTILITY LATTICE PROGRAM                        *
*                                 Julian Gale                                  *
*                       Curtin Institute for Computation                       *
*                    School of Molecular and Life Sciences                     *
*                    Curtin University, Western Australia                      *
********************************************************************************
* Version = 5.2.0 * Last modified =  10th September 2020                       *
********************************************************************************
*  optimise     - perform optimisation run                                     *
*  conp         - constant pressure calculation                                *
*  property     - calculate properties for final geometry                      *
*  defect       - perform defect calculation after bulk run                    *
*  compare      - compare initial and final structures                         *
********************************************************************************

  Job Started  at 18:40.32 26th November   2020                               

  Number of CPUs =     1


  Total number of configurations input =      1

********************************************************************************
*  Input for Configuration =   1                                               *
********************************************************************************

  Formula = ClONa3                                                      

  Number of irreducible atoms/shells =       5


  Total number atoms/shells =       7

  Dimensionality = 3               :  Bulk   


  Symmetry :

  Crystal family                   :  Cubic       
  Crystal class  (Groth - 1921)    :  Cubic Hexakisoctahedral              

  Space group (centrosymmetric)    :  P M 3 M         

  Patterson group                  :  P m -3 m 

  Cartesian lattice vectors (Angstroms) :

        4.504000    0.000000    0.000000
        0.000000    4.504000    0.000000
        0.000000    0.000000    4.504000

  Cell parameters (Angstroms/Degrees):

  a =       4.5040    alpha =  90.0000
  b =       4.5040    beta  =  90.0000
  c =       4.5040    gamma =  90.0000

  Initial cell volume =          91.368216 Angs**3

  Temperature of configuration =   0.00     K 

  Pressure of configuration =         0.000 GPa 

  Fractional coordinates of asymmetric unit :

--------------------------------------------------------------------------------
   No.  Atomic       x           y          z         Charge      Occupancy
        Label      (Frac)      (Frac)     (Frac)        (e)         (Frac)  
--------------------------------------------------------------------------------
      1 Cl    c    0.000000    0.000000    0.000000     1.48500    1.000000    
      2 O     c    0.500000    0.500000    0.500000     0.18300    1.000000    
      3 Na    c    0.500000    0.500000    0.000000     1.00000    1.000000    
      4 Cl    s    0.000000    0.000000    0.000000    -2.48500    1.000000    
      5 O     s    0.500000    0.500000    0.500000    -2.18300    1.000000    
--------------------------------------------------------------------------------


  Constraints : 

--------------------------------------------------------------------------------
  Constraint no.      Unconstrained     Constrained    Coefficient    Offset
                         Variable         Variable
--------------------------------------------------------------------------------
           1              Strain 1        Strain 2       1.00000      0.0000
           2              Strain 1        Strain 3       1.00000      0.0000
--------------------------------------------------------------------------------


********************************************************************************
*  General input information                                                   *
********************************************************************************

  Species output for all configurations : 

--------------------------------------------------------------------------------
  Species    Type    Atomic    Atomic    Charge       Radii (Angs)     Library
                     Number     Mass       (e)     Cova   Ionic  VDW   Symbol
--------------------------------------------------------------------------------
    Na       Core       11      22.99   1.000000   0.970  0.000  2.300          
    O        Core        8      16.00   0.183000   0.730  0.000  1.360          
    O        Shell       8       0.00  -2.183000   0.730  0.000  1.360          
    Cl       Core       17      35.45   1.485000   0.990  0.000  1.650          
    Cl       Shell      17       0.00  -2.485000   0.990  0.000  1.650          
--------------------------------------------------------------------------------


  Lattice summation method               =    Ewald          (3-D)
                                         =    Parry          (2-D)
                                         =    Saunders et al (1-D)
  Accuracy factor for lattice sums       =   12.000


  Analytic derivatives to be used

  Time limit = Infinity

  Maximum range for interatomic potentials =    100000.000000 Angstroms

  General interatomic potentials :

--------------------------------------------------------------------------------
Atom  Types   Potential      Parameter       Value         Units   Cutoffs(Ang)
  1     2                                                            Min /  Max 
--------------------------------------------------------------------------------
O    c O    s Spring (c-s)  Spring k 2       593.72000    eV*Ang^-2 0.000  0.800
                            Spring k 4       0.0000000    eV*Ang^-4 
--------------------------------------------------------------------------------
Cl   c Cl   s Spring (c-s)  Spring k 2       29.380000    eV*Ang^-2 0.000  0.800
                            Spring k 4       0.0000000    eV*Ang^-4 
--------------------------------------------------------------------------------
Na   c Na   c Buckingham    Buckingham A     1788.1900    eV        0.000 12.000
                            Buckingham rho  0.15900000    Ang       
                            Buckingham C     0.0000000    eV*Ang^6  
--------------------------------------------------------------------------------
Na   c O    s Buckingham    Buckingham A     1226.8400    eV        0.000 12.000
                            Buckingham rho  0.30700000    Ang       
                            Buckingham C     0.0000000    eV*Ang^6  
--------------------------------------------------------------------------------
Na   c Cl   s Buckingham    Buckingham A     2314.7000    eV        0.000 12.000
                            Buckingham rho  0.29000000    Ang       
                            Buckingham C     0.0000000    eV*Ang^6  
--------------------------------------------------------------------------------
O    s O    s Buckingham    Buckingham A     22764.300    eV        0.000 12.000
                            Buckingham rho  0.14900000    Ang       
                            Buckingham C     13.190000    eV*Ang^6  
--------------------------------------------------------------------------------
O    s Cl   s Buckingham    Buckingham A     8286.9100    eV        0.000 12.000
                            Buckingham rho  0.25900000    Ang       
                            Buckingham C     62.200000    eV*Ang^6  
--------------------------------------------------------------------------------
Cl   s Cl   s Buckingham    Buckingham A     1227.2000    eV        0.000 12.000
                            Buckingham rho  0.32100000    Ang       
                            Buckingham C     14.530000    eV*Ang^6  
--------------------------------------------------------------------------------

********************************************************************************
*  Output for configuration   1                                                *
********************************************************************************


  Components of energy : 

--------------------------------------------------------------------------------
  Interatomic potentials     =           5.13022605 eV    
  Monopole - monopole (real) =         -10.03624526 eV    
  Monopole - monopole (recip)=         -29.53581274 eV    
  Monopole - monopole (total)=         -39.57205800 eV    
--------------------------------------------------------------------------------
  Total lattice energy       =         -34.44183194 eV    
--------------------------------------------------------------------------------
  Total lattice energy       =           -3323.1103 kJ/(mole unit cells)
--------------------------------------------------------------------------------


  Number of variables =        1

  Maximum number of calculations  =          1000
  Maximum Hessian update interval =            10
  Maximum step size               =   1.000000000
  Maximum parameter tolerance     =   0.000010000
  Maximum function  tolerance     =   0.000010000
  Maximum gradient  tolerance     =   0.001000000
  Maximum gradient  component     =   0.010000000

  Symmetry constrained optimisation

  Symmetry used for second derivatives

  Cell parameters to be optimised using strains

  Newton-Raphson optimiser to be used

  BFGS hessian update to be used

  Lower half triangular hessian to be used

  Start of bulk optimisation :

  Cycle:      0 Energy:       -34.441832  Gnorm:      0.196570  CPU:    0.015
  ** Hessian calculated **
  Cycle:      1 Energy:       -34.441914  Gnorm:      0.000103  CPU:    0.019


  **** Optimisation achieved ****


  Final energy =     -34.44191447 eV
  Final Gnorm  =       0.00000000

  Components of energy : 

--------------------------------------------------------------------------------
  Interatomic potentials     =           5.09689708 eV    
  Monopole - monopole (real) =         -10.02781331 eV    
  Monopole - monopole (recip)=         -29.51099824 eV    
  Monopole - monopole (total)=         -39.53881155 eV    
--------------------------------------------------------------------------------
  Total lattice energy       =         -34.44191447 eV    
--------------------------------------------------------------------------------
  Total lattice energy       =           -3323.1183 kJ/(mole unit cells)
--------------------------------------------------------------------------------

  Final asymmetric unit coordinates :

--------------------------------------------------------------------------------
   No.  Atomic        x           y           z         Radius
        Label       (Frac)      (Frac)      (Frac)       (Angs) 
--------------------------------------------------------------------------------
     1  Cl    c     0.000000    0.000000    0.000000    0.000000
     2  O     c     0.500000    0.500000    0.500000    0.000000
     3  Na    c     0.500000    0.500000    0.000000    0.000000
     4  Cl    s     0.000000    0.000000    0.000000    0.000000
     5  O     s     0.500000    0.500000    0.500000    0.000000
--------------------------------------------------------------------------------

  Final Cartesian lattice vectors (Angstroms) :

        4.507787    0.000000    0.000000
        0.000000    4.507787    0.000000
        0.000000    0.000000    4.507787


  Final cell parameters and derivatives :

--------------------------------------------------------------------------------
       a            4.507787 Angstrom     dE/de1(xx)     0.000000 eV/strain
       b            4.507787 Angstrom     dE/de2(yy)     0.000000 eV/strain
       c            4.507787 Angstrom     dE/de3(zz)     0.000000 eV/strain
       alpha       90.000000 Degrees      dE/de4(yz)     0.000000 eV/strain
       beta        90.000000 Degrees      dE/de5(xz)     0.000000 eV/strain
       gamma       90.000000 Degrees      dE/de6(xy)     0.000000 eV/strain
--------------------------------------------------------------------------------

  Primitive cell volume =            91.598892 Angs**3

  Density of cell =      2.183054 g/cm**3

  Non-primitive cell volume =            91.598892 Angs**3


  Final internal derivatives :

--------------------------------------------------------------------------------
   No.  Atomic          a             b             c           Radius
        Label          (eV)          (eV)          (eV)        (eV/Angs)
--------------------------------------------------------------------------------
      1 Cl    c       0.000000      0.000000      0.000000      0.000000
      2 O     c       0.000000      0.000000      0.000000      0.000000
      3 Na    c       0.000000      0.000000      0.000000      0.000000
      4 Cl    s       0.000000      0.000000      0.000000      0.000000
      5 O     s       0.000000      0.000000      0.000000      0.000000
--------------------------------------------------------------------------------
  Maximum abs         0.000000      0.000000      0.000000      0.000000
--------------------------------------------------------------------------------

  Comparison of initial and final structures : 

--------------------------------------------------------------------------------
  Parameter   Initial value   Final value   Difference    Units      Percent
--------------------------------------------------------------------------------
    Volume        91.368216     91.598892     0.230676    Angs**3      0.25
    a              4.504000      4.507787     0.003787    Angstroms    0.08
    b              4.504000      4.507787     0.003787    Angstroms    0.08
    c              4.504000      4.507787     0.003787    Angstroms    0.08
    alpha         90.000000     90.000000     0.000000    Degrees      0.00
    beta          90.000000     90.000000     0.000000    Degrees      0.00
    gamma         90.000000     90.000000     0.000000    Degrees      0.00
      1 x          0.000000      0.000000     0.000000    Fractional   0.00
      1 y          0.000000      0.000000     0.000000    Fractional   0.00
      1 z          0.000000      0.000000     0.000000    Fractional   0.00
      2 x          0.500000      0.500000     0.000000    Fractional   0.00
      2 y          0.500000      0.500000     0.000000    Fractional   0.00
      2 z          0.500000      0.500000     0.000000    Fractional   0.00
      3 x          0.500000      0.500000     0.000000    Fractional   0.00
      3 y          0.500000      0.500000     0.000000    Fractional   0.00
      3 z          0.000000      0.000000     0.000000    Fractional   0.00
      4 x          0.000000      0.000000     0.000000    Fractional   0.00
      4 y          0.000000      0.000000     0.000000    Fractional   0.00
      4 z          0.000000      0.000000     0.000000    Fractional   0.00
      5 x          0.500000      0.500000     0.000000    Fractional   0.00
      5 y          0.500000      0.500000     0.000000    Fractional   0.00
      5 z          0.500000      0.500000     0.000000    Fractional   0.00
--------------------------------------------------------------------------------


  Born effective charge tensors : 

-------------------------------------------------------------------------------
  Atom             x           y             z
-------------------------------------------------------------------------------
    1 Cl    x      -1.0181     -0.0000      0.0000
            y      -0.0000     -1.0181      0.0000
            z       0.0000      0.0000     -1.0181
-------------------------------------------------------------------------------
    2 O     x      -2.2647      0.0000     -0.0000
            y       0.0000     -2.2647     -0.0000
            z      -0.0000     -0.0000     -2.2647
-------------------------------------------------------------------------------
    3 Na    x       1.2258     -0.0000      0.0000
            y      -0.0000      1.2258     -0.0000
            z       0.0000     -0.0000      0.8313
-------------------------------------------------------------------------------




  Elastic Constant Matrix: (Units=GPa)

-------------------------------------------------------------------------------
  Indices      1         2         3         4         5         6    
-------------------------------------------------------------------------------
       1     95.8177   20.0737   20.0737   -0.0000   -0.0000    0.0000
       2     20.0737   95.8177   20.0737   -0.0000   -0.0000    0.0000
       3     20.0737   20.0737   95.8177   -0.0000   -0.0000    0.0000
       4     -0.0000   -0.0000   -0.0000   20.0737   -0.0000    0.0000
       5     -0.0000   -0.0000   -0.0000   -0.0000   20.0737    0.0000
       6      0.0000    0.0000    0.0000    0.0000    0.0000   20.0737
-------------------------------------------------------------------------------


  Elastic Compliance Matrix: (Units=1/GPa)

-------------------------------------------------------------------------------
  Indices      1         2         3         4         5         6    
-------------------------------------------------------------------------------
       1    0.011253 -0.001949 -0.001949  0.000000  0.000000 -0.000000
       2   -0.001949  0.011253 -0.001949  0.000000  0.000000  0.000000
       3   -0.001949 -0.001949  0.011253  0.000000  0.000000 -0.000000
       4    0.000000  0.000000  0.000000  0.049816  0.000000 -0.000000
       5    0.000000  0.000000  0.000000  0.000000  0.049816 -0.000000
       6   -0.000000  0.000000 -0.000000 -0.000000 -0.000000  0.049816
-------------------------------------------------------------------------------

  Mechanical properties :

-------------------------------------------------------------------------------
  Convention :                    Reuss         Voigt         Hill
-------------------------------------------------------------------------------
  Bulk  Modulus (GPa)     =      45.32174      45.32174      45.32174
  Shear Modulus (GPa)     =      24.72085      27.19304      25.95695
-------------------------------------------------------------------------------
  Velocity S-wave (km/s)  =       3.36511       3.52937       3.44822
  Velocity P-wave (km/s)  =       5.98827       6.11304       6.05098
-------------------------------------------------------------------------------
  Compressibility (1/GPa) =    0.02206447
-------------------------------------------------------------------------------
  Stress axis :                     x             y             z
-------------------------------------------------------------------------------
  Youngs Moduli (GPa)     =      88.86373      88.86373      88.86373
-------------------------------------------------------------------------------
  Poissons Ratio (x)      =                     0.17321       0.17321
  Poissons Ratio (y)      =       0.17321                     0.17321
  Poissons Ratio (z)      =       0.17321       0.17321
-------------------------------------------------------------------------------


  Piezoelectric Strain Matrix: (Units=C/m**2)

-------------------------------------------------------------------------------
  Indices      1         2         3         4         5         6    
-------------------------------------------------------------------------------
       x    -0.00000  -0.00000  -0.00000   0.00000  -0.00000  -0.00000
       y    -0.00000  -0.00000   0.00000  -0.00000   0.00000   0.00000
       z    -0.00000  -0.00000  -0.00000  -0.00000   0.00000   0.00000
-------------------------------------------------------------------------------


  Piezoelectric Stress Matrix: (Units=10**-11 C/N)

-------------------------------------------------------------------------------
  Indices      1         2         3         4         5         6    
-------------------------------------------------------------------------------
       x    -0.00000   0.00000   0.00000   0.00000  -0.00000  -0.00000
       y    -0.00000  -0.00000   0.00000  -0.00000   0.00000   0.00000
       z     0.00000   0.00000  -0.00000  -0.00000   0.00000   0.00000
-------------------------------------------------------------------------------


  Static dielectric constant tensor : 

-------------------------------------------------------------------------------
              x         y         z
-------------------------------------------------------------------------------
       x    22.84729   0.00000   0.00000
       y     0.00000  22.84729  -0.00000
       z     0.00000  -0.00000  22.84729
--------------------------------------------------------------------------------

  High frequency dielectric constant tensor : 

-------------------------------------------------------------------------------
              x         y         z
-------------------------------------------------------------------------------
       x     1.47557   0.00000  -0.00000
       y     0.00000   1.47557  -0.00000
       z    -0.00000  -0.00000   1.47557
-------------------------------------------------------------------------------

  Static refractive indices : 

-------------------------------------------------------------------------------
    1 =    4.77988      2 =    4.77988      3 =    4.77988
-------------------------------------------------------------------------------

  High frequency refractive indices : 

-------------------------------------------------------------------------------
    1 =    1.21473      2 =    1.21473      3 =    1.21473
-------------------------------------------------------------------------------


  Time to end of optimisation =       0.0291 seconds

********************************************************************************
*  Defect calculation for configuration   1 :                                  *
********************************************************************************

  Total number of defects =      3

  Total charge on defect  =  -1.00

  Defect centre is at   0.5000   0.2500   0.2500  Frac

  Region 1 radius =  12.0000      Number of ions =    543

  Number of symmetry inequivalent region 1 ions  =    315

  Region 2 radius =  16.0000      Number of ions =    766

  Number of symmetry inequivalent region 2a ions =    417

  Region 2a mode = 4 : screened electrostatics due to region 1 
                       neglect correction to region 1 forces from 2a
                       region 2a displacements based on defects only

  Region 2a ions will only interact with defects in region 1

  Vacancies:

--------------------------------------------------------------------------------
    Specification type     Symbol/Number         x          y          z
--------------------------------------------------------------------------------
    Fractional                               0.500000   0.500000   0.000000
    Fractional                               0.500000   0.000000   0.500000
--------------------------------------------------------------------------------

  Interstitials:

--------------------------------------------------------------------------------
    Specification type     Symbol/Number         x          y          z
--------------------------------------------------------------------------------
    Atom/Fractional         Na               0.500000   0.360000   0.140000
--------------------------------------------------------------------------------


  Symmetry reduced region 1 (Relative to defect centre) :

--------------------------------------------------------------------------------
   No.   Atomic       x            y             z       Radius  Multiplicity   
         Label      (Angs)       (Angs)        (Angs)    (Angs)     
--------------------------------------------------------------------------------
     1  Na    c      0.0000       0.4959 *    -0.4959 *  0.0000     1    Defect
     2  O     c      0.0000       1.1269 *     1.1269 *  0.0000     1          
     3  Cl    c      2.2539 *    -1.1269 *    -1.1269 *  0.0000     2          
     4  Na    c      2.2539 *     1.1269 *     1.1269 *  0.0000     2          
     5  O     c      0.0000       1.1269 *    -3.3808 *  0.0000     1          
     6  O     c      0.0000      -3.3808 *     1.1269 *  0.0000     1          
     7  Na    c      0.0000       1.1269 *     3.3808 *  0.0000     1          
     8  Na    c      0.0000      -3.3808 *    -1.1269 *  0.0000     1          
     9  Na    c      0.0000      -1.1269 *    -3.3808 *  0.0000     1          
    10  Na    c      0.0000       3.3808 *     1.1269 *  0.0000     1          
    11  Cl    c      2.2539 *    -1.1269 *     3.3808 *  0.0000     2          
    12  Cl    c      2.2539 *     3.3808 *    -1.1269 *  0.0000     2          
    13  Na    c      2.2539 *     1.1269 *    -3.3808 *  0.0000     2          
    14  Na    c      2.2539 *    -3.3808 *     1.1269 *  0.0000     2          
    15  O     c     -4.5078 *     1.1269 *     1.1269 *  0.0000     2          
    16  Na    c     -4.5078 *     1.1269 *    -1.1269 *  0.0000     2          
    17  Na    c     -4.5078 *    -1.1269 *     1.1269 *  0.0000     2          
    18  O     c      0.0000      -3.3808 *    -3.3808 *  0.0000     1          
    19  Na    c      0.0000      -3.3808 *     3.3808 *  0.0000     1          
    20  Na    c      0.0000       3.3808 *    -3.3808 *  0.0000     1          
    21  Cl    c      2.2539 *     3.3808 *     3.3808 *  0.0000     2          
    22  Na    c      2.2539 *    -3.3808 *    -3.3808 *  0.0000     2          
    23  O     c      0.0000       1.1269 *     5.6347 *  0.0000     1          
    24  O     c      0.0000       5.6347 *     1.1269 *  0.0000     1          
    25  Na    c      0.0000       1.1269 *    -5.6347 *  0.0000     1          
    26  Na    c      0.0000       5.6347 *    -1.1269 *  0.0000     1          
    27  Na    c      0.0000      -1.1269 *     5.6347 *  0.0000     1          
    28  Na    c      0.0000      -5.6347 *     1.1269 *  0.0000     1          
    29  O     c     -4.5078 *     1.1269 *    -3.3808 *  0.0000     2          
    30  O     c     -4.5078 *    -3.3808 *     1.1269 *  0.0000     2          
    31  Na    c     -4.5078 *     1.1269 *     3.3808 *  0.0000     2          
    32  Na    c     -4.5078 *    -3.3808 *    -1.1269 *  0.0000     2          
    33  Na    c     -4.5078 *    -1.1269 *    -3.3808 *  0.0000     2          
    34  Na    c     -4.5078 *     3.3808 *     1.1269 *  0.0000     2          
    35  Cl    c      2.2539 *    -1.1269 *    -5.6347 *  0.0000     2          
    36  Cl    c      2.2539 *    -5.6347 *    -1.1269 *  0.0000     2          
    37  Na    c      2.2539 *     1.1269 *     5.6347 *  0.0000     2          
    38  Na    c      2.2539 *     5.6347 *     1.1269 *  0.0000     2          
    39  O     c      0.0000       5.6347 *    -3.3808 *  0.0000     1          
    40  O     c      0.0000      -3.3808 *     5.6347 *  0.0000     1          
    41  Na    c      0.0000       5.6347 *     3.3808 *  0.0000     1          
    42  Na    c      0.0000      -3.3808 *    -5.6347 *  0.0000     1          
    43  Na    c      0.0000       3.3808 *     5.6347 *  0.0000     1          
    44  Na    c      0.0000      -5.6347 *    -3.3808 *  0.0000     1          
    45  O     c      4.5078 *    -3.3808 *    -3.3808 *  0.0000     2          
    46  Na    c      4.5078 *    -3.3808 *     3.3808 *  0.0000     2          
    47  Na    c      4.5078 *     3.3808 *    -3.3808 *  0.0000     2          
    48  Cl    c      2.2539 *     3.3808 *    -5.6347 *  0.0000     2          
    49  Cl    c      2.2539 *    -5.6347 *     3.3808 *  0.0000     2          
    50  Na    c      2.2539 *     5.6347 *    -3.3808 *  0.0000     2          
    51  Na    c      2.2539 *    -3.3808 *     5.6347 *  0.0000     2          
    52  Cl    c      6.7617 *    -1.1269 *    -1.1269 *  0.0000     2          
    53  Na    c      6.7617 *     1.1269 *     1.1269 *  0.0000     2          
    54  O     c     -4.5078 *     1.1269 *     5.6347 *  0.0000     2          
    55  Na    c     -4.5078 *     1.1269 *    -5.6347 *  0.0000     2          
    56  Na    c     -4.5078 *    -1.1269 *     5.6347 *  0.0000     2          
    57  O     c      4.5078 *     5.6347 *     1.1269 *  0.0000     2          
    58  Na    c      4.5078 *     5.6347 *    -1.1269 *  0.0000     2          
    59  Na    c      4.5078 *    -5.6347 *     1.1269 *  0.0000     2          
    60  Cl    c      6.7617 *    -1.1269 *     3.3808 *  0.0000     2          
    61  Na    c      6.7617 *     1.1269 *    -3.3808 *  0.0000     2          
    62  Cl    c      6.7617 *     3.3808 *    -1.1269 *  0.0000     2          
    63  Na    c      6.7617 *    -3.3808 *     1.1269 *  0.0000     2          
    64  O     c      0.0000       5.6347 *     5.6347 *  0.0000     1          
    65  Na    c      0.0000       5.6347 *    -5.6347 *  0.0000     1          
    66  Na    c      0.0000      -5.6347 *     5.6347 *  0.0000     1          
    67  O     c     -4.5078 *    -3.3808 *     5.6347 *  0.0000     2          
    68  Na    c     -4.5078 *    -3.3808 *    -5.6347 *  0.0000     2          
    69  Na    c     -4.5078 *     3.3808 *     5.6347 *  0.0000     2          
    70  O     c      0.0000       1.1269 *    -7.8886 *  0.0000     1          
    71  O     c      0.0000      -7.8886 *     1.1269 *  0.0000     1          
    72  O     c      4.5078 *     5.6347 *    -3.3808 *  0.0000     2          
    73  Na    c      0.0000       1.1269 *     7.8886 *  0.0000     1          
    74  Na    c      0.0000      -7.8886 *    -1.1269 *  0.0000     1          
    75  Na    c      4.5078 *     5.6347 *     3.3808 *  0.0000     2          
    76  Na    c      0.0000      -1.1269 *    -7.8886 *  0.0000     1          
    77  Na    c      0.0000       7.8886 *     1.1269 *  0.0000     1          
    78  Na    c      4.5078 *    -5.6347 *    -3.3808 *  0.0000     2          
    79  Cl    c      2.2539 *    -5.6347 *    -5.6347 *  0.0000     2          
    80  Na    c      2.2539 *     5.6347 *     5.6347 *  0.0000     2          
    81  Cl    c      2.2539 *    -1.1269 *     7.8886 *  0.0000     2          
    82  Na    c      2.2539 *     1.1269 *    -7.8886 *  0.0000     2          
    83  Cl    c      2.2539 *     7.8886 *    -1.1269 *  0.0000     2          
    84  Cl    c      6.7617 *     3.3808 *     3.3808 *  0.0000     2          
    85  Na    c      2.2539 *    -7.8886 *     1.1269 *  0.0000     2          
    86  Na    c      6.7617 *    -3.3808 *    -3.3808 *  0.0000     2          
    87  O     c      0.0000      -3.3808 *    -7.8886 *  0.0000     1          
    88  O     c      0.0000      -7.8886 *    -3.3808 *  0.0000     1          
    89  Na    c      0.0000      -3.3808 *     7.8886 *  0.0000     1          
    90  Na    c      0.0000      -7.8886 *     3.3808 *  0.0000     1          
    91  Na    c      0.0000       3.3808 *    -7.8886 *  0.0000     1          
    92  Na    c      0.0000       7.8886 *    -3.3808 *  0.0000     1          
    93  Cl    c      2.2539 *     3.3808 *     7.8886 *  0.0000     2          
    94  Cl    c      6.7617 *    -1.1269 *    -5.6347 *  0.0000     2          
    95  Na    c      2.2539 *    -3.3808 *    -7.8886 *  0.0000     2          
    96  Na    c      6.7617 *     1.1269 *     5.6347 *  0.0000     2          
    97  Cl    c      2.2539 *     7.8886 *     3.3808 *  0.0000     2          
    98  Cl    c      6.7617 *    -5.6347 *    -1.1269 *  0.0000     2          
    99  Na    c      2.2539 *    -7.8886 *    -3.3808 *  0.0000     2          
   100  Na    c      6.7617 *     5.6347 *     1.1269 *  0.0000     2          
   101  O     c      4.5078 *     5.6347 *     5.6347 *  0.0000     2          
   102  O     c      4.5078 *    -7.8886 *     1.1269 *  0.0000     2          
   103  O     c      9.0156 *     1.1269 *     1.1269 *  0.0000     2          
   104  O     c     -4.5078 *     1.1269 *    -7.8886 *  0.0000     2          
   105  Na    c      4.5078 *     5.6347 *    -5.6347 *  0.0000     2          
   106  Na    c      4.5078 *    -7.8886 *    -1.1269 *  0.0000     2          
   107  Na    c      9.0156 *     1.1269 *    -1.1269 *  0.0000     2          
   108  Na    c     -4.5078 *     1.1269 *     7.8886 *  0.0000     2          
   109  Na    c      4.5078 *     7.8886 *     1.1269 *  0.0000     2          
   110  Na    c      4.5078 *    -5.6347 *     5.6347 *  0.0000     2          
   111  Na    c      9.0156 *    -1.1269 *     1.1269 *  0.0000     2          
   112  Na    c     -4.5078 *    -1.1269 *    -7.8886 *  0.0000     2          
   113  Cl    c      6.7617 *     3.3808 *    -5.6347 *  0.0000     2          
   114  Na    c      6.7617 *    -3.3808 *     5.6347 *  0.0000     2          
   115  Cl    c      6.7617 *    -5.6347 *     3.3808 *  0.0000     2          
   116  Na    c      6.7617 *     5.6347 *    -3.3808 *  0.0000     2          
   117  O     c      0.0000       5.6347 *    -7.8886 *  0.0000     1          
   118  O     c      0.0000      -7.8886 *     5.6347 *  0.0000     1          
   119  O     c      9.0156 *    -3.3808 *     1.1269 *  0.0000     2          
   120  O     c     -4.5078 *    -3.3808 *    -7.8886 *  0.0000     2          
   121  Na    c      0.0000       5.6347 *     7.8886 *  0.0000     1          
   122  Na    c      0.0000      -7.8886 *    -5.6347 *  0.0000     1          
   123  Na    c      9.0156 *    -3.3808 *    -1.1269 *  0.0000     2          
   124  Na    c     -4.5078 *    -3.3808 *     7.8886 *  0.0000     2          
   125  Na    c      0.0000       7.8886 *     5.6347 *  0.0000     1          
   126  Na    c      0.0000      -5.6347 *    -7.8886 *  0.0000     1          
   127  Na    c      9.0156 *     3.3808 *     1.1269 *  0.0000     2          
   128  Na    c     -4.5078 *     3.3808 *    -7.8886 *  0.0000     2          
   129  O     c      4.5078 *    -7.8886 *    -3.3808 *  0.0000     2          
   130  O     c      9.0156 *     1.1269 *    -3.3808 *  0.0000     2          
   131  Na    c      4.5078 *    -7.8886 *     3.3808 *  0.0000     2          
   132  Na    c      9.0156 *     1.1269 *     3.3808 *  0.0000     2          
   133  Na    c      4.5078 *     7.8886 *    -3.3808 *  0.0000     2          
   134  Na    c      9.0156 *    -1.1269 *    -3.3808 *  0.0000     2          
   135  Cl    c      2.2539 *     7.8886 *    -5.6347 *  0.0000     2          
   136  Cl    c      2.2539 *    -5.6347 *     7.8886 *  0.0000     2          
   137  Na    c      2.2539 *     5.6347 *    -7.8886 *  0.0000     2          
   138  Na    c      2.2539 *    -7.8886 *     5.6347 *  0.0000     2          
   139  O     c      0.0000      10.1425 *     1.1269 *  0.0000     1          
   140  Na    c      0.0000      10.1425 *    -1.1269 *  0.0000     1          
   141  Na    c      0.0000     -10.1425 *     1.1269 *  0.0000     1          
   142  O     c      0.0000       1.1269 *    10.1425 *  0.0000     1          
   143  O     c      9.0156 *    -3.3808 *    -3.3808 *  0.0000     2          
   144  Na    c      0.0000       1.1269 *   -10.1425 *  0.0000     1          
   145  Na    c      9.0156 *    -3.3808 *     3.3808 *  0.0000     2          
   146  Na    c      0.0000      -1.1269 *    10.1425 *  0.0000     1          
   147  Na    c      9.0156 *     3.3808 *    -3.3808 *  0.0000     2          
   148  Cl    c      6.7617 *    -5.6347 *    -5.6347 *  0.0000     2          
   149  Na    c      6.7617 *     5.6347 *     5.6347 *  0.0000     2          
   150  Cl    c      2.2539 *    -1.1269 *   -10.1425 *  0.0000     2          
   151  Cl    c      2.2539 *   -10.1425 *    -1.1269 *  0.0000     2          
   152  Cl    c      6.7617 *    -1.1269 *     7.8886 *  0.0000     2          
   153  Cl    c      6.7617 *     7.8886 *    -1.1269 *  0.0000     2          
   154  Na    c      2.2539 *     1.1269 *    10.1425 *  0.0000     2          
   155  Na    c      2.2539 *    10.1425 *     1.1269 *  0.0000     2          
   156  Na    c      6.7617 *     1.1269 *    -7.8886 *  0.0000     2          
   157  Na    c      6.7617 *    -7.8886 *     1.1269 *  0.0000     2          
   158  O     c      4.5078 *     5.6347 *    -7.8886 *  0.0000     2          
   159  O     c      4.5078 *    -7.8886 *     5.6347 *  0.0000     2          
   160  O     c      9.0156 *     1.1269 *     5.6347 *  0.0000     2          
   161  O     c      9.0156 *     5.6347 *     1.1269 *  0.0000     2          
   162  Na    c      4.5078 *     5.6347 *     7.8886 *  0.0000     2          
   163  Na    c      4.5078 *    -7.8886 *    -5.6347 *  0.0000     2          
   164  Na    c      9.0156 *     1.1269 *    -5.6347 *  0.0000     2          
   165  Na    c      9.0156 *     5.6347 *    -1.1269 *  0.0000     2          
   166  Na    c      4.5078 *     7.8886 *     5.6347 *  0.0000     2          
   167  Na    c      4.5078 *    -5.6347 *    -7.8886 *  0.0000     2          
   168  Na    c      9.0156 *    -1.1269 *     5.6347 *  0.0000     2          
   169  Na    c      9.0156 *    -5.6347 *     1.1269 *  0.0000     2          
   170  O     c      0.0000      10.1425 *    -3.3808 *  0.0000     1          
   171  O     c      0.0000      -3.3808 *    10.1425 *  0.0000     1          
   172  Na    c      0.0000      10.1425 *     3.3808 *  0.0000     1          
   173  Na    c      0.0000      -3.3808 *   -10.1425 *  0.0000     1          
   174  Na    c      0.0000       3.3808 *    10.1425 *  0.0000     1          
   175  Na    c      0.0000     -10.1425 *    -3.3808 *  0.0000     1          
   176  Cl    c      2.2539 *     3.3808 *   -10.1425 *  0.0000     2          
   177  Cl    c      2.2539 *   -10.1425 *     3.3808 *  0.0000     2          
   178  Cl    c      6.7617 *     7.8886 *     3.3808 *  0.0000     2          
   179  Na    c      2.2539 *    10.1425 *    -3.3808 *  0.0000     2          
   180  Na    c      2.2539 *    -3.3808 *    10.1425 *  0.0000     2          
   181  Na    c      6.7617 *    -7.8886 *    -3.3808 *  0.0000     2          
   182  Cl    c      6.7617 *     3.3808 *     7.8886 *  0.0000     2          
   183  Na    c      6.7617 *    -3.3808 *    -7.8886 *  0.0000     2          
   184  O     c      9.0156 *    -3.3808 *     5.6347 *  0.0000     2          
   185  O     c     -4.5078 *    10.1425 *     1.1269 *  0.0000     2          
   186  Na    c      9.0156 *    -3.3808 *    -5.6347 *  0.0000     2          
   187  Na    c     -4.5078 *    10.1425 *    -1.1269 *  0.0000     2          
   188  Na    c      9.0156 *     3.3808 *     5.6347 *  0.0000     2          
   189  Na    c     -4.5078 *   -10.1425 *     1.1269 *  0.0000     2          
   190  O     c      0.0000      -7.8886 *    -7.8886 *  0.0000     1          
   191  O     c      4.5078 *     1.1269 *    10.1425 *  0.0000     2          
   192  O     c      9.0156 *     5.6347 *    -3.3808 *  0.0000     2          
   193  Na    c      0.0000      -7.8886 *     7.8886 *  0.0000     1          
   194  Na    c      4.5078 *     1.1269 *   -10.1425 *  0.0000     2          
   195  Na    c      9.0156 *     5.6347 *     3.3808 *  0.0000     2          
   196  Na    c      0.0000       7.8886 *    -7.8886 *  0.0000     1          
   197  Na    c      4.5078 *    -1.1269 *    10.1425 *  0.0000     2          
   198  Na    c      9.0156 *    -5.6347 *    -3.3808 *  0.0000     2          
   199  Cl    c     11.2695 *    -1.1269 *    -1.1269 *  0.0000     2          
   200  Na    c     11.2695 *     1.1269 *     1.1269 *  0.0000     2          
   201  Cl    c      2.2539 *     7.8886 *     7.8886 *  0.0000     2          
   202  Na    c      2.2539 *    -7.8886 *    -7.8886 *  0.0000     2          
   203  O     c      0.0000       5.6347 *    10.1425 *  0.0000     1          
   204  O     c      0.0000      10.1425 *     5.6347 *  0.0000     1          
   205  O     c     -4.5078 *    10.1425 *    -3.3808 *  0.0000     2          
   206  Na    c      0.0000       5.6347 *   -10.1425 *  0.0000     1          
   207  Na    c      0.0000      10.1425 *    -5.6347 *  0.0000     1          
   208  Na    c     -4.5078 *    10.1425 *     3.3808 *  0.0000     2          
   209  Na    c      0.0000      -5.6347 *    10.1425 *  0.0000     1          
   210  Na    c      0.0000     -10.1425 *     5.6347 *  0.0000     1          
   211  Na    c     -4.5078 *   -10.1425 *    -3.3808 *  0.0000     2          
   212  O     c      4.5078 *    -3.3808 *    10.1425 *  0.0000     2          
   213  Na    c      4.5078 *    -3.3808 *   -10.1425 *  0.0000     2          
   214  Na    c      4.5078 *     3.3808 *    10.1425 *  0.0000     2          
   215  Cl    c     11.2695 *    -1.1269 *     3.3808 *  0.0000     2          
   216  Cl    c     11.2695 *     3.3808 *    -1.1269 *  0.0000     2          
   217  Na    c     11.2695 *     1.1269 *    -3.3808 *  0.0000     2          
   218  Na    c     11.2695 *    -3.3808 *     1.1269 *  0.0000     2          
   219  Cl    c      2.2539 *    -5.6347 *   -10.1425 *  0.0000     2          
   220  Cl    c      2.2539 *   -10.1425 *    -5.6347 *  0.0000     2          
   221  Cl    c      6.7617 *     7.8886 *    -5.6347 *  0.0000     2          
   222  Na    c      2.2539 *     5.6347 *    10.1425 *  0.0000     2          
   223  Na    c      2.2539 *    10.1425 *     5.6347 *  0.0000     2          
   224  Na    c      6.7617 *    -7.8886 *     5.6347 *  0.0000     2          
   225  Cl    c      6.7617 *    -5.6347 *     7.8886 *  0.0000     2          
   226  Na    c      6.7617 *     5.6347 *    -7.8886 *  0.0000     2          
   227  O     s      0.0000       1.1269 *     1.1269 *  0.0000     1          
   228  Cl    s      2.2539 *    -1.1269 *    -1.1269 *  0.0000     2          
   229  O     s      0.0000       1.1269 *    -3.3808 *  0.0000     1          
   230  O     s      0.0000      -3.3808 *     1.1269 *  0.0000     1          
   231  Cl    s      2.2539 *    -1.1269 *     3.3808 *  0.0000     2          
   232  Cl    s      2.2539 *     3.3808 *    -1.1269 *  0.0000     2          
   233  O     s     -4.5078 *     1.1269 *     1.1269 *  0.0000     2          
   234  O     s      0.0000      -3.3808 *    -3.3808 *  0.0000     1          
   235  Cl    s      2.2539 *     3.3808 *     3.3808 *  0.0000     2          
   236  O     s      0.0000       1.1269 *     5.6347 *  0.0000     1          
   237  O     s      0.0000       5.6347 *     1.1269 *  0.0000     1          
   238  O     s     -4.5078 *     1.1269 *    -3.3808 *  0.0000     2          
   239  O     s     -4.5078 *    -3.3808 *     1.1269 *  0.0000     2          
   240  Cl    s      2.2539 *    -1.1269 *    -5.6347 *  0.0000     2          
   241  Cl    s      2.2539 *    -5.6347 *    -1.1269 *  0.0000     2          
   242  O     s      0.0000       5.6347 *    -3.3808 *  0.0000     1          
   243  O     s      0.0000      -3.3808 *     5.6347 *  0.0000     1          
   244  O     s      4.5078 *    -3.3808 *    -3.3808 *  0.0000     2          
   245  Cl    s      2.2539 *     3.3808 *    -5.6347 *  0.0000     2          
   246  Cl    s      2.2539 *    -5.6347 *     3.3808 *  0.0000     2          
   247  Cl    s      6.7617 *    -1.1269 *    -1.1269 *  0.0000     2          
   248  O     s     -4.5078 *     1.1269 *     5.6347 *  0.0000     2          
   249  O     s      4.5078 *     5.6347 *     1.1269 *  0.0000     2          
   250  Cl    s      6.7617 *    -1.1269 *     3.3808 *  0.0000     2          
   251  Cl    s      6.7617 *     3.3808 *    -1.1269 *  0.0000     2          
   252  O     s      0.0000       5.6347 *     5.6347 *  0.0000     1          
   253  O     s     -4.5078 *    -3.3808 *     5.6347 *  0.0000     2          
   254  O     s      0.0000       1.1269 *    -7.8886 *  0.0000     1          
   255  O     s      0.0000      -7.8886 *     1.1269 *  0.0000     1          
   256  O     s      4.5078 *     5.6347 *    -3.3808 *  0.0000     2          
   257  Cl    s      2.2539 *    -5.6347 *    -5.6347 *  0.0000     2          
   258  Cl    s      2.2539 *    -1.1269 *     7.8886 *  0.0000     2          
   259  Cl    s      2.2539 *     7.8886 *    -1.1269 *  0.0000     2          
   260  Cl    s      6.7617 *     3.3808 *     3.3808 *  0.0000     2          
   261  O     s      0.0000      -3.3808 *    -7.8886 *  0.0000     1          
   262  O     s      0.0000      -7.8886 *    -3.3808 *  0.0000     1          
   263  Cl    s      2.2539 *     3.3808 *     7.8886 *  0.0000     2          
   264  Cl    s      6.7617 *    -1.1269 *    -5.6347 *  0.0000     2          
   265  Cl    s      2.2539 *     7.8886 *     3.3808 *  0.0000     2          
   266  Cl    s      6.7617 *    -5.6347 *    -1.1269 *  0.0000     2          
   267  O     s      4.5078 *     5.6347 *     5.6347 *  0.0000     2          
   268  O     s      4.5078 *    -7.8886 *     1.1269 *  0.0000     2          
   269  O     s      9.0156 *     1.1269 *     1.1269 *  0.0000     2          
   270  O     s     -4.5078 *     1.1269 *    -7.8886 *  0.0000     2          
   271  Cl    s      6.7617 *     3.3808 *    -5.6347 *  0.0000     2          
   272  Cl    s      6.7617 *    -5.6347 *     3.3808 *  0.0000     2          
   273  O     s      0.0000       5.6347 *    -7.8886 *  0.0000     1          
   274  O     s      0.0000      -7.8886 *     5.6347 *  0.0000     1          
   275  O     s      9.0156 *    -3.3808 *     1.1269 *  0.0000     2          
   276  O     s     -4.5078 *    -3.3808 *    -7.8886 *  0.0000     2          
   277  O     s      4.5078 *    -7.8886 *    -3.3808 *  0.0000     2          
   278  O     s      9.0156 *     1.1269 *    -3.3808 *  0.0000     2          
   279  Cl    s      2.2539 *     7.8886 *    -5.6347 *  0.0000     2          
   280  Cl    s      2.2539 *    -5.6347 *     7.8886 *  0.0000     2          
   281  O     s      0.0000      10.1425 *     1.1269 *  0.0000     1          
   282  O     s      0.0000       1.1269 *    10.1425 *  0.0000     1          
   283  O     s      9.0156 *    -3.3808 *    -3.3808 *  0.0000     2          
   284  Cl    s      6.7617 *    -5.6347 *    -5.6347 *  0.0000     2          
   285  Cl    s      2.2539 *    -1.1269 *   -10.1425 *  0.0000     2          
   286  Cl    s      2.2539 *   -10.1425 *    -1.1269 *  0.0000     2          
   287  Cl    s      6.7617 *    -1.1269 *     7.8886 *  0.0000     2          
   288  Cl    s      6.7617 *     7.8886 *    -1.1269 *  0.0000     2          
   289  O     s      4.5078 *     5.6347 *    -7.8886 *  0.0000     2          
   290  O     s      4.5078 *    -7.8886 *     5.6347 *  0.0000     2          
   291  O     s      9.0156 *     1.1269 *     5.6347 *  0.0000     2          
   292  O     s      9.0156 *     5.6347 *     1.1269 *  0.0000     2          
   293  O     s      0.0000      10.1425 *    -3.3808 *  0.0000     1          
   294  O     s      0.0000      -3.3808 *    10.1425 *  0.0000     1          
   295  Cl    s      2.2539 *     3.3808 *   -10.1425 *  0.0000     2          
   296  Cl    s      2.2539 *   -10.1425 *     3.3808 *  0.0000     2          
   297  Cl    s      6.7617 *     7.8886 *     3.3808 *  0.0000     2          
   298  Cl    s      6.7617 *     3.3808 *     7.8886 *  0.0000     2          
   299  O     s      9.0156 *    -3.3808 *     5.6347 *  0.0000     2          
   300  O     s     -4.5078 *    10.1425 *     1.1269 *  0.0000     2          
   301  O     s      0.0000      -7.8886 *    -7.8886 *  0.0000     1          
   302  O     s      4.5078 *     1.1269 *    10.1425 *  0.0000     2          
   303  O     s      9.0156 *     5.6347 *    -3.3808 *  0.0000     2          
   304  Cl    s     11.2695 *    -1.1269 *    -1.1269 *  0.0000     2          
   305  Cl    s      2.2539 *     7.8886 *     7.8886 *  0.0000     2          
   306  O     s      0.0000       5.6347 *    10.1425 *  0.0000     1          
   307  O     s      0.0000      10.1425 *     5.6347 *  0.0000     1          
   308  O     s     -4.5078 *    10.1425 *    -3.3808 *  0.0000     2          
   309  O     s      4.5078 *    -3.3808 *    10.1425 *  0.0000     2          
   310  Cl    s     11.2695 *    -1.1269 *     3.3808 *  0.0000     2          
   311  Cl    s     11.2695 *     3.3808 *    -1.1269 *  0.0000     2          
   312  Cl    s      2.2539 *    -5.6347 *   -10.1425 *  0.0000     2          
   313  Cl    s      2.2539 *   -10.1425 *    -5.6347 *  0.0000     2          
   314  Cl    s      6.7617 *     7.8886 *    -5.6347 *  0.0000     2          
   315  Cl    s      6.7617 *    -5.6347 *     7.8886 *  0.0000     2          
--------------------------------------------------------------------------------

  Components of defect energy : 

--------------------------------------------------------------------------------
  Region 1 - region 1                   =      9.55689286 eV
  Region 1 - region 2a (unrelaxed)      =     -0.26069828 eV
  Region 1 - 2a (relaxed - correction)  =     -0.28883452 eV
  Region 1 (Total)                      =      9.00736007 eV
  Region 2a                             =      0.14434653 eV
  Region 2b                             =     -0.43224454 eV
--------------------------------------------------------------------------------
  Total defect energy                   =      8.71946206 eV
--------------------------------------------------------------------------------

  Largest displacement in region 2 =   0.0213 Angstroms


  Number of variables =      858

  Maximum number of calculations  =        1000
  Maximum Hessian update interval =          10
  Maximum step size               =   1.0000000
  Maximum parameter tolerance     =   0.0000100
  Maximum function  tolerance     =   0.0000100
  Maximum gradient  tolerance     =   0.0010000

  Symmetry adapted optimisation

  Symmetry to be used for second derivatives

  Newton-Raphson optimiser to be used

  BFGS hessian update to be used

  Lower half triangular hessian to be used

  Start of defect optimisation :

  Cycle:      0 Defect Energy:   8.719462  Gnorm:     0.021968  CPU:    2.525
  ** Hessian calculated **
  Cycle:      1 Defect Energy:   8.029910  Gnorm:     0.019453  CPU:    8.132
  ** Hessian calculated **
  Cycle:      2 Defect Energy:   7.243435  Gnorm:     0.015930  CPU:   13.197
  ** Hessian calculated **
  Cycle:      3 Defect Energy:   5.819949  Gnorm:     0.005770  CPU:   21.373
  Cycle:      4 Defect Energy:   5.556480  Gnorm:     0.003764  CPU:   24.873
  Cycle:      5 Defect Energy:   5.492788  Gnorm:     0.002786  CPU:   25.786
  Cycle:      6 Defect Energy:   5.411708  Gnorm:     0.002202  CPU:   26.768
  Cycle:      7 Defect Energy:   5.303786  Gnorm:     0.001950  CPU:   27.673
  Cycle:      8 Defect Energy:   5.168888  Gnorm:     0.001798  CPU:   28.586
  Cycle:      9 Defect Energy:   5.048405  Gnorm:     0.001732  CPU:   29.624
  Cycle:     10 Defect Energy:   4.983557  Gnorm:     0.001904  CPU:   30.493
  Cycle:     11 Defect Energy:   4.929699  Gnorm:     0.002145  CPU:   31.358
  Cycle:     12 Defect Energy:   4.868207  Gnorm:     0.002099  CPU:   32.264
  ** Hessian calculated **
  Cycle:     13 Defect Energy:   4.822541  Gnorm:     0.002029  CPU:   34.705
  Cycle:     14 Defect Energy:   4.756517  Gnorm:     0.001828  CPU:   35.542
  Cycle:     15 Defect Energy:   4.740156  Gnorm:     0.001498  CPU:   36.387
  ** Hessian calculated **
  Cycle:     16 Defect Energy:   4.725476  Gnorm:     0.001012  CPU:   38.707
  Cycle:     17 Defect Energy:   4.709333  Gnorm:     0.000907  CPU:   39.514
  Cycle:     18 Defect Energy:   4.691187  Gnorm:     0.000826  CPU:   40.315
  Cycle:     19 Defect Energy:   4.675115  Gnorm:     0.000811  CPU:   41.091
  Cycle:     20 Defect Energy:   4.659881  Gnorm:     0.000828  CPU:   41.890
  Cycle:     21 Defect Energy:   4.645246  Gnorm:     0.000839  CPU:   42.700
  Cycle:     22 Defect Energy:   4.628257  Gnorm:     0.000926  CPU:   43.654
  Cycle:     23 Defect Energy:   4.610789  Gnorm:     0.000928  CPU:   44.446
  Cycle:     24 Defect Energy:   4.592919  Gnorm:     0.000981  CPU:   45.250
  Cycle:     25 Defect Energy:   4.576798  Gnorm:     0.000989  CPU:   46.011
  ** Hessian calculated **
  Cycle:     26 Defect Energy:   4.560506  Gnorm:     0.000971  CPU:   48.000
  Cycle:     27 Defect Energy:   4.539054  Gnorm:     0.000963  CPU:   48.804
  Cycle:     28 Defect Energy:   4.489180  Gnorm:     0.000956  CPU:   50.447
  ** Hessian calculated **
  Cycle:     29 Defect Energy:   4.460327  Gnorm:     0.000820  CPU:   55.787
  Cycle:     30 Defect Energy:   4.599329  Gnorm:     0.002220  CPU:   56.762
  Cycle:     31 Defect Energy:   4.628511  Gnorm:     0.001982  CPU:   57.751
  ** Hessian calculated **
  Cycle:     32 Defect Energy:   4.541624  Gnorm:     0.001399  CPU:   60.407
  Cycle:     33 Defect Energy:   4.493253  Gnorm:     0.000996  CPU:   61.330
  Cycle:     34 Defect Energy:   4.463042  Gnorm:     0.000710  CPU:   62.272
  Cycle:     35 Defect Energy:   4.443649  Gnorm:     0.000507  CPU:   63.183
  Cycle:     36 Defect Energy:   4.429845  Gnorm:     0.000356  CPU:   64.175
  Cycle:     37 Defect Energy:   4.418749  Gnorm:     0.000253  CPU:   65.076
  Cycle:     38 Defect Energy:   4.408766  Gnorm:     0.000193  CPU:   65.926
  Cycle:     39 Defect Energy:   4.399518  Gnorm:     0.000170  CPU:   66.802
  Cycle:     40 Defect Energy:   4.390226  Gnorm:     0.000169  CPU:   67.677
  Cycle:     41 Defect Energy:   4.382110  Gnorm:     0.000273  CPU:   68.546
  ** Hessian calculated **
  Cycle:     42 Defect Energy:   4.370221  Gnorm:     0.000345  CPU:   70.939
  Cycle:     43 Defect Energy:   4.362987  Gnorm:     0.000260  CPU:   71.792
  Cycle:     44 Defect Energy:   4.361099  Gnorm:     0.000176  CPU:   72.632
  Cycle:     45 Defect Energy:   4.360095  Gnorm:     0.000135  CPU:   73.649
  Cycle:     46 Defect Energy:   4.359455  Gnorm:     0.000073  CPU:   74.472
  Cycle:     47 Defect Energy:   4.359063  Gnorm:     0.000059  CPU:   75.292
  Cycle:     48 Defect Energy:   4.358880  Gnorm:     0.000038  CPU:   76.111
  Cycle:     49 Defect Energy:   4.358771  Gnorm:     0.000028  CPU:   76.925
  Cycle:     50 Defect Energy:   4.358697  Gnorm:     0.000020  CPU:   77.753
  Cycle:     51 Defect Energy:   4.358646  Gnorm:     0.000016  CPU:   78.640
  ** Hessian calculated **
  Cycle:     52 Defect Energy:   4.358603  Gnorm:     0.000011  CPU:   80.731
  Cycle:     53 Defect Energy:   4.358583  Gnorm:     0.000008  CPU:   81.519


  **** Optimisation achieved ****


  Final defect energy  =        4.35857313
  Final defect Gnorm   =        0.00000593

  Components of defect energy : 

--------------------------------------------------------------------------------
  Region 1 - region 1                   =      6.01121318 eV
  Region 1 - region 2a (unrelaxed)      =     -1.10957975 eV
  Region 1 - 2a (relaxed - correction)  =     -0.22230168 eV
  Region 1 (Total)                      =      4.67933175 eV
  Region 2a                             =      0.11111313 eV
  Region 2b                             =     -0.43187176 eV
--------------------------------------------------------------------------------
  Total defect energy                   =      4.35857313 eV
--------------------------------------------------------------------------------

  Largest displacement in region 2 =   0.0226 Angstroms

  Final coordinates of region 1 :

--------------------------------------------------------------------------------
   No.  Atomic        x           y           z          Radius      Charge
        Label       (Angs)      (Angs)      (Angs)       (Angs)       (e) 
--------------------------------------------------------------------------------
     1  Na    c     2.253894    1.824360    0.069745    0.000000    1.000000
     2  O     c     2.253894    2.324127    2.246477    0.000000    0.183000
     3  Cl    c     4.612580    0.010516   -0.141222    0.000000    1.485000
     4  Cl    c    -0.104793    0.010516   -0.141222    0.000000    1.485000
     5  Na    c     4.426376    1.832307    2.278234    0.000000    1.000000
     6  Na    c     0.081412    1.832307    2.278234    0.000000    1.000000
     7  O     c     2.253894    2.240125   -2.229724    0.000000    0.183000
     8  O     c     2.253894   -2.310929    2.251119    0.000000    0.183000
     9  Na    c     2.253894    1.846436    4.428529    0.000000    1.000000
    10  Na    c     2.253894   -1.816703    0.072372    0.000000    1.000000
    11  Na    c     2.253894   -0.002878   -2.615443    0.000000    1.000000
    12  Na    c     2.253894    4.517747    2.199751    0.000000    1.000000
    13  Cl    c     4.626199    0.006120    4.627466    0.000000    1.485000
    14  Cl    c    -0.118412    0.006120    4.627466    0.000000    1.485000
    15  Cl    c     4.602304    4.654668   -0.057035    0.000000    1.485000
    16  Cl    c    -0.094517    4.654668   -0.057035    0.000000    1.485000
    17  Na    c     4.504189    2.145503   -2.291834    0.000000    1.000000
    18  Na    c     0.003598    2.145503   -2.291834    0.000000    1.000000
    19  Na    c     4.431954   -1.843444    2.307876    0.000000    1.000000
    20  Na    c     0.075834   -1.843444    2.307876    0.000000    1.000000
    21  O     c    -2.219749    2.227157    2.252459    0.000000    0.183000
    22  O     c     6.727536    2.227157    2.252459    0.000000    0.183000
    23  Na    c    -2.123908    2.154431    0.003099    0.000000    1.000000
    24  Na    c     6.631695    2.154431    0.003099    0.000000    1.000000
    25  Na    c    -2.627602    0.001712    2.272632    0.000000    1.000000
    26  Na    c     7.135390    0.001712    2.272632    0.000000    1.000000
    27  O     c     2.253894   -2.238485   -2.230387    0.000000    0.183000
    28  Na    c     2.253894   -1.830114    4.427048    0.000000    1.000000
    29  Na    c     2.253894    4.481637   -1.796347    0.000000    1.000000
    30  Cl    c     4.596731    4.601200    4.624245    0.000000    1.485000
    31  Cl    c    -0.088943    4.601200    4.624245    0.000000    1.485000
    32  Na    c     4.510038   -2.199124   -2.299877    0.000000    1.000000
    33  Na    c    -0.002250   -2.199124   -2.299877    0.000000    1.000000
    34  O     c     2.253894    2.246173    6.722928    0.000000    0.183000
    35  O     c     2.253894    6.812090    2.230906    0.000000    0.183000
    36  Na    c     2.253894    2.666485   -4.471062    0.000000    1.000000
    37  Na    c     2.253894    7.023970   -0.010615    0.000000    1.000000
    38  Na    c     2.253894    0.007314    7.082003    0.000000    1.000000
    39  Na    c     2.253894   -4.502418    2.209012    0.000000    1.000000
    40  O     c    -2.260181    2.269101   -2.252672    0.000000    0.183000
    41  O     c     6.767968    2.269101   -2.252672    0.000000    0.183000
    42  O     c    -2.220266   -2.221894    2.245549    0.000000    0.183000
    43  O     c     6.728053   -2.221894    2.245549    0.000000    0.183000
    44  Na    c    -2.240566    2.156211    4.507288    0.000000    1.000000
    45  Na    c     6.748353    2.156211    4.507288    0.000000    1.000000
    46  Na    c    -2.071055   -2.127386    0.001691    0.000000    1.000000
    47  Na    c     6.578842   -2.127386    0.001691    0.000000    1.000000
    48  Na    c    -2.337887    0.003974   -2.403296    0.000000    1.000000
    49  Na    c     6.845675    0.003974   -2.403296    0.000000    1.000000
    50  Na    c    -1.874325    4.474179    2.293377    0.000000    1.000000
    51  Na    c     6.382112    4.474179    2.293377    0.000000    1.000000
    52  Cl    c     4.520472    0.009110   -4.511953    0.000000    1.485000
    53  Cl    c    -0.012685    0.009110   -4.511953    0.000000    1.485000
    54  Cl    c     4.606576   -4.615368   -0.076349    0.000000    1.485000
    55  Cl    c    -0.098789   -4.615368   -0.076349    0.000000    1.485000
    56  Na    c     4.507866    2.330488    6.697379    0.000000    1.000000
    57  Na    c    -0.000078    2.330488    6.697379    0.000000    1.000000
    58  Na    c     4.502288    6.881101    2.106235    0.000000    1.000000
    59  Na    c     0.005499    6.881101    2.106235    0.000000    1.000000
    60  O     c     2.253894    6.740540   -2.244669    0.000000    0.183000
    61  O     c     2.253894   -2.232821    6.711999    0.000000    0.183000
    62  Na    c     2.253894    6.838215    4.490209    0.000000    1.000000
    63  Na    c     2.253894   -2.663467   -4.466507    0.000000    1.000000
    64  Na    c     2.253894    4.476740    6.381583    0.000000    1.000000
    65  Na    c     2.253894   -4.472081   -1.799357    0.000000    1.000000
    66  O     c     6.774973   -2.261214   -2.247410    0.000000    0.183000
    67  O     c    -2.267186   -2.261214   -2.247410    0.000000    0.183000
    68  Na    c     6.829885   -2.197122    4.507111    0.000000    1.000000
    69  Na    c    -2.322098   -2.197122    4.507111    0.000000    1.000000
    70  Na    c     6.594261    4.510226   -2.156553    0.000000    1.000000
    71  Na    c    -2.086473    4.510226   -2.156553    0.000000    1.000000
    72  Cl    c     4.565359    4.493995   -4.541205    0.000000    1.485000
    73  Cl    c    -0.057571    4.493995   -4.541205    0.000000    1.485000
    74  Cl    c     4.598293   -4.613203    4.614458    0.000000    1.485000
    75  Cl    c    -0.090506   -4.613203    4.614458    0.000000    1.485000
    76  Na    c     4.513497    6.797702   -2.159920    0.000000    1.000000
    77  Na    c    -0.005710    6.797702   -2.159920    0.000000    1.000000
    78  Na    c     4.502837   -2.307961    6.644510    0.000000    1.000000
    79  Na    c     0.004950   -2.307961    6.644510    0.000000    1.000000
    80  Cl    c     9.035476   -0.015715    0.006135    0.000000    1.485000
    81  Cl    c    -4.527689   -0.015715    0.006135    0.000000    1.485000
    82  Na    c     8.978927    2.600473    2.190330    0.000000    1.000000
    83  Na    c    -4.471139    2.600473    2.190330    0.000000    1.000000
    84  O     c    -2.260945    2.257603    6.766635    0.000000    0.183000
    85  O     c     6.768732    2.257603    6.766635    0.000000    0.183000
    86  Na    c    -2.357456    2.434336   -4.497467    0.000000    1.000000
    87  Na    c     6.865244    2.434336   -4.497467    0.000000    1.000000
    88  Na    c    -2.106359   -0.001032    6.861161    0.000000    1.000000
    89  Na    c     6.614146   -0.001032    6.861161    0.000000    1.000000
    90  O     c     6.751622    6.737049    2.260338    0.000000    0.183000
    91  O     c    -2.243835    6.737049    2.260338    0.000000    0.183000
    92  Na    c     6.909071    6.692287    0.006490    0.000000    1.000000
    93  Na    c    -2.401284    6.692287    0.006490    0.000000    1.000000
    94  Na    c     6.409003   -4.472816    2.252334    0.000000    1.000000
    95  Na    c    -1.901216   -4.472816    2.252334    0.000000    1.000000
    96  Cl    c     9.002279   -0.013583    4.567487    0.000000    1.485000
    97  Cl    c    -4.494492   -0.013583    4.567487    0.000000    1.485000
    98  Na    c     9.014910    2.380630   -2.118907    0.000000    1.000000
    99  Na    c    -4.507123    2.380630   -2.118907    0.000000    1.000000
   100  Cl    c     9.081645    4.547136   -0.028843    0.000000    1.485000
   101  Cl    c    -4.573858    4.547136   -0.028843    0.000000    1.485000
   102  Na    c     8.976948   -2.570567    2.110596    0.000000    1.000000
   103  Na    c    -4.469161   -2.570567    2.110596    0.000000    1.000000
   104  O     c     2.253894    6.721651    6.752934    0.000000    0.183000
   105  Na    c     2.253894    6.425131   -4.488467    0.000000    1.000000
   106  Na    c     2.253894   -4.480360    6.434875    0.000000    1.000000
   107  O     c    -2.252182   -2.257214    6.774079    0.000000    0.183000
   108  O     c     6.759970   -2.257214    6.774079    0.000000    0.183000
   109  Na    c    -2.376709   -2.455455   -4.489655    0.000000    1.000000
   110  Na    c     6.884496   -2.455455   -4.489655    0.000000    1.000000
   111  Na    c    -2.382660    4.508526    6.610490    0.000000    1.000000
   112  Na    c     6.890447    4.508526    6.610490    0.000000    1.000000
   113  O     c     2.253894    2.262266   -6.724179    0.000000    0.183000
   114  O     c     2.253894   -6.794544    2.243084    0.000000    0.183000
   115  O     c     6.779278    6.755023   -2.262294    0.000000    0.183000
   116  O     c    -2.271491    6.755023   -2.262294    0.000000    0.183000
   117  Na    c     2.253894    2.528544    8.986177    0.000000    1.000000
   118  Na    c     2.253894   -6.975393   -0.001153    0.000000    1.000000
   119  Na    c     6.570237    6.816480    4.508890    0.000000    1.000000
   120  Na    c    -2.062450    6.816480    4.508890    0.000000    1.000000
   121  Na    c     2.253894    0.005351   -6.402483    0.000000    1.000000
   122  Na    c     2.253894    9.053483    2.376151    0.000000    1.000000
   123  Na    c     6.732285   -4.509872   -2.080015    0.000000    1.000000
   124  Na    c    -2.224498   -4.509872   -2.080015    0.000000    1.000000
   125  Cl    c     4.540278   -4.501949   -4.564571    0.000000    1.485000
   126  Cl    c    -0.032490   -4.501949   -4.564571    0.000000    1.485000
   127  Na    c     4.512180    6.625583    6.839368    0.000000    1.000000
   128  Na    c    -0.004393    6.625583    6.839368    0.000000    1.000000
   129  Cl    c     4.527763   -0.002153    9.057938    0.000000    1.485000
   130  Cl    c    -0.019976   -0.002153    9.057938    0.000000    1.485000
   131  Na    c     4.509381    2.242110   -6.649915    0.000000    1.000000
   132  Na    c    -0.001594    2.242110   -6.649915    0.000000    1.000000
   133  Cl    c     4.499535    9.031319   -0.003466    0.000000    1.485000
   134  Cl    c     0.008252    9.031319   -0.003466    0.000000    1.485000
   135  Cl    c     9.063674    4.510796    4.539820    0.000000    1.485000
   136  Cl    c    -4.555887    4.510796    4.539820    0.000000    1.485000
   137  Na    c     4.496839   -6.867650    2.216847    0.000000    1.000000
   138  Na    c     0.010948   -6.867650    2.216847    0.000000    1.000000
   139  Na    c     9.019061   -2.289559   -2.070384    0.000000    1.000000
   140  Na    c    -4.511274   -2.289559   -2.070384    0.000000    1.000000
   141  O     c     2.253894   -2.251160   -6.714950    0.000000    0.183000
   142  O     c     2.253894   -6.726989   -2.243032    0.000000    0.183000
   143  Na    c     2.253894   -2.493190    8.979261    0.000000    1.000000
   144  Na    c     2.253894   -6.822647    4.492945    0.000000    1.000000
   145  Na    c     2.253894    4.494360   -7.090626    0.000000    1.000000
   146  Na    c     2.253894    8.994917   -2.513743    0.000000    1.000000
   147  Cl    c     4.511406    4.529375    9.072465    0.000000    1.485000
   148  Cl    c    -0.003619    4.529375    9.072465    0.000000    1.485000
   149  Cl    c     9.015001    0.002398   -4.542012    0.000000    1.485000
   150  Cl    c    -4.507214    0.002398   -4.542012    0.000000    1.485000
   151  Na    c     4.508002   -2.225756   -6.640926    0.000000    1.000000
   152  Na    c    -0.000214   -2.225756   -6.640926    0.000000    1.000000
   153  Na    c     9.014340    2.081225    6.773188    0.000000    1.000000
   154  Na    c    -4.506553    2.081225    6.773188    0.000000    1.000000
   155  Cl    c     4.488154    9.047992    4.473224    0.000000    1.485000
   156  Cl    c     0.019633    9.047992    4.473224    0.000000    1.485000
   157  Cl    c     9.083214   -4.534922   -0.039572    0.000000    1.485000
   158  Cl    c    -4.575427   -4.534922   -0.039572    0.000000    1.485000
   159  Na    c     4.510072   -6.702623   -2.237913    0.000000    1.000000
   160  Na    c    -0.002285   -6.702623   -2.237913    0.000000    1.000000
   161  Na    c     9.004039    6.561421    2.430241    0.000000    1.000000
   162  Na    c    -4.496252    6.561421    2.430241    0.000000    1.000000
   163  O     c     6.771280    6.766768    6.762184    0.000000    0.183000
   164  O     c    -2.263493    6.766768    6.762184    0.000000    0.183000
   165  O     c     6.742542   -6.738401    2.258020    0.000000    0.183000
   166  O     c    -2.234755   -6.738401    2.258020    0.000000    0.183000
   167  O     c    11.236358    2.255857    2.243683    0.000000    0.183000
   168  O     c    -6.728571    2.255857    2.243683    0.000000    0.183000
   169  O     c    -2.255351    2.248496   -6.750482    0.000000    0.183000
   170  O     c     6.763138    2.248496   -6.750482    0.000000    0.183000
   171  Na    c     6.689456    6.704040   -4.512294    0.000000    1.000000
   172  Na    c    -2.181669    6.704040   -4.512294    0.000000    1.000000
   173  Na    c     6.770058   -6.797991    0.006819    0.000000    1.000000
   174  Na    c    -2.262271   -6.797991    0.006819    0.000000    1.000000
   175  Na    c    11.286821    1.921986    0.004692    0.000000    1.000000
   176  Na    c    -6.779033    1.921986    0.004692    0.000000    1.000000
   177  Na    c    -2.244236    2.374884    9.012376    0.000000    1.000000
   178  Na    c     6.752023    2.374884    9.012376    0.000000    1.000000
   179  Na    c     6.874443    8.995978    2.223893    0.000000    1.000000
   180  Na    c    -2.366656    8.995978    2.223893    0.000000    1.000000
   181  Na    c     6.806943   -4.507278    6.698404    0.000000    1.000000
   182  Na    c    -2.299155   -4.507278    6.698404    0.000000    1.000000
   183  Na    c    10.980304    0.007138    2.493801    0.000000    1.000000
   184  Na    c    -6.472516    0.007138    2.493801    0.000000    1.000000
   185  Na    c    -2.282184   -0.002343   -6.553920    0.000000    1.000000
   186  Na    c     6.789971   -0.002343   -6.553920    0.000000    1.000000
   187  Cl    c     9.034225    4.519699   -4.555975    0.000000    1.485000
   188  Cl    c    -4.526437    4.519699   -4.555975    0.000000    1.485000
   189  Na    c     9.008429   -2.147207    6.855990    0.000000    1.000000
   190  Na    c    -4.500641   -2.147207    6.855990    0.000000    1.000000
   191  Cl    c     9.059659   -4.507819    4.514348    0.000000    1.485000
   192  Cl    c    -4.551872   -4.507819    4.514348    0.000000    1.485000
   193  Na    c     9.021525    6.625231   -2.383151    0.000000    1.000000
   194  Na    c    -4.513738    6.625231   -2.383151    0.000000    1.000000
   195  O     c     2.253894    6.731054   -6.755560    0.000000    0.183000
   196  O     c     2.253894   -6.735331    6.743385    0.000000    0.183000
   197  O     c    11.232206   -2.244620    2.260030    0.000000    0.183000
   198  O     c    -6.724419   -2.244620    2.260030    0.000000    0.183000
   199  O     c    -2.252418   -2.252832   -6.747494    0.000000    0.183000
   200  O     c     6.760205   -2.252832   -6.747494    0.000000    0.183000
   201  Na    c     2.253894    6.579110    9.005480    0.000000    1.000000
   202  Na    c     2.253894   -6.516743   -4.494636    0.000000    1.000000
   203  Na    c    11.345413   -2.014647    0.010966    0.000000    1.000000
   204  Na    c    -6.837625   -2.014647    0.010966    0.000000    1.000000
   205  Na    c    -2.169990   -2.333532    9.019505    0.000000    1.000000
   206  Na    c     6.677777   -2.333532    9.019505    0.000000    1.000000
   207  Na    c     2.253894    8.985806    6.828569    0.000000    1.000000
   208  Na    c     2.253894   -4.493950   -6.999988    0.000000    1.000000
   209  Na    c    11.435556    4.495580    1.972609    0.000000    1.000000
   210  Na    c    -6.927768    4.495580    1.972609    0.000000    1.000000
   211  Na    c    -2.237407    4.504195   -6.859344    0.000000    1.000000
   212  Na    c     6.745194    4.504195   -6.859344    0.000000    1.000000
   213  O     c     6.770801   -6.758360   -2.258295    0.000000    0.183000
   214  O     c    -2.263013   -6.758360   -2.258295    0.000000    0.183000
   215  O     c    11.266934    2.240572   -2.241493    0.000000    0.183000
   216  O     c    -6.759147    2.240572   -2.241493    0.000000    0.183000
   217  Na    c     6.712654   -6.728635    4.509521    0.000000    1.000000
   218  Na    c    -2.204866   -6.728635    4.509521    0.000000    1.000000
   219  Na    c    11.226337    2.499176    4.498644    0.000000    1.000000
   220  Na    c    -6.718550    2.499176    4.498644    0.000000    1.000000
   221  Na    c     6.840371    9.002346   -2.252084    0.000000    1.000000
   222  Na    c    -2.332584    9.002346   -2.252084    0.000000    1.000000
   223  Na    c    11.191481    0.002556   -2.540072    0.000000    1.000000
   224  Na    c    -6.683694    0.002556   -2.540072    0.000000    1.000000
   225  Cl    c     4.508070    9.049486   -4.523391    0.000000    1.485000
   226  Cl    c    -0.000283    9.049486   -4.523391    0.000000    1.485000
   227  Cl    c     4.518768   -4.510952    9.062439    0.000000    1.485000
   228  Cl    c    -0.010981   -4.510952    9.062439    0.000000    1.485000
   229  Na    c     4.500555    6.760335   -6.751569    0.000000    1.000000
   230  Na    c     0.007232    6.760335   -6.751569    0.000000    1.000000
   231  Na    c     4.512215   -6.691056    6.774615    0.000000    1.000000
   232  Na    c    -0.004428   -6.691056    6.774615    0.000000    1.000000
   233  O     c     2.253894   11.279039    2.256797    0.000000    0.183000
   234  Na    c     2.253894   11.191703   -0.012101    0.000000    1.000000
   235  Na    c     2.253894   -9.043286    2.313351    0.000000    1.000000
   236  O     c     2.253894    2.263719   11.251558    0.000000    0.183000
   237  O     c    11.268626   -2.233407   -2.247734    0.000000    0.183000
   238  O     c    -6.760839   -2.233407   -2.247734    0.000000    0.183000
   239  Na    c     2.253894    2.046542   -8.991278    0.000000    1.000000
   240  Na    c    11.128168   -2.398359    4.509545    0.000000    1.000000
   241  Na    c    -6.620380   -2.398359    4.509545    0.000000    1.000000
   242  Na    c     2.253894   -0.002304   11.115687    0.000000    1.000000
   243  Na    c    11.369140    4.499009   -2.053778    0.000000    1.000000
   244  Na    c    -6.861353    4.499009   -2.053778    0.000000    1.000000
   245  Cl    c     9.047354   -4.511797   -4.553706    0.000000    1.485000
   246  Cl    c    -4.539567   -4.511797   -4.553706    0.000000    1.485000
   247  Na    c     9.015626    6.868183    6.646193    0.000000    1.000000
   248  Na    c    -4.507839    6.868183    6.646193    0.000000    1.000000
   249  Cl    c     4.496694    0.000212   -9.111438    0.000000    1.485000
   250  Cl    c     0.011093    0.000212   -9.111438    0.000000    1.485000
   251  Cl    c     4.503263   -9.018754    0.013130    0.000000    1.485000
   252  Cl    c     0.004524   -9.018754    0.013130    0.000000    1.485000
   253  Cl    c     9.033467    0.001715    9.033047    0.000000    1.485000
   254  Cl    c    -4.525680    0.001715    9.033047    0.000000    1.485000
   255  Cl    c     9.037738    9.066157   -0.011526    0.000000    1.485000
   256  Cl    c    -4.529951    9.066157   -0.011526    0.000000    1.485000
   257  Na    c     4.504419    2.176578   11.247188    0.000000    1.000000
   258  Na    c     0.003368    2.176578   11.247188    0.000000    1.000000
   259  Na    c     4.514645   11.249807    2.252224    0.000000    1.000000
   260  Na    c    -0.006858   11.249807    2.252224    0.000000    1.000000
   261  Na    c     9.014235    2.231135   -6.811502    0.000000    1.000000
   262  Na    c    -4.506448    2.231135   -6.811502    0.000000    1.000000
   263  Na    c     9.000924   -6.613662    2.286346    0.000000    1.000000
   264  Na    c    -4.493137   -6.613662    2.286346    0.000000    1.000000
   265  O     c     6.754914    6.761432   -6.766013    0.000000    0.183000
   266  O     c    -2.247126    6.761432   -6.766013    0.000000    0.183000
   267  O     c     6.774682   -6.766883    6.768500    0.000000    0.183000
   268  O     c    -2.266894   -6.766883    6.768500    0.000000    0.183000
   269  O     c    11.269383    2.255318    6.754333    0.000000    0.183000
   270  O     c    -6.761595    2.255318    6.754333    0.000000    0.183000
   271  O     c    11.269862    6.741060    2.243013    0.000000    0.183000
   272  O     c    -6.762074    6.741060    2.243013    0.000000    0.183000
   273  Na    c     6.853378    6.679606    9.009873    0.000000    1.000000
   274  Na    c    -2.345591    6.679606    9.009873    0.000000    1.000000
   275  Na    c     6.798117   -6.671441   -4.506171    0.000000    1.000000
   276  Na    c    -2.290330   -6.671441   -4.506171    0.000000    1.000000
   277  Na    c    11.209835    2.396691   -4.501239    0.000000    1.000000
   278  Na    c    -6.702048    2.396691   -4.501239    0.000000    1.000000
   279  Na    c    11.113057    6.898323   -0.001457    0.000000    1.000000
   280  Na    c    -6.605269    6.898323   -0.001457    0.000000    1.000000
   281  Na    c     6.706296    9.012547    6.835680    0.000000    1.000000
   282  Na    c    -2.198509    9.012547    6.835680    0.000000    1.000000
   283  Na    c     6.716649   -4.506148   -6.862175    0.000000    1.000000
   284  Na    c    -2.208861   -4.506148   -6.862175    0.000000    1.000000
   285  Na    c    11.344747    0.002800    6.652678    0.000000    1.000000
   286  Na    c    -6.836959    0.002800    6.652678    0.000000    1.000000
   287  Na    c    11.405776   -4.496702    2.156754    0.000000    1.000000
   288  Na    c    -6.897989   -4.496702    2.156754    0.000000    1.000000
   289  O     c     2.253894   11.256943   -2.279022    0.000000    0.183000
   290  O     c     2.253894   -2.265780   11.252410    0.000000    0.183000
   291  Na    c     2.253894   11.289554    4.515116    0.000000    1.000000
   292  Na    c     2.253894   -2.077769   -8.986477    0.000000    1.000000
   293  Na    c     2.253894    4.508614   11.378056    0.000000    1.000000
   294  Na    c     2.253894   -8.995591   -2.399292    0.000000    1.000000
   295  Cl    c     4.529039    4.533233   -9.020746    0.000000    1.485000
   296  Cl    c    -0.021252    4.533233   -9.020746    0.000000    1.485000
   297  Cl    c     4.493603   -9.052420    4.479905    0.000000    1.485000
   298  Cl    c     0.014184   -9.052420    4.479905    0.000000    1.485000
   299  Cl    c     9.011492    9.043841    4.514206    0.000000    1.485000
   300  Cl    c    -4.503705    9.043841    4.514206    0.000000    1.485000
   301  Na    c     4.510051   11.218603   -2.239183    0.000000    1.000000
   302  Na    c    -0.002264   11.218603   -2.239183    0.000000    1.000000
   303  Na    c     4.504468   -2.207896   11.275407    0.000000    1.000000
   304  Na    c     0.003319   -2.207896   11.275407    0.000000    1.000000
   305  Na    c     9.017654   -6.767928   -2.247883    0.000000    1.000000
   306  Na    c    -4.509867   -6.767928   -2.247883    0.000000    1.000000
   307  Cl    c     9.053392    4.515386    9.048848    0.000000    1.485000
[...]
    235 y          4.507787      4.612855     0.105068    Cartesian    2.33
    235 z          4.507787      4.639908     0.132121    Cartesian    2.93
    236 x          2.253894      2.253894     0.000000    Cartesian    0.00
    236 y          2.253894      2.246208    -0.007685    Cartesian   -0.34
    236 z          6.761681      6.722974    -0.038707    Cartesian   -0.57
    237 x          2.253894      2.253894     0.000000    Cartesian    0.00
    237 y          6.761681      6.812215     0.050535    Cartesian    0.75
    237 z          2.253894      2.230875    -0.023019    Cartesian   -1.02
    238 x         -2.253894     -2.260174    -0.006281    Cartesian    0.28
    238 y          2.253894      2.269137     0.015243    Cartesian    0.68
    238 z         -2.253894     -2.252675     0.001219    Cartesian   -0.05
    239 x         -2.253894     -2.220327     0.033567    Cartesian   -1.49
    239 y         -2.253894     -2.221865     0.032029    Cartesian   -1.42
    239 z          2.253894      2.245525    -0.008368    Cartesian   -0.37
    240 x          4.507787      4.511738     0.003951    Cartesian    0.09
    240 y          0.000000      0.010221     0.010221    Cartesian    0.00
    240 z         -4.507787     -4.514080    -0.006292    Cartesian    0.14
    241 x          4.507787      4.619428     0.111641    Cartesian    2.48
    241 y         -4.507787     -4.626539    -0.118752    Cartesian    2.63
    241 z          0.000000     -0.090553    -0.090553    Cartesian    0.00
    242 x          2.253894      2.253894     0.000000    Cartesian    0.00
    242 y          6.761681      6.740598    -0.021083    Cartesian   -0.31
    242 z         -2.253894     -2.244601     0.009293    Cartesian   -0.41
    243 x          2.253894      2.253894     0.000000    Cartesian    0.00
    243 y         -2.253894     -2.232843     0.021051    Cartesian   -0.93
    243 z          6.761681      6.712033    -0.049647    Cartesian   -0.73
    244 x          6.761681      6.774982     0.013301    Cartesian    0.20
    244 y         -2.253894     -2.261240    -0.007347    Cartesian    0.33
    244 z         -2.253894     -2.247394     0.006499    Cartesian   -0.29
    245 x          4.507787      4.564518     0.056731    Cartesian    1.26
    245 y          4.507787      4.490461    -0.017327    Cartesian   -0.38
    245 z         -4.507787     -4.545085    -0.037297    Cartesian    0.83
    246 x          4.507787      4.608886     0.101099    Cartesian    2.24
    246 y         -4.507787     -4.625382    -0.117595    Cartesian    2.61
    246 z          4.507787      4.629679     0.121892    Cartesian    2.70
    247 x          9.015574      9.040091     0.024517    Cartesian    0.27
    247 y          0.000000     -0.016641    -0.016641    Cartesian    0.00
    247 z          0.000000      0.010865     0.010865    Cartesian    0.00
    248 x         -2.253894     -2.260946    -0.007052    Cartesian    0.31
    248 y          2.253894      2.257596     0.003702    Cartesian    0.16
    248 z          6.761681      6.766630     0.004949    Cartesian    0.07
    249 x          6.761681      6.751574    -0.010107    Cartesian   -0.15
    249 y          6.761681      6.737091    -0.024590    Cartesian   -0.36
    249 z          2.253894      2.260342     0.006448    Cartesian    0.29
    250 x          9.015574      9.004109    -0.011466    Cartesian   -0.13
    250 y          0.000000     -0.014526    -0.014526    Cartesian    0.00
    250 z          4.507787      4.559649     0.051862    Cartesian    1.15
    251 x          9.015574      9.089124     0.073549    Cartesian    0.82
    251 y          4.507787      4.547415     0.039628    Cartesian    0.88
    251 z          0.000000     -0.029501    -0.029501    Cartesian    0.00
    252 x          2.253894      2.253894     0.000000    Cartesian    0.00
    252 y          6.761681      6.721630    -0.040051    Cartesian   -0.59
    252 z          6.761681      6.752926    -0.008755    Cartesian   -0.13
    253 x         -2.253894     -2.252174     0.001720    Cartesian   -0.08
    253 y         -2.253894     -2.257221    -0.003328    Cartesian    0.15
    253 z          6.761681      6.774099     0.012418    Cartesian    0.18
    254 x          2.253894      2.253894     0.000000    Cartesian    0.00
    254 y          2.253894      2.262307     0.008413    Cartesian    0.37
    254 z         -6.761681     -6.724182     0.037499    Cartesian   -0.55
    255 x          2.253894      2.253894     0.000000    Cartesian    0.00
    255 y         -6.761681     -6.794659    -0.032978    Cartesian    0.49
    255 z          2.253894      2.243085    -0.010809    Cartesian   -0.48
    256 x          6.761681      6.779286     0.017605    Cartesian    0.26
    256 y          6.761681      6.754997    -0.006683    Cartesian   -0.10
    256 z         -2.253894     -2.262305    -0.008411    Cartesian    0.37
    257 x          4.507787      4.535429     0.027641    Cartesian    0.61
    257 y         -4.507787     -4.497743     0.010044    Cartesian   -0.22
    257 z         -4.507787     -4.571220    -0.063432    Cartesian    1.41
    258 x          4.507787      4.528982     0.021195    Cartesian    0.47
    258 y          0.000000     -0.002640    -0.002640    Cartesian    0.00
    258 z          9.015574      9.060740     0.045165    Cartesian    0.50
    259 x          4.507787      4.493320    -0.014467    Cartesian   -0.32
    259 y          9.015574      9.026506     0.010932    Cartesian    0.12
    259 z          0.000000     -0.000795    -0.000795    Cartesian    0.00
    260 x          9.015574      9.071603     0.056029    Cartesian    0.62
    260 y          4.507787      4.511203     0.003416    Cartesian    0.08
    260 z          4.507787      4.538865     0.031078    Cartesian    0.69
    261 x          2.253894      2.253894     0.000000    Cartesian    0.00
    261 y         -2.253894     -2.251209     0.002684    Cartesian   -0.12
    261 z         -6.761681     -6.714937     0.046744    Cartesian   -0.69
    262 x          2.253894      2.253894     0.000000    Cartesian    0.00
    262 y         -6.761681     -6.727021     0.034660    Cartesian   -0.51
    262 z         -2.253894     -2.242983     0.010911    Cartesian   -0.48
    263 x          4.507787      4.507581    -0.000206    Cartesian   -0.00
    263 y          4.507787      4.532416     0.024629    Cartesian    0.55
    263 z          9.015574      9.076934     0.061360    Cartesian    0.68
    264 x          9.015574      9.014291    -0.001283    Cartesian   -0.01
    264 y          0.000000      0.002191     0.002191    Cartesian    0.00
    264 z         -4.507787     -4.542320    -0.034533    Cartesian    0.77
    265 x          4.507787      4.486556    -0.021231    Cartesian   -0.47
    265 y          9.015574      9.049094     0.033519    Cartesian    0.37
    265 z          4.507787      4.467665    -0.040122    Cartesian   -0.89
    266 x          9.015574      9.089701     0.074127    Cartesian    0.82
    266 y         -4.507787     -4.530922    -0.023134    Cartesian    0.51
    266 z          0.000000     -0.041573    -0.041573    Cartesian    0.00
    267 x          6.761681      6.771288     0.009607    Cartesian    0.14
    267 y          6.761681      6.766780     0.005099    Cartesian    0.08
    267 z          6.761681      6.762181     0.000500    Cartesian    0.01
    268 x          6.761681      6.742489    -0.019192    Cartesian   -0.28
    268 y         -6.761681     -6.738446     0.023235    Cartesian   -0.34
    268 z          2.253894      2.258020     0.004126    Cartesian    0.18
    269 x         11.269468     11.236375    -0.033093    Cartesian   -0.29
    269 y          2.253894      2.255889     0.001995    Cartesian    0.09
    269 z          2.253894      2.243675    -0.010219    Cartesian   -0.45
    270 x         -2.253894     -2.255366    -0.001472    Cartesian    0.07
    270 y          2.253894      2.248512    -0.005381    Cartesian   -0.24
    270 z         -6.761681     -6.750471     0.011210    Cartesian   -0.17
    271 x          9.015574      9.035339     0.019764    Cartesian    0.22
    271 y          4.507787      4.518992     0.011205    Cartesian    0.25
    271 z         -4.507787     -4.558550    -0.050763    Cartesian    1.13
    272 x          9.015574      9.067733     0.052158    Cartesian    0.58
    272 y         -4.507787     -4.504685     0.003102    Cartesian   -0.07
    272 z          4.507787      4.513783     0.005996    Cartesian    0.13
    273 x          2.253894      2.253894     0.000000    Cartesian    0.00
    273 y          6.761681      6.731034    -0.030647    Cartesian   -0.45
    273 z         -6.761681     -6.755622     0.006059    Cartesian   -0.09
    274 x          2.253894      2.253894     0.000000    Cartesian    0.00
    274 y         -6.761681     -6.735337     0.026344    Cartesian   -0.39
    274 z          6.761681      6.743348    -0.018333    Cartesian   -0.27
    275 x         11.269468     11.232214    -0.037254    Cartesian   -0.33
    275 y         -2.253894     -2.244663     0.009231    Cartesian   -0.41
    275 z          2.253894      2.260047     0.006153    Cartesian    0.27
    276 x         -2.253894     -2.252430     0.001463    Cartesian   -0.06
    276 y         -2.253894     -2.252848     0.001045    Cartesian   -0.05
    276 z         -6.761681     -6.747489     0.014191    Cartesian   -0.21
    277 x          6.761681      6.770812     0.009131    Cartesian    0.14
    277 y         -6.761681     -6.758351     0.003329    Cartesian   -0.05
    277 z         -2.253894     -2.258286    -0.004393    Cartesian    0.19
    278 x         11.269468     11.266942    -0.002526    Cartesian   -0.02
    278 y          2.253894      2.240554    -0.013340    Cartesian   -0.59
    278 z         -2.253894     -2.241502     0.012391    Cartesian   -0.55
    279 x          4.507787      4.503379    -0.004409    Cartesian   -0.10
    279 y          9.015574      9.054355     0.038780    Cartesian    0.43
    279 z         -4.507787     -4.524536    -0.016749    Cartesian    0.37
    280 x          4.507787      4.518490     0.010703    Cartesian    0.24
    280 y         -4.507787     -4.509194    -0.001407    Cartesian    0.03
    280 z          9.015574      9.067613     0.052039    Cartesian    0.58
    281 x          2.253894      2.253894     0.000000    Cartesian    0.00
    281 y         11.269468     11.278995     0.009527    Cartesian    0.08
    281 z          2.253894      2.256834     0.002940    Cartesian    0.13
    282 x          2.253894      2.253894     0.000000    Cartesian    0.00
    282 y          2.253894      2.263756     0.009863    Cartesian    0.44
    282 z         11.269468     11.251570    -0.017898    Cartesian   -0.16
    283 x         11.269468     11.268618    -0.000850    Cartesian   -0.01
    283 y         -2.253894     -2.233401     0.020493    Cartesian   -0.91
    283 z         -2.253894     -2.247750     0.006143    Cartesian   -0.27
    284 x          9.015574      9.047614     0.032039    Cartesian    0.36
    284 y         -4.507787     -4.507515     0.000273    Cartesian   -0.01
    284 z         -4.507787     -4.559255    -0.051467    Cartesian    1.14
    285 x          4.507787      4.493869    -0.013919    Cartesian   -0.31
    285 y          0.000000      0.000671     0.000671    Cartesian    0.00
    285 z         -9.015574     -9.124789    -0.109214    Cartesian    1.21
    286 x          4.507787      4.500533    -0.007254    Cartesian   -0.16
    286 y         -9.015574     -9.013964     0.001611    Cartesian   -0.02
    286 z          0.000000      0.016943     0.016943    Cartesian    0.00
    287 x          9.015574      9.034863     0.019288    Cartesian    0.21
    287 y          0.000000      0.001569     0.001569    Cartesian    0.00
    287 z          9.015574      9.032439     0.016864    Cartesian    0.19
    288 x          9.015574      9.041219     0.025644    Cartesian    0.28
    288 y          9.015574      9.068818     0.053244    Cartesian    0.59
    288 z          0.000000     -0.011974    -0.011974    Cartesian    0.00
    289 x          6.761681      6.754903    -0.006778    Cartesian   -0.10
    289 y          6.761681      6.761427    -0.000254    Cartesian   -0.00
    289 z         -6.761681     -6.766026    -0.004346    Cartesian    0.06
    290 x          6.761681      6.774698     0.013018    Cartesian    0.19
    290 y         -6.761681     -6.766878    -0.005197    Cartesian    0.08
    290 z          6.761681      6.768501     0.006820    Cartesian    0.10
    291 x         11.269468     11.269381    -0.000087    Cartesian   -0.00
    291 y          2.253894      2.255325     0.001431    Cartesian    0.06
    291 z          6.761681      6.754351    -0.007330    Cartesian   -0.11
    292 x         11.269468     11.269909     0.000441    Cartesian    0.00
    292 y          6.761681      6.741040    -0.020641    Cartesian   -0.31
    292 z          2.253894      2.242997    -0.010897    Cartesian   -0.48
    293 x          2.253894      2.253894     0.000000    Cartesian    0.00
    293 y         11.269468     11.256950    -0.012518    Cartesian   -0.11
    293 z         -2.253894     -2.279080    -0.025186    Cartesian    1.12
    294 x          2.253894      2.253894     0.000000    Cartesian    0.00
    294 y         -2.253894     -2.265823    -0.011929    Cartesian    0.53
    294 z         11.269468     11.252426    -0.017042    Cartesian   -0.15
    295 x          4.507787      4.529342     0.021555    Cartesian    0.48
    295 y          4.507787      4.537049     0.029261    Cartesian    0.65
    295 z         -9.015574     -9.016029    -0.000454    Cartesian    0.01
    296 x          4.507787      4.490748    -0.017039    Cartesian   -0.38
    296 y         -9.015574     -9.054552    -0.038978    Cartesian    0.43
    296 z          4.507787      4.474964    -0.032823    Cartesian   -0.73
    297 x          9.015574      9.010295    -0.005279    Cartesian   -0.06
    297 y          9.015574      9.046722     0.031148    Cartesian    0.35
    297 z          4.507787      4.516312     0.008525    Cartesian    0.19
    298 x          9.015574      9.057753     0.042179    Cartesian    0.47
    298 y          4.507787      4.516743     0.008956    Cartesian    0.20
    298 z          9.015574      9.050471     0.034896    Cartesian    0.39
    299 x         11.269468     11.271083     0.001615    Cartesian    0.01
    299 y         -2.253894     -2.251503     0.002391    Cartesian   -0.11
    299 z          6.761681      6.758223    -0.003457    Cartesian   -0.05
    300 x         -2.253894     -2.263715    -0.009821    Cartesian    0.44
    300 y         11.269468     11.261229    -0.008240    Cartesian   -0.07
    300 z          2.253894      2.246397    -0.007497    Cartesian   -0.33
    301 x          2.253894      2.253894     0.000000    Cartesian    0.00
    301 y         -6.761681     -6.743180     0.018501    Cartesian   -0.27
    301 z         -6.761681     -6.760323     0.001358    Cartesian   -0.02
    302 x          6.761681      6.762158     0.000477    Cartesian    0.01
    302 y          2.253894      2.260735     0.006841    Cartesian    0.30
    302 z         11.269468     11.269964     0.000496    Cartesian    0.00
    303 x         11.269468     11.269149    -0.000319    Cartesian   -0.00
    303 y          6.761681      6.759339    -0.002342    Cartesian   -0.03
    303 z         -2.253894     -2.251153     0.002741    Cartesian   -0.12
    304 x         13.523362     13.586247     0.062885    Cartesian    0.47
    304 y          0.000000      0.001143     0.001143    Cartesian    0.00
    304 z          0.000000      0.018963     0.018963    Cartesian    0.00
    305 x          4.507787      4.526392     0.018604    Cartesian    0.41
    305 y          9.015574      9.060783     0.045208    Cartesian    0.50
    305 z          9.015574      9.022176     0.006602    Cartesian    0.07
    306 x          2.253894      2.253894     0.000000    Cartesian    0.00
    306 y          6.761681      6.760017    -0.001664    Cartesian   -0.02
    306 z         11.269468     11.267367    -0.002101    Cartesian   -0.02
    307 x          2.253894      2.253894     0.000000    Cartesian    0.00
    307 y         11.269468     11.265291    -0.004177    Cartesian   -0.04
    307 z          6.761681      6.765902     0.004221    Cartesian    0.06
    308 x         -2.253894     -2.260124    -0.006230    Cartesian    0.28
    308 y         11.269468     11.266681    -0.002787    Cartesian   -0.02
    308 z         -2.253894     -2.256357    -0.002463    Cartesian    0.11
    309 x          6.761681      6.763348     0.001667    Cartesian    0.02
    309 y         -2.253894     -2.256305    -0.002411    Cartesian    0.11
    309 z         11.269468     11.272376     0.002908    Cartesian    0.03
    310 x         13.523362     13.606949     0.083587    Cartesian    0.62
    310 y          0.000000      0.002177     0.002177    Cartesian    0.00
    310 z          4.507787      4.501732    -0.006055    Cartesian   -0.13
    311 x         13.523362     13.569281     0.045919    Cartesian    0.34
    311 y          4.507787      4.521362     0.013575    Cartesian    0.30
    311 z          0.000000     -0.014605    -0.014605    Cartesian    0.00
    312 x          4.507787      4.507598    -0.000190    Cartesian   -0.00
    312 y         -4.507787     -4.541317    -0.033530    Cartesian    0.74
    312 z         -9.015574     -9.025784    -0.010209    Cartesian    0.11
    313 x          4.507787      4.512465     0.004677    Cartesian    0.10
    313 y         -9.015574     -9.078708    -0.063134    Cartesian    0.70
    313 z         -4.507787     -4.511903    -0.004116    Cartesian    0.09
    314 x          9.015574      9.050073     0.034499    Cartesian    0.38
    314 y          9.015574      9.034539     0.018964    Cartesian    0.21
    314 z         -4.507787     -4.528976    -0.021189    Cartesian    0.47
    315 x          9.015574      9.045613     0.030039    Cartesian    0.33
    315 y         -4.507787     -4.516349    -0.008562    Cartesian    0.19
    315 z          9.015574      9.050265     0.034690    Cartesian    0.38
--------------------------------------------------------------------------------


  Time to end of optimisation  =       82.2976 seconds


  Peak dynamic memory used =      91.13 MB 


  Timing analysis for GULP :

--------------------------------------------------------------------------------
  Task / Subroutine                                          Time (Seconds)
--------------------------------------------------------------------------------
  Calculation of reciprocal space energy and derivatives          0.0008
  Calculation of reciprocal space energy using symmetry           0.0010
  Calculation of real space energy and derivatives                0.0041
  Calculation of real space energy using symmetry                 0.0093
  Calculation for region 1 energy and derivatives (2-b)          47.3292
  Calculation for region 2a energy                               28.8847
  Calculation for region 2b energy                                0.0135
  Calculation and manipulation of Hessian matrix                  0.1970
  Calculation of matrix inversion                                 5.5157
  Symmetry generation of equivalent positions                     0.0049
--------------------------------------------------------------------------------
  Total CPU time                                                 82.2977
--------------------------------------------------------------------------------


  Dump file written as Na3OCl.grs


  Job Finished at 18:41.57 26th November   2020                               

