********************************************************************************
*                       GENERAL UTILITY LATTICE PROGRAM                        *
*                                 Julian Gale                                  *
*                       Curtin Institute for Computation                       *
*                    School of Molecular and Life Sciences                     *
*                    Curtin University, Western Australia                      *
********************************************************************************
* Version = 5.2.0 * Last modified =  10th September 2020                       *
********************************************************************************
*  optimise     - perform optimisation run                                     *
*  conp         - constant pressure calculation                                *
*  property     - calculate properties for final geometry                      *
*  defect       - perform defect calculation after bulk run                    *
*  compare      - compare initial and final structures                         *
********************************************************************************

  Job Started  at 18:41.42 26th November   2020                               

  Number of CPUs =     1


  Total number of configurations input =      1

********************************************************************************
*  Input for Configuration =   1                                               *
********************************************************************************

  Formula = ClONa3                                                      

  Number of irreducible atoms/shells =       5


  Total number atoms/shells =       7

  Dimensionality = 3               :  Bulk   


  Symmetry :

  Crystal family                   :  Cubic       
  Crystal class  (Groth - 1921)    :  Cubic Hexakisoctahedral              

  Space group (centrosymmetric)    :  P M 3 M         

  Patterson group                  :  P m -3 m 

  Cartesian lattice vectors (Angstroms) :

        4.504000    0.000000    0.000000
        0.000000    4.504000    0.000000
        0.000000    0.000000    4.504000

  Cell parameters (Angstroms/Degrees):

  a =       4.5040    alpha =  90.0000
  b =       4.5040    beta  =  90.0000
  c =       4.5040    gamma =  90.0000

  Initial cell volume =          91.368216 Angs**3

  Temperature of configuration =   0.00     K 

  Pressure of configuration =         0.000 GPa 

  Fractional coordinates of asymmetric unit :

--------------------------------------------------------------------------------
   No.  Atomic       x           y          z         Charge      Occupancy
        Label      (Frac)      (Frac)     (Frac)        (e)         (Frac)  
--------------------------------------------------------------------------------
      1 Cl    c    0.000000    0.000000    0.000000     1.48500    1.000000    
      2 O     c    0.500000    0.500000    0.500000     0.18300    1.000000    
      3 Na    c    0.500000    0.500000    0.000000     1.00000    1.000000    
      4 Cl    s    0.000000    0.000000    0.000000    -2.48500    1.000000    
      5 O     s    0.500000    0.500000    0.500000    -2.18300    1.000000    
--------------------------------------------------------------------------------


  Constraints : 

--------------------------------------------------------------------------------
  Constraint no.      Unconstrained     Constrained    Coefficient    Offset
                         Variable         Variable
--------------------------------------------------------------------------------
           1              Strain 1        Strain 2       1.00000      0.0000
           2              Strain 1        Strain 3       1.00000      0.0000
--------------------------------------------------------------------------------


********************************************************************************
*  General input information                                                   *
********************************************************************************

  Species output for all configurations : 

--------------------------------------------------------------------------------
  Species    Type    Atomic    Atomic    Charge       Radii (Angs)     Library
                     Number     Mass       (e)     Cova   Ionic  VDW   Symbol
--------------------------------------------------------------------------------
    Na       Core       11      22.99   1.000000   0.970  0.000  2.300          
    O        Core        8      16.00   0.183000   0.730  0.000  1.360          
    O        Shell       8       0.00  -2.183000   0.730  0.000  1.360          
    Cl       Core       17      35.45   1.485000   0.990  0.000  1.650          
    Cl       Shell      17       0.00  -2.485000   0.990  0.000  1.650          
--------------------------------------------------------------------------------


  Lattice summation method               =    Ewald          (3-D)
                                         =    Parry          (2-D)
                                         =    Saunders et al (1-D)
  Accuracy factor for lattice sums       =   12.000


  Analytic derivatives to be used

  Time limit = Infinity

  Maximum range for interatomic potentials =    100000.000000 Angstroms

  General interatomic potentials :

--------------------------------------------------------------------------------
Atom  Types   Potential      Parameter       Value         Units   Cutoffs(Ang)
  1     2                                                            Min /  Max 
--------------------------------------------------------------------------------
O    c O    s Spring (c-s)  Spring k 2       593.72000    eV*Ang^-2 0.000  0.800
                            Spring k 4       0.0000000    eV*Ang^-4 
--------------------------------------------------------------------------------
Cl   c Cl   s Spring (c-s)  Spring k 2       29.380000    eV*Ang^-2 0.000  0.800
                            Spring k 4       0.0000000    eV*Ang^-4 
--------------------------------------------------------------------------------
Na   c Na   c Buckingham    Buckingham A     1788.1900    eV        0.000 12.000
                            Buckingham rho  0.15900000    Ang       
                            Buckingham C     0.0000000    eV*Ang^6  
--------------------------------------------------------------------------------
Na   c O    s Buckingham    Buckingham A     1226.8400    eV        0.000 12.000
                            Buckingham rho  0.30700000    Ang       
                            Buckingham C     0.0000000    eV*Ang^6  
--------------------------------------------------------------------------------
Na   c Cl   s Buckingham    Buckingham A     2314.7000    eV        0.000 12.000
                            Buckingham rho  0.29000000    Ang       
                            Buckingham C     0.0000000    eV*Ang^6  
--------------------------------------------------------------------------------
O    s O    s Buckingham    Buckingham A     22764.300    eV        0.000 12.000
                            Buckingham rho  0.14900000    Ang       
                            Buckingham C     13.190000    eV*Ang^6  
--------------------------------------------------------------------------------
O    s Cl   s Buckingham    Buckingham A     8286.9100    eV        0.000 12.000
                            Buckingham rho  0.25900000    Ang       
                            Buckingham C     62.200000    eV*Ang^6  
--------------------------------------------------------------------------------
Cl   s Cl   s Buckingham    Buckingham A     1227.2000    eV        0.000 12.000
                            Buckingham rho  0.32100000    Ang       
                            Buckingham C     14.530000    eV*Ang^6  
--------------------------------------------------------------------------------

********************************************************************************
*  Output for configuration   1                                                *
********************************************************************************


  Components of energy : 

--------------------------------------------------------------------------------
  Interatomic potentials     =           5.13022605 eV    
  Monopole - monopole (real) =         -10.03624526 eV    
  Monopole - monopole (recip)=         -29.53581274 eV    
  Monopole - monopole (total)=         -39.57205800 eV    
--------------------------------------------------------------------------------
  Total lattice energy       =         -34.44183194 eV    
--------------------------------------------------------------------------------
  Total lattice energy       =           -3323.1103 kJ/(mole unit cells)
--------------------------------------------------------------------------------


  Number of variables =        1

  Maximum number of calculations  =          1000
  Maximum Hessian update interval =            10
  Maximum step size               =   1.000000000
  Maximum parameter tolerance     =   0.000010000
  Maximum function  tolerance     =   0.000010000
  Maximum gradient  tolerance     =   0.001000000
  Maximum gradient  component     =   0.010000000

  Symmetry constrained optimisation

  Symmetry used for second derivatives

  Cell parameters to be optimised using strains

  Newton-Raphson optimiser to be used

  BFGS hessian update to be used

  Lower half triangular hessian to be used

  Start of bulk optimisation :

  Cycle:      0 Energy:       -34.441832  Gnorm:      0.196570  CPU:    0.016
  ** Hessian calculated **
  Cycle:      1 Energy:       -34.441914  Gnorm:      0.000103  CPU:    0.020


  **** Optimisation achieved ****


  Final energy =     -34.44191447 eV
  Final Gnorm  =       0.00000000

  Components of energy : 

--------------------------------------------------------------------------------
  Interatomic potentials     =           5.09689708 eV    
  Monopole - monopole (real) =         -10.02781331 eV    
  Monopole - monopole (recip)=         -29.51099824 eV    
  Monopole - monopole (total)=         -39.53881155 eV    
--------------------------------------------------------------------------------
  Total lattice energy       =         -34.44191447 eV    
--------------------------------------------------------------------------------
  Total lattice energy       =           -3323.1183 kJ/(mole unit cells)
--------------------------------------------------------------------------------

  Final asymmetric unit coordinates :

--------------------------------------------------------------------------------
   No.  Atomic        x           y           z         Radius
        Label       (Frac)      (Frac)      (Frac)       (Angs) 
--------------------------------------------------------------------------------
     1  Cl    c     0.000000    0.000000    0.000000    0.000000
     2  O     c     0.500000    0.500000    0.500000    0.000000
     3  Na    c     0.500000    0.500000    0.000000    0.000000
     4  Cl    s     0.000000    0.000000    0.000000    0.000000
     5  O     s     0.500000    0.500000    0.500000    0.000000
--------------------------------------------------------------------------------

  Final Cartesian lattice vectors (Angstroms) :

        4.507787    0.000000    0.000000
        0.000000    4.507787    0.000000
        0.000000    0.000000    4.507787


  Final cell parameters and derivatives :

--------------------------------------------------------------------------------
       a            4.507787 Angstrom     dE/de1(xx)     0.000000 eV/strain
       b            4.507787 Angstrom     dE/de2(yy)     0.000000 eV/strain
       c            4.507787 Angstrom     dE/de3(zz)     0.000000 eV/strain
       alpha       90.000000 Degrees      dE/de4(yz)     0.000000 eV/strain
       beta        90.000000 Degrees      dE/de5(xz)     0.000000 eV/strain
       gamma       90.000000 Degrees      dE/de6(xy)     0.000000 eV/strain
--------------------------------------------------------------------------------

  Primitive cell volume =            91.598892 Angs**3

  Density of cell =      2.183054 g/cm**3

  Non-primitive cell volume =            91.598892 Angs**3


  Final internal derivatives :

--------------------------------------------------------------------------------
   No.  Atomic          a             b             c           Radius
        Label          (eV)          (eV)          (eV)        (eV/Angs)
--------------------------------------------------------------------------------
      1 Cl    c       0.000000      0.000000      0.000000      0.000000
      2 O     c       0.000000      0.000000      0.000000      0.000000
      3 Na    c       0.000000      0.000000      0.000000      0.000000
      4 Cl    s       0.000000      0.000000      0.000000      0.000000
      5 O     s       0.000000      0.000000      0.000000      0.000000
--------------------------------------------------------------------------------
  Maximum abs         0.000000      0.000000      0.000000      0.000000
--------------------------------------------------------------------------------

  Comparison of initial and final structures : 

--------------------------------------------------------------------------------
  Parameter   Initial value   Final value   Difference    Units      Percent
--------------------------------------------------------------------------------
    Volume        91.368216     91.598892     0.230676    Angs**3      0.25
    a              4.504000      4.507787     0.003787    Angstroms    0.08
    b              4.504000      4.507787     0.003787    Angstroms    0.08
    c              4.504000      4.507787     0.003787    Angstroms    0.08
    alpha         90.000000     90.000000     0.000000    Degrees      0.00
    beta          90.000000     90.000000     0.000000    Degrees      0.00
    gamma         90.000000     90.000000     0.000000    Degrees      0.00
      1 x          0.000000      0.000000     0.000000    Fractional   0.00
      1 y          0.000000      0.000000     0.000000    Fractional   0.00
      1 z          0.000000      0.000000     0.000000    Fractional   0.00
      2 x          0.500000      0.500000     0.000000    Fractional   0.00
      2 y          0.500000      0.500000     0.000000    Fractional   0.00
      2 z          0.500000      0.500000     0.000000    Fractional   0.00
      3 x          0.500000      0.500000     0.000000    Fractional   0.00
      3 y          0.500000      0.500000     0.000000    Fractional   0.00
      3 z          0.000000      0.000000     0.000000    Fractional   0.00
      4 x          0.000000      0.000000     0.000000    Fractional   0.00
      4 y          0.000000      0.000000     0.000000    Fractional   0.00
      4 z          0.000000      0.000000     0.000000    Fractional   0.00
      5 x          0.500000      0.500000     0.000000    Fractional   0.00
      5 y          0.500000      0.500000     0.000000    Fractional   0.00
      5 z          0.500000      0.500000     0.000000    Fractional   0.00
--------------------------------------------------------------------------------


  Born effective charge tensors : 

-------------------------------------------------------------------------------
  Atom             x           y             z
-------------------------------------------------------------------------------
    1 Cl    x      -1.0181     -0.0000      0.0000
            y      -0.0000     -1.0181      0.0000
            z       0.0000      0.0000     -1.0181
-------------------------------------------------------------------------------
    2 O     x      -2.2647      0.0000     -0.0000
            y       0.0000     -2.2647     -0.0000
            z      -0.0000     -0.0000     -2.2647
-------------------------------------------------------------------------------
    3 Na    x       1.2258     -0.0000      0.0000
            y      -0.0000      1.2258     -0.0000
            z       0.0000     -0.0000      0.8313
-------------------------------------------------------------------------------




  Elastic Constant Matrix: (Units=GPa)

-------------------------------------------------------------------------------
  Indices      1         2         3         4         5         6    
-------------------------------------------------------------------------------
       1     95.8177   20.0737   20.0737   -0.0000   -0.0000    0.0000
       2     20.0737   95.8177   20.0737   -0.0000   -0.0000    0.0000
       3     20.0737   20.0737   95.8177   -0.0000   -0.0000    0.0000
       4     -0.0000   -0.0000   -0.0000   20.0737   -0.0000    0.0000
       5     -0.0000   -0.0000   -0.0000   -0.0000   20.0737    0.0000
       6      0.0000    0.0000    0.0000    0.0000    0.0000   20.0737
-------------------------------------------------------------------------------


  Elastic Compliance Matrix: (Units=1/GPa)

-------------------------------------------------------------------------------
  Indices      1         2         3         4         5         6    
-------------------------------------------------------------------------------
       1    0.011253 -0.001949 -0.001949  0.000000  0.000000 -0.000000
       2   -0.001949  0.011253 -0.001949  0.000000  0.000000  0.000000
       3   -0.001949 -0.001949  0.011253  0.000000  0.000000 -0.000000
       4    0.000000  0.000000  0.000000  0.049816  0.000000 -0.000000
       5    0.000000  0.000000  0.000000  0.000000  0.049816 -0.000000
       6   -0.000000  0.000000 -0.000000 -0.000000 -0.000000  0.049816
-------------------------------------------------------------------------------

  Mechanical properties :

-------------------------------------------------------------------------------
  Convention :                    Reuss         Voigt         Hill
-------------------------------------------------------------------------------
  Bulk  Modulus (GPa)     =      45.32174      45.32174      45.32174
  Shear Modulus (GPa)     =      24.72085      27.19304      25.95695
-------------------------------------------------------------------------------
  Velocity S-wave (km/s)  =       3.36511       3.52937       3.44822
  Velocity P-wave (km/s)  =       5.98827       6.11304       6.05098
-------------------------------------------------------------------------------
  Compressibility (1/GPa) =    0.02206447
-------------------------------------------------------------------------------
  Stress axis :                     x             y             z
-------------------------------------------------------------------------------
  Youngs Moduli (GPa)     =      88.86373      88.86373      88.86373
-------------------------------------------------------------------------------
  Poissons Ratio (x)      =                     0.17321       0.17321
  Poissons Ratio (y)      =       0.17321                     0.17321
  Poissons Ratio (z)      =       0.17321       0.17321
-------------------------------------------------------------------------------


  Piezoelectric Strain Matrix: (Units=C/m**2)

-------------------------------------------------------------------------------
  Indices      1         2         3         4         5         6    
-------------------------------------------------------------------------------
       x    -0.00000  -0.00000  -0.00000   0.00000  -0.00000  -0.00000
       y    -0.00000  -0.00000   0.00000  -0.00000   0.00000   0.00000
       z    -0.00000  -0.00000  -0.00000  -0.00000   0.00000   0.00000
-------------------------------------------------------------------------------


  Piezoelectric Stress Matrix: (Units=10**-11 C/N)

-------------------------------------------------------------------------------
  Indices      1         2         3         4         5         6    
-------------------------------------------------------------------------------
       x    -0.00000   0.00000   0.00000   0.00000  -0.00000  -0.00000
       y    -0.00000  -0.00000   0.00000  -0.00000   0.00000   0.00000
       z     0.00000   0.00000  -0.00000  -0.00000   0.00000   0.00000
-------------------------------------------------------------------------------


  Static dielectric constant tensor : 

-------------------------------------------------------------------------------
              x         y         z
-------------------------------------------------------------------------------
       x    22.84729   0.00000   0.00000
       y     0.00000  22.84729  -0.00000
       z     0.00000  -0.00000  22.84729
--------------------------------------------------------------------------------

  High frequency dielectric constant tensor : 

-------------------------------------------------------------------------------
              x         y         z
-------------------------------------------------------------------------------
       x     1.47557   0.00000  -0.00000
       y     0.00000   1.47557  -0.00000
       z    -0.00000  -0.00000   1.47557
-------------------------------------------------------------------------------

  Static refractive indices : 

-------------------------------------------------------------------------------
    1 =    4.77988      2 =    4.77988      3 =    4.77988
-------------------------------------------------------------------------------

  High frequency refractive indices : 

-------------------------------------------------------------------------------
    1 =    1.21473      2 =    1.21473      3 =    1.21473
-------------------------------------------------------------------------------


  Time to end of optimisation =       0.0309 seconds

********************************************************************************
*  Defect calculation for configuration   1 :                                  *
********************************************************************************

  Total number of defects =      3

  Total charge on defect  =  -1.00

  Defect centre is at   0.5000   0.2500   0.2500  Frac

  Region 1 radius =  12.0000      Number of ions =    543

  Number of symmetry inequivalent region 1 ions  =    315

  Region 2 radius =  16.0000      Number of ions =    766

  Number of symmetry inequivalent region 2a ions =    417

  Region 2a mode = 4 : screened electrostatics due to region 1 
                       neglect correction to region 1 forces from 2a
                       region 2a displacements based on defects only

  Region 2a ions will only interact with defects in region 1

  Vacancies:

--------------------------------------------------------------------------------
    Specification type     Symbol/Number         x          y          z
--------------------------------------------------------------------------------
    Fractional                               0.500000   0.500000   0.000000
    Fractional                               0.500000   0.000000   0.500000
--------------------------------------------------------------------------------

  Interstitials:

--------------------------------------------------------------------------------
    Specification type     Symbol/Number         x          y          z
--------------------------------------------------------------------------------
    Atom/Fractional         Na               0.500000   0.410000   0.090000
--------------------------------------------------------------------------------


  Symmetry reduced region 1 (Relative to defect centre) :

--------------------------------------------------------------------------------
   No.   Atomic       x            y             z       Radius  Multiplicity   
         Label      (Angs)       (Angs)        (Angs)    (Angs)     
--------------------------------------------------------------------------------
     1  Na    c      0.0000       0.7212 *    -0.7212 *  0.0000     1    Defect
     2  O     c      0.0000       1.1269 *     1.1269 *  0.0000     1          
     3  Cl    c      2.2539 *    -1.1269 *    -1.1269 *  0.0000     2          
     4  Na    c      2.2539 *     1.1269 *     1.1269 *  0.0000     2          
     5  O     c      0.0000       1.1269 *    -3.3808 *  0.0000     1          
     6  O     c      0.0000      -3.3808 *     1.1269 *  0.0000     1          
     7  Na    c      0.0000       1.1269 *     3.3808 *  0.0000     1          
     8  Na    c      0.0000      -3.3808 *    -1.1269 *  0.0000     1          
     9  Na    c      0.0000      -1.1269 *    -3.3808 *  0.0000     1          
    10  Na    c      0.0000       3.3808 *     1.1269 *  0.0000     1          
    11  Cl    c      2.2539 *    -1.1269 *     3.3808 *  0.0000     2          
    12  Cl    c      2.2539 *     3.3808 *    -1.1269 *  0.0000     2          
    13  Na    c      2.2539 *     1.1269 *    -3.3808 *  0.0000     2          
    14  Na    c      2.2539 *    -3.3808 *     1.1269 *  0.0000     2          
    15  O     c     -4.5078 *     1.1269 *     1.1269 *  0.0000     2          
    16  Na    c     -4.5078 *     1.1269 *    -1.1269 *  0.0000     2          
    17  Na    c     -4.5078 *    -1.1269 *     1.1269 *  0.0000     2          
    18  O     c      0.0000      -3.3808 *    -3.3808 *  0.0000     1          
    19  Na    c      0.0000      -3.3808 *     3.3808 *  0.0000     1          
    20  Na    c      0.0000       3.3808 *    -3.3808 *  0.0000     1          
    21  Cl    c      2.2539 *     3.3808 *     3.3808 *  0.0000     2          
    22  Na    c      2.2539 *    -3.3808 *    -3.3808 *  0.0000     2          
    23  O     c      0.0000       1.1269 *     5.6347 *  0.0000     1          
    24  O     c      0.0000       5.6347 *     1.1269 *  0.0000     1          
    25  Na    c      0.0000       1.1269 *    -5.6347 *  0.0000     1          
    26  Na    c      0.0000       5.6347 *    -1.1269 *  0.0000     1          
    27  Na    c      0.0000      -1.1269 *     5.6347 *  0.0000     1          
    28  Na    c      0.0000      -5.6347 *     1.1269 *  0.0000     1          
    29  O     c     -4.5078 *     1.1269 *    -3.3808 *  0.0000     2          
    30  O     c     -4.5078 *    -3.3808 *     1.1269 *  0.0000     2          
    31  Na    c     -4.5078 *     1.1269 *     3.3808 *  0.0000     2          
    32  Na    c     -4.5078 *    -3.3808 *    -1.1269 *  0.0000     2          
    33  Na    c     -4.5078 *    -1.1269 *    -3.3808 *  0.0000     2          
    34  Na    c     -4.5078 *     3.3808 *     1.1269 *  0.0000     2          
    35  Cl    c      2.2539 *    -1.1269 *    -5.6347 *  0.0000     2          
    36  Cl    c      2.2539 *    -5.6347 *    -1.1269 *  0.0000     2          
    37  Na    c      2.2539 *     1.1269 *     5.6347 *  0.0000     2          
    38  Na    c      2.2539 *     5.6347 *     1.1269 *  0.0000     2          
    39  O     c      0.0000       5.6347 *    -3.3808 *  0.0000     1          
    40  O     c      0.0000      -3.3808 *     5.6347 *  0.0000     1          
    41  Na    c      0.0000       5.6347 *     3.3808 *  0.0000     1          
    42  Na    c      0.0000      -3.3808 *    -5.6347 *  0.0000     1          
    43  Na    c      0.0000       3.3808 *     5.6347 *  0.0000     1          
    44  Na    c      0.0000      -5.6347 *    -3.3808 *  0.0000     1          
    45  O     c      4.5078 *    -3.3808 *    -3.3808 *  0.0000     2          
    46  Na    c      4.5078 *    -3.3808 *     3.3808 *  0.0000     2          
    47  Na    c      4.5078 *     3.3808 *    -3.3808 *  0.0000     2          
    48  Cl    c      2.2539 *     3.3808 *    -5.6347 *  0.0000     2          
    49  Cl    c      2.2539 *    -5.6347 *     3.3808 *  0.0000     2          
    50  Na    c      2.2539 *     5.6347 *    -3.3808 *  0.0000     2          
    51  Na    c      2.2539 *    -3.3808 *     5.6347 *  0.0000     2          
    52  Cl    c      6.7617 *    -1.1269 *    -1.1269 *  0.0000     2          
    53  Na    c      6.7617 *     1.1269 *     1.1269 *  0.0000     2          
    54  O     c     -4.5078 *     1.1269 *     5.6347 *  0.0000     2          
    55  Na    c     -4.5078 *     1.1269 *    -5.6347 *  0.0000     2          
    56  Na    c     -4.5078 *    -1.1269 *     5.6347 *  0.0000     2          
    57  O     c      4.5078 *     5.6347 *     1.1269 *  0.0000     2          
    58  Na    c      4.5078 *     5.6347 *    -1.1269 *  0.0000     2          
    59  Na    c      4.5078 *    -5.6347 *     1.1269 *  0.0000     2          
    60  Cl    c      6.7617 *    -1.1269 *     3.3808 *  0.0000     2          
    61  Na    c      6.7617 *     1.1269 *    -3.3808 *  0.0000     2          
    62  Cl    c      6.7617 *     3.3808 *    -1.1269 *  0.0000     2          
    63  Na    c      6.7617 *    -3.3808 *     1.1269 *  0.0000     2          
    64  O     c      0.0000       5.6347 *     5.6347 *  0.0000     1          
    65  Na    c      0.0000       5.6347 *    -5.6347 *  0.0000     1          
    66  Na    c      0.0000      -5.6347 *     5.6347 *  0.0000     1          
    67  O     c     -4.5078 *    -3.3808 *     5.6347 *  0.0000     2          
    68  Na    c     -4.5078 *    -3.3808 *    -5.6347 *  0.0000     2          
    69  Na    c     -4.5078 *     3.3808 *     5.6347 *  0.0000     2          
    70  O     c      0.0000       1.1269 *    -7.8886 *  0.0000     1          
    71  O     c      0.0000      -7.8886 *     1.1269 *  0.0000     1          
    72  O     c      4.5078 *     5.6347 *    -3.3808 *  0.0000     2          
    73  Na    c      0.0000       1.1269 *     7.8886 *  0.0000     1          
    74  Na    c      0.0000      -7.8886 *    -1.1269 *  0.0000     1          
    75  Na    c      4.5078 *     5.6347 *     3.3808 *  0.0000     2          
    76  Na    c      0.0000      -1.1269 *    -7.8886 *  0.0000     1          
    77  Na    c      0.0000       7.8886 *     1.1269 *  0.0000     1          
    78  Na    c      4.5078 *    -5.6347 *    -3.3808 *  0.0000     2          
    79  Cl    c      2.2539 *    -5.6347 *    -5.6347 *  0.0000     2          
    80  Na    c      2.2539 *     5.6347 *     5.6347 *  0.0000     2          
    81  Cl    c      2.2539 *    -1.1269 *     7.8886 *  0.0000     2          
    82  Na    c      2.2539 *     1.1269 *    -7.8886 *  0.0000     2          
    83  Cl    c      2.2539 *     7.8886 *    -1.1269 *  0.0000     2          
    84  Cl    c      6.7617 *     3.3808 *     3.3808 *  0.0000     2          
    85  Na    c      2.2539 *    -7.8886 *     1.1269 *  0.0000     2          
    86  Na    c      6.7617 *    -3.3808 *    -3.3808 *  0.0000     2          
    87  O     c      0.0000      -3.3808 *    -7.8886 *  0.0000     1          
    88  O     c      0.0000      -7.8886 *    -3.3808 *  0.0000     1          
    89  Na    c      0.0000      -3.3808 *     7.8886 *  0.0000     1          
    90  Na    c      0.0000      -7.8886 *     3.3808 *  0.0000     1          
    91  Na    c      0.0000       3.3808 *    -7.8886 *  0.0000     1          
    92  Na    c      0.0000       7.8886 *    -3.3808 *  0.0000     1          
    93  Cl    c      2.2539 *     3.3808 *     7.8886 *  0.0000     2          
    94  Cl    c      6.7617 *    -1.1269 *    -5.6347 *  0.0000     2          
    95  Na    c      2.2539 *    -3.3808 *    -7.8886 *  0.0000     2          
    96  Na    c      6.7617 *     1.1269 *     5.6347 *  0.0000     2          
    97  Cl    c      2.2539 *     7.8886 *     3.3808 *  0.0000     2          
    98  Cl    c      6.7617 *    -5.6347 *    -1.1269 *  0.0000     2          
    99  Na    c      2.2539 *    -7.8886 *    -3.3808 *  0.0000     2          
   100  Na    c      6.7617 *     5.6347 *     1.1269 *  0.0000     2          
   101  O     c      4.5078 *     5.6347 *     5.6347 *  0.0000     2          
   102  O     c      4.5078 *    -7.8886 *     1.1269 *  0.0000     2          
   103  O     c      9.0156 *     1.1269 *     1.1269 *  0.0000     2          
   104  O     c     -4.5078 *     1.1269 *    -7.8886 *  0.0000     2          
   105  Na    c      4.5078 *     5.6347 *    -5.6347 *  0.0000     2          
   106  Na    c      4.5078 *    -7.8886 *    -1.1269 *  0.0000     2          
   107  Na    c      9.0156 *     1.1269 *    -1.1269 *  0.0000     2          
   108  Na    c     -4.5078 *     1.1269 *     7.8886 *  0.0000     2          
   109  Na    c      4.5078 *     7.8886 *     1.1269 *  0.0000     2          
   110  Na    c      4.5078 *    -5.6347 *     5.6347 *  0.0000     2          
   111  Na    c      9.0156 *    -1.1269 *     1.1269 *  0.0000     2          
   112  Na    c     -4.5078 *    -1.1269 *    -7.8886 *  0.0000     2          
   113  Cl    c      6.7617 *     3.3808 *    -5.6347 *  0.0000     2          
   114  Na    c      6.7617 *    -3.3808 *     5.6347 *  0.0000     2          
   115  Cl    c      6.7617 *    -5.6347 *     3.3808 *  0.0000     2          
   116  Na    c      6.7617 *     5.6347 *    -3.3808 *  0.0000     2          
   117  O     c      0.0000       5.6347 *    -7.8886 *  0.0000     1          
   118  O     c      0.0000      -7.8886 *     5.6347 *  0.0000     1          
   119  O     c      9.0156 *    -3.3808 *     1.1269 *  0.0000     2          
   120  O     c     -4.5078 *    -3.3808 *    -7.8886 *  0.0000     2          
   121  Na    c      0.0000       5.6347 *     7.8886 *  0.0000     1          
   122  Na    c      0.0000      -7.8886 *    -5.6347 *  0.0000     1          
   123  Na    c      9.0156 *    -3.3808 *    -1.1269 *  0.0000     2          
   124  Na    c     -4.5078 *    -3.3808 *     7.8886 *  0.0000     2          
   125  Na    c      0.0000       7.8886 *     5.6347 *  0.0000     1          
   126  Na    c      0.0000      -5.6347 *    -7.8886 *  0.0000     1          
   127  Na    c      9.0156 *     3.3808 *     1.1269 *  0.0000     2          
   128  Na    c     -4.5078 *     3.3808 *    -7.8886 *  0.0000     2          
   129  O     c      4.5078 *    -7.8886 *    -3.3808 *  0.0000     2          
   130  O     c      9.0156 *     1.1269 *    -3.3808 *  0.0000     2          
   131  Na    c      4.5078 *    -7.8886 *     3.3808 *  0.0000     2          
   132  Na    c      9.0156 *     1.1269 *     3.3808 *  0.0000     2          
   133  Na    c      4.5078 *     7.8886 *    -3.3808 *  0.0000     2          
   134  Na    c      9.0156 *    -1.1269 *    -3.3808 *  0.0000     2          
   135  Cl    c      2.2539 *     7.8886 *    -5.6347 *  0.0000     2          
   136  Cl    c      2.2539 *    -5.6347 *     7.8886 *  0.0000     2          
   137  Na    c      2.2539 *     5.6347 *    -7.8886 *  0.0000     2          
   138  Na    c      2.2539 *    -7.8886 *     5.6347 *  0.0000     2          
   139  O     c      0.0000      10.1425 *     1.1269 *  0.0000     1          
   140  Na    c      0.0000      10.1425 *    -1.1269 *  0.0000     1          
   141  Na    c      0.0000     -10.1425 *     1.1269 *  0.0000     1          
   142  O     c      0.0000       1.1269 *    10.1425 *  0.0000     1          
   143  O     c      9.0156 *    -3.3808 *    -3.3808 *  0.0000     2          
   144  Na    c      0.0000       1.1269 *   -10.1425 *  0.0000     1          
   145  Na    c      9.0156 *    -3.3808 *     3.3808 *  0.0000     2          
   146  Na    c      0.0000      -1.1269 *    10.1425 *  0.0000     1          
   147  Na    c      9.0156 *     3.3808 *    -3.3808 *  0.0000     2          
   148  Cl    c      6.7617 *    -5.6347 *    -5.6347 *  0.0000     2          
   149  Na    c      6.7617 *     5.6347 *     5.6347 *  0.0000     2          
   150  Cl    c      2.2539 *    -1.1269 *   -10.1425 *  0.0000     2          
   151  Cl    c      2.2539 *   -10.1425 *    -1.1269 *  0.0000     2          
   152  Cl    c      6.7617 *    -1.1269 *     7.8886 *  0.0000     2          
   153  Cl    c      6.7617 *     7.8886 *    -1.1269 *  0.0000     2          
   154  Na    c      2.2539 *     1.1269 *    10.1425 *  0.0000     2          
   155  Na    c      2.2539 *    10.1425 *     1.1269 *  0.0000     2          
   156  Na    c      6.7617 *     1.1269 *    -7.8886 *  0.0000     2          
   157  Na    c      6.7617 *    -7.8886 *     1.1269 *  0.0000     2          
   158  O     c      4.5078 *     5.6347 *    -7.8886 *  0.0000     2          
   159  O     c      4.5078 *    -7.8886 *     5.6347 *  0.0000     2          
   160  O     c      9.0156 *     1.1269 *     5.6347 *  0.0000     2          
   161  O     c      9.0156 *     5.6347 *     1.1269 *  0.0000     2          
   162  Na    c      4.5078 *     5.6347 *     7.8886 *  0.0000     2          
   163  Na    c      4.5078 *    -7.8886 *    -5.6347 *  0.0000     2          
   164  Na    c      9.0156 *     1.1269 *    -5.6347 *  0.0000     2          
   165  Na    c      9.0156 *     5.6347 *    -1.1269 *  0.0000     2          
   166  Na    c      4.5078 *     7.8886 *     5.6347 *  0.0000     2          
   167  Na    c      4.5078 *    -5.6347 *    -7.8886 *  0.0000     2          
   168  Na    c      9.0156 *    -1.1269 *     5.6347 *  0.0000     2          
   169  Na    c      9.0156 *    -5.6347 *     1.1269 *  0.0000     2          
   170  O     c      0.0000      10.1425 *    -3.3808 *  0.0000     1          
   171  O     c      0.0000      -3.3808 *    10.1425 *  0.0000     1          
   172  Na    c      0.0000      10.1425 *     3.3808 *  0.0000     1          
   173  Na    c      0.0000      -3.3808 *   -10.1425 *  0.0000     1          
   174  Na    c      0.0000       3.3808 *    10.1425 *  0.0000     1          
   175  Na    c      0.0000     -10.1425 *    -3.3808 *  0.0000     1          
   176  Cl    c      2.2539 *     3.3808 *   -10.1425 *  0.0000     2          
   177  Cl    c      2.2539 *   -10.1425 *     3.3808 *  0.0000     2          
   178  Cl    c      6.7617 *     7.8886 *     3.3808 *  0.0000     2          
   179  Na    c      2.2539 *    10.1425 *    -3.3808 *  0.0000     2          
   180  Na    c      2.2539 *    -3.3808 *    10.1425 *  0.0000     2          
   181  Na    c      6.7617 *    -7.8886 *    -3.3808 *  0.0000     2          
   182  Cl    c      6.7617 *     3.3808 *     7.8886 *  0.0000     2          
   183  Na    c      6.7617 *    -3.3808 *    -7.8886 *  0.0000     2          
   184  O     c      9.0156 *    -3.3808 *     5.6347 *  0.0000     2          
   185  O     c     -4.5078 *    10.1425 *     1.1269 *  0.0000     2          
   186  Na    c      9.0156 *    -3.3808 *    -5.6347 *  0.0000     2          
   187  Na    c     -4.5078 *    10.1425 *    -1.1269 *  0.0000     2          
   188  Na    c      9.0156 *     3.3808 *     5.6347 *  0.0000     2          
   189  Na    c     -4.5078 *   -10.1425 *     1.1269 *  0.0000     2          
   190  O     c      0.0000      -7.8886 *    -7.8886 *  0.0000     1          
   191  O     c      4.5078 *     1.1269 *    10.1425 *  0.0000     2          
   192  O     c      9.0156 *     5.6347 *    -3.3808 *  0.0000     2          
   193  Na    c      0.0000      -7.8886 *     7.8886 *  0.0000     1          
   194  Na    c      4.5078 *     1.1269 *   -10.1425 *  0.0000     2          
   195  Na    c      9.0156 *     5.6347 *     3.3808 *  0.0000     2          
   196  Na    c      0.0000       7.8886 *    -7.8886 *  0.0000     1          
   197  Na    c      4.5078 *    -1.1269 *    10.1425 *  0.0000     2          
   198  Na    c      9.0156 *    -5.6347 *    -3.3808 *  0.0000     2          
   199  Cl    c     11.2695 *    -1.1269 *    -1.1269 *  0.0000     2          
   200  Na    c     11.2695 *     1.1269 *     1.1269 *  0.0000     2          
   201  Cl    c      2.2539 *     7.8886 *     7.8886 *  0.0000     2          
   202  Na    c      2.2539 *    -7.8886 *    -7.8886 *  0.0000     2          
   203  O     c      0.0000       5.6347 *    10.1425 *  0.0000     1          
   204  O     c      0.0000      10.1425 *     5.6347 *  0.0000     1          
   205  O     c     -4.5078 *    10.1425 *    -3.3808 *  0.0000     2          
   206  Na    c      0.0000       5.6347 *   -10.1425 *  0.0000     1          
   207  Na    c      0.0000      10.1425 *    -5.6347 *  0.0000     1          
   208  Na    c     -4.5078 *    10.1425 *     3.3808 *  0.0000     2          
   209  Na    c      0.0000      -5.6347 *    10.1425 *  0.0000     1          
   210  Na    c      0.0000     -10.1425 *     5.6347 *  0.0000     1          
   211  Na    c     -4.5078 *   -10.1425 *    -3.3808 *  0.0000     2          
   212  O     c      4.5078 *    -3.3808 *    10.1425 *  0.0000     2          
   213  Na    c      4.5078 *    -3.3808 *   -10.1425 *  0.0000     2          
   214  Na    c      4.5078 *     3.3808 *    10.1425 *  0.0000     2          
   215  Cl    c     11.2695 *    -1.1269 *     3.3808 *  0.0000     2          
   216  Cl    c     11.2695 *     3.3808 *    -1.1269 *  0.0000     2          
   217  Na    c     11.2695 *     1.1269 *    -3.3808 *  0.0000     2          
   218  Na    c     11.2695 *    -3.3808 *     1.1269 *  0.0000     2          
   219  Cl    c      2.2539 *    -5.6347 *   -10.1425 *  0.0000     2          
   220  Cl    c      2.2539 *   -10.1425 *    -5.6347 *  0.0000     2          
   221  Cl    c      6.7617 *     7.8886 *    -5.6347 *  0.0000     2          
   222  Na    c      2.2539 *     5.6347 *    10.1425 *  0.0000     2          
   223  Na    c      2.2539 *    10.1425 *     5.6347 *  0.0000     2          
   224  Na    c      6.7617 *    -7.8886 *     5.6347 *  0.0000     2          
   225  Cl    c      6.7617 *    -5.6347 *     7.8886 *  0.0000     2          
   226  Na    c      6.7617 *     5.6347 *    -7.8886 *  0.0000     2          
   227  O     s      0.0000       1.1269 *     1.1269 *  0.0000     1          
   228  Cl    s      2.2539 *    -1.1269 *    -1.1269 *  0.0000     2          
   229  O     s      0.0000       1.1269 *    -3.3808 *  0.0000     1          
   230  O     s      0.0000      -3.3808 *     1.1269 *  0.0000     1          
   231  Cl    s      2.2539 *    -1.1269 *     3.3808 *  0.0000     2          
   232  Cl    s      2.2539 *     3.3808 *    -1.1269 *  0.0000     2          
   233  O     s     -4.5078 *     1.1269 *     1.1269 *  0.0000     2          
   234  O     s      0.0000      -3.3808 *    -3.3808 *  0.0000     1          
   235  Cl    s      2.2539 *     3.3808 *     3.3808 *  0.0000     2          
   236  O     s      0.0000       1.1269 *     5.6347 *  0.0000     1          
   237  O     s      0.0000       5.6347 *     1.1269 *  0.0000     1          
   238  O     s     -4.5078 *     1.1269 *    -3.3808 *  0.0000     2          
   239  O     s     -4.5078 *    -3.3808 *     1.1269 *  0.0000     2          
   240  Cl    s      2.2539 *    -1.1269 *    -5.6347 *  0.0000     2          
   241  Cl    s      2.2539 *    -5.6347 *    -1.1269 *  0.0000     2          
   242  O     s      0.0000       5.6347 *    -3.3808 *  0.0000     1          
   243  O     s      0.0000      -3.3808 *     5.6347 *  0.0000     1          
   244  O     s      4.5078 *    -3.3808 *    -3.3808 *  0.0000     2          
   245  Cl    s      2.2539 *     3.3808 *    -5.6347 *  0.0000     2          
   246  Cl    s      2.2539 *    -5.6347 *     3.3808 *  0.0000     2          
   247  Cl    s      6.7617 *    -1.1269 *    -1.1269 *  0.0000     2          
   248  O     s     -4.5078 *     1.1269 *     5.6347 *  0.0000     2          
   249  O     s      4.5078 *     5.6347 *     1.1269 *  0.0000     2          
   250  Cl    s      6.7617 *    -1.1269 *     3.3808 *  0.0000     2          
   251  Cl    s      6.7617 *     3.3808 *    -1.1269 *  0.0000     2          
   252  O     s      0.0000       5.6347 *     5.6347 *  0.0000     1          
   253  O     s     -4.5078 *    -3.3808 *     5.6347 *  0.0000     2          
   254  O     s      0.0000       1.1269 *    -7.8886 *  0.0000     1          
   255  O     s      0.0000      -7.8886 *     1.1269 *  0.0000     1          
   256  O     s      4.5078 *     5.6347 *    -3.3808 *  0.0000     2          
   257  Cl    s      2.2539 *    -5.6347 *    -5.6347 *  0.0000     2          
   258  Cl    s      2.2539 *    -1.1269 *     7.8886 *  0.0000     2          
   259  Cl    s      2.2539 *     7.8886 *    -1.1269 *  0.0000     2          
   260  Cl    s      6.7617 *     3.3808 *     3.3808 *  0.0000     2          
   261  O     s      0.0000      -3.3808 *    -7.8886 *  0.0000     1          
   262  O     s      0.0000      -7.8886 *    -3.3808 *  0.0000     1          
   263  Cl    s      2.2539 *     3.3808 *     7.8886 *  0.0000     2          
   264  Cl    s      6.7617 *    -1.1269 *    -5.6347 *  0.0000     2          
   265  Cl    s      2.2539 *     7.8886 *     3.3808 *  0.0000     2          
   266  Cl    s      6.7617 *    -5.6347 *    -1.1269 *  0.0000     2          
   267  O     s      4.5078 *     5.6347 *     5.6347 *  0.0000     2          
   268  O     s      4.5078 *    -7.8886 *     1.1269 *  0.0000     2          
   269  O     s      9.0156 *     1.1269 *     1.1269 *  0.0000     2          
   270  O     s     -4.5078 *     1.1269 *    -7.8886 *  0.0000     2          
   271  Cl    s      6.7617 *     3.3808 *    -5.6347 *  0.0000     2          
   272  Cl    s      6.7617 *    -5.6347 *     3.3808 *  0.0000     2          
   273  O     s      0.0000       5.6347 *    -7.8886 *  0.0000     1          
   274  O     s      0.0000      -7.8886 *     5.6347 *  0.0000     1          
   275  O     s      9.0156 *    -3.3808 *     1.1269 *  0.0000     2          
   276  O     s     -4.5078 *    -3.3808 *    -7.8886 *  0.0000     2          
   277  O     s      4.5078 *    -7.8886 *    -3.3808 *  0.0000     2          
   278  O     s      9.0156 *     1.1269 *    -3.3808 *  0.0000     2          
   279  Cl    s      2.2539 *     7.8886 *    -5.6347 *  0.0000     2          
   280  Cl    s      2.2539 *    -5.6347 *     7.8886 *  0.0000     2          
   281  O     s      0.0000      10.1425 *     1.1269 *  0.0000     1          
   282  O     s      0.0000       1.1269 *    10.1425 *  0.0000     1          
   283  O     s      9.0156 *    -3.3808 *    -3.3808 *  0.0000     2          
   284  Cl    s      6.7617 *    -5.6347 *    -5.6347 *  0.0000     2          
   285  Cl    s      2.2539 *    -1.1269 *   -10.1425 *  0.0000     2          
   286  Cl    s      2.2539 *   -10.1425 *    -1.1269 *  0.0000     2          
   287  Cl    s      6.7617 *    -1.1269 *     7.8886 *  0.0000     2          
   288  Cl    s      6.7617 *     7.8886 *    -1.1269 *  0.0000     2          
   289  O     s      4.5078 *     5.6347 *    -7.8886 *  0.0000     2          
   290  O     s      4.5078 *    -7.8886 *     5.6347 *  0.0000     2          
   291  O     s      9.0156 *     1.1269 *     5.6347 *  0.0000     2          
   292  O     s      9.0156 *     5.6347 *     1.1269 *  0.0000     2          
   293  O     s      0.0000      10.1425 *    -3.3808 *  0.0000     1          
   294  O     s      0.0000      -3.3808 *    10.1425 *  0.0000     1          
   295  Cl    s      2.2539 *     3.3808 *   -10.1425 *  0.0000     2          
   296  Cl    s      2.2539 *   -10.1425 *     3.3808 *  0.0000     2          
   297  Cl    s      6.7617 *     7.8886 *     3.3808 *  0.0000     2          
   298  Cl    s      6.7617 *     3.3808 *     7.8886 *  0.0000     2          
   299  O     s      9.0156 *    -3.3808 *     5.6347 *  0.0000     2          
   300  O     s     -4.5078 *    10.1425 *     1.1269 *  0.0000     2          
   301  O     s      0.0000      -7.8886 *    -7.8886 *  0.0000     1          
   302  O     s      4.5078 *     1.1269 *    10.1425 *  0.0000     2          
   303  O     s      9.0156 *     5.6347 *    -3.3808 *  0.0000     2          
   304  Cl    s     11.2695 *    -1.1269 *    -1.1269 *  0.0000     2          
   305  Cl    s      2.2539 *     7.8886 *     7.8886 *  0.0000     2          
   306  O     s      0.0000       5.6347 *    10.1425 *  0.0000     1          
   307  O     s      0.0000      10.1425 *     5.6347 *  0.0000     1          
   308  O     s     -4.5078 *    10.1425 *    -3.3808 *  0.0000     2          
   309  O     s      4.5078 *    -3.3808 *    10.1425 *  0.0000     2          
   310  Cl    s     11.2695 *    -1.1269 *     3.3808 *  0.0000     2          
   311  Cl    s     11.2695 *     3.3808 *    -1.1269 *  0.0000     2          
   312  Cl    s      2.2539 *    -5.6347 *   -10.1425 *  0.0000     2          
   313  Cl    s      2.2539 *   -10.1425 *    -5.6347 *  0.0000     2          
   314  Cl    s      6.7617 *     7.8886 *    -5.6347 *  0.0000     2          
   315  Cl    s      6.7617 *    -5.6347 *     7.8886 *  0.0000     2          
--------------------------------------------------------------------------------

  Components of defect energy : 

--------------------------------------------------------------------------------
  Region 1 - region 1                   =      8.81710403 eV
  Region 1 - region 2a (unrelaxed)      =     -0.22936690 eV
  Region 1 - 2a (relaxed - correction)  =     -0.29034882 eV
  Region 1 (Total)                      =      8.29738831 eV
  Region 2a                             =      0.14510229 eV
  Region 2b                             =     -0.43287642 eV
--------------------------------------------------------------------------------
  Total defect energy                   =      8.00961418 eV
--------------------------------------------------------------------------------

  Largest displacement in region 2 =   0.0219 Angstroms


  Number of variables =      858

  Maximum number of calculations  =        1000
  Maximum Hessian update interval =          10
  Maximum step size               =   1.0000000
  Maximum parameter tolerance     =   0.0000100
  Maximum function  tolerance     =   0.0000100
  Maximum gradient  tolerance     =   0.0010000

  Symmetry adapted optimisation

  Symmetry to be used for second derivatives

  Newton-Raphson optimiser to be used

  BFGS hessian update to be used

  Lower half triangular hessian to be used

  Start of defect optimisation :

  Cycle:      0 Defect Energy:   8.009614  Gnorm:     0.019522  CPU:    2.676
  ** Hessian calculated **
  Cycle:      1 Defect Energy:   7.300447  Gnorm:     0.016910  CPU:    8.233
  ** Hessian calculated **
  Cycle:      2 Defect Energy:   6.629362  Gnorm:     0.013716  CPU:   13.800
  ** Hessian calculated **
  Cycle:      3 Defect Energy:   5.573354  Gnorm:     0.004580  CPU:   21.574
  Cycle:      4 Defect Energy:   5.464411  Gnorm:     0.002978  CPU:   22.550
  Cycle:      5 Defect Energy:   5.352230  Gnorm:     0.002299  CPU:   23.517
  Cycle:      6 Defect Energy:   5.232904  Gnorm:     0.001748  CPU:   24.468
  Cycle:      7 Defect Energy:   5.125765  Gnorm:     0.001617  CPU:   25.467
  Cycle:      8 Defect Energy:   5.058008  Gnorm:     0.001411  CPU:   26.534
  Cycle:      9 Defect Energy:   5.010908  Gnorm:     0.001470  CPU:   27.452
  Cycle:     10 Defect Energy:   4.965421  Gnorm:     0.001658  CPU:   28.373
  Cycle:     11 Defect Energy:   4.910117  Gnorm:     0.001630  CPU:   29.341
  Cycle:     12 Defect Energy:   4.846148  Gnorm:     0.001789  CPU:   30.275
  ** Hessian calculated **
  Cycle:     13 Defect Energy:   4.786702  Gnorm:     0.001738  CPU:   32.720
  Cycle:     14 Defect Energy:   4.716151  Gnorm:     0.001598  CPU:   33.584
  ** Hessian calculated **
  Cycle:     15 Defect Energy:   4.649321  Gnorm:     0.001751  CPU:   36.067
  Cycle:     16 Defect Energy:   4.670485  Gnorm:     0.001583  CPU:   36.921
  ** Hessian calculated **
  Cycle:     17 Defect Energy:   4.591920  Gnorm:     0.001123  CPU:   39.198
  Cycle:     18 Defect Energy:   4.548680  Gnorm:     0.000799  CPU:   40.071
  Cycle:     19 Defect Energy:   4.522057  Gnorm:     0.000555  CPU:   41.029
  Cycle:     20 Defect Energy:   4.508632  Gnorm:     0.000414  CPU:   41.859
  Cycle:     21 Defect Energy:   4.502062  Gnorm:     0.000378  CPU:   42.691
  ** Hessian calculated **
  Cycle:     22 Defect Energy:   4.493191  Gnorm:     0.000265  CPU:   44.835
  Cycle:     23 Defect Energy:   4.487991  Gnorm:     0.000183  CPU:   45.756
  Cycle:     24 Defect Energy:   4.484627  Gnorm:     0.000154  CPU:   46.569
  Cycle:     25 Defect Energy:   4.480184  Gnorm:     0.000083  CPU:   47.371
  Cycle:     26 Defect Energy:   4.478062  Gnorm:     0.000097  CPU:   48.150
  Cycle:     27 Defect Energy:   4.477744  Gnorm:     0.000100  CPU:   48.929
  ** Hessian calculated **
  Cycle:     28 Defect Energy:   4.477688  Gnorm:     0.000057  CPU:   53.611
  Cycle:     29 Defect Energy:   4.477624  Gnorm:     0.000044  CPU:   55.873
  Cycle:     30 Defect Energy:   4.477532  Gnorm:     0.000042  CPU:   56.875
  Cycle:     31 Defect Energy:   4.477421  Gnorm:     0.000048  CPU:   57.852
  Cycle:     32 Defect Energy:   4.477275  Gnorm:     0.000055  CPU:   58.848
  Cycle:     33 Defect Energy:   4.477155  Gnorm:     0.000066  CPU:   59.860
  Cycle:     34 Defect Energy:   4.476992  Gnorm:     0.000075  CPU:   60.917
  Cycle:     35 Defect Energy:   4.476867  Gnorm:     0.000082  CPU:   61.856
  Cycle:     36 Defect Energy:   4.476660  Gnorm:     0.000090  CPU:   62.817
  Cycle:     37 Defect Energy:   4.476498  Gnorm:     0.000097  CPU:   63.751
  ** Hessian calculated **
  Cycle:     38 Defect Energy:   4.476428  Gnorm:     0.000088  CPU:   66.256
  Cycle:     39 Defect Energy:   4.476368  Gnorm:     0.000085  CPU:   67.134
  Cycle:     40 Defect Energy:   4.476282  Gnorm:     0.000083  CPU:   68.036
  Cycle:     41 Defect Energy:   4.476197  Gnorm:     0.000081  CPU:   68.925
  Cycle:     42 Defect Energy:   4.476080  Gnorm:     0.000080  CPU:   69.812
  Cycle:     43 Defect Energy:   4.476007  Gnorm:     0.000081  CPU:   70.791
  Cycle:     44 Defect Energy:   4.475914  Gnorm:     0.000085  CPU:   71.631
  Cycle:     45 Defect Energy:   4.475809  Gnorm:     0.000090  CPU:   72.468
  Cycle:     46 Defect Energy:   4.475646  Gnorm:     0.000100  CPU:   73.310
  Cycle:     47 Defect Energy:   4.475418  Gnorm:     0.000113  CPU:   74.147
  ** Hessian calculated **
  Cycle:     48 Defect Energy:   4.475337  Gnorm:     0.000107  CPU:   76.461
  Cycle:     49 Defect Energy:   4.475218  Gnorm:     0.000105  CPU:   77.281
  Cycle:     50 Defect Energy:   4.475050  Gnorm:     0.000104  CPU:   78.112
  Cycle:     51 Defect Energy:   4.474850  Gnorm:     0.000104  CPU:   78.930
  Cycle:     52 Defect Energy:   4.474573  Gnorm:     0.000107  CPU:   79.832
  Cycle:     53 Defect Energy:   4.474335  Gnorm:     0.000117  CPU:   80.659
  Cycle:     54 Defect Energy:   4.474011  Gnorm:     0.000131  CPU:   81.457
  Cycle:     55 Defect Energy:   4.473690  Gnorm:     0.000151  CPU:   82.241
  Cycle:     56 Defect Energy:   4.473090  Gnorm:     0.000183  CPU:   83.043
  Cycle:     57 Defect Energy:   4.472183  Gnorm:     0.000232  CPU:   83.839
  ** Hessian calculated **
  Cycle:     58 Defect Energy:   4.471677  Gnorm:     0.000220  CPU:   85.795
  Cycle:     59 Defect Energy:   4.471028  Gnorm:     0.000215  CPU:   89.441
  Cycle:     60 Defect Energy:   4.470159  Gnorm:     0.000208  CPU:   91.363
  Cycle:     61 Defect Energy:   4.468991  Gnorm:     0.000203  CPU:   92.366
  Cycle:     62 Defect Energy:   4.467539  Gnorm:     0.000205  CPU:   93.339
  Cycle:     63 Defect Energy:   4.465638  Gnorm:     0.000221  CPU:   94.338
  Cycle:     64 Defect Energy:   4.463397  Gnorm:     0.000267  CPU:   95.314
  Cycle:     65 Defect Energy:   4.460315  Gnorm:     0.000342  CPU:   96.426
  Cycle:     66 Defect Energy:   4.456497  Gnorm:     0.000459  CPU:   97.407
  Cycle:     67 Defect Energy:   4.451945  Gnorm:     0.000575  CPU:   98.367
  ** Hessian calculated **
  Cycle:     68 Defect Energy:   4.447520  Gnorm:     0.000537  CPU:  100.924
  Cycle:     69 Defect Energy:   4.441532  Gnorm:     0.000520  CPU:  101.843
  Cycle:     70 Defect Energy:   4.433709  Gnorm:     0.000499  CPU:  102.720
  Cycle:     71 Defect Energy:   4.423703  Gnorm:     0.000481  CPU:  103.623
  Cycle:     72 Defect Energy:   4.411614  Gnorm:     0.000495  CPU:  104.518
  Cycle:     73 Defect Energy:   4.400123  Gnorm:     0.000542  CPU:  105.444
  Cycle:     74 Defect Energy:   4.390147  Gnorm:     0.000609  CPU:  106.427
  Cycle:     75 Defect Energy:   4.381206  Gnorm:     0.000700  CPU:  107.312
  Cycle:     76 Defect Energy:   4.373021  Gnorm:     0.000773  CPU:  108.219
  Cycle:     77 Defect Energy:   4.366258  Gnorm:     0.000821  CPU:  109.094
  ** Hessian calculated **
  Cycle:     78 Defect Energy:   4.362271  Gnorm:     0.000796  CPU:  111.388
  Cycle:     79 Defect Energy:   4.357099  Gnorm:     0.000786  CPU:  112.190
  Cycle:     80 Defect Energy:   4.349939  Gnorm:     0.000760  CPU:  113.015
  Cycle:     81 Defect Energy:   4.341315  Gnorm:     0.000745  CPU:  113.841
  Cycle:     82 Defect Energy:   4.333908  Gnorm:     0.000732  CPU:  114.658
  Cycle:     83 Defect Energy:   4.329275  Gnorm:     0.000737  CPU:  115.523
  Cycle:     84 Defect Energy:   4.325376  Gnorm:     0.000745  CPU:  116.375
  Cycle:     85 Defect Energy:   4.322083  Gnorm:     0.000751  CPU:  117.146
  Cycle:     86 Defect Energy:   4.318697  Gnorm:     0.000760  CPU:  117.941
  Cycle:     87 Defect Energy:   4.314745  Gnorm:     0.000774  CPU:  118.744
  ** Hessian calculated **
  Cycle:     88 Defect Energy:   4.297535  Gnorm:     0.000706  CPU:  120.884
  Cycle:     89 Defect Energy:   4.274539  Gnorm:     0.000600  CPU:  121.481
  Cycle:     90 Defect Energy:   4.247517  Gnorm:     0.000420  CPU:  125.249
  Cycle:     91 Defect Energy:   4.236208  Gnorm:     0.000288  CPU:  127.000
  Cycle:     92 Defect Energy:   4.231286  Gnorm:     0.000201  CPU:  127.992
  Cycle:     93 Defect Energy:   4.228932  Gnorm:     0.000137  CPU:  128.990
  Cycle:     94 Defect Energy:   4.227740  Gnorm:     0.000095  CPU:  129.988
  Cycle:     95 Defect Energy:   4.227063  Gnorm:     0.000048  CPU:  130.969
  Cycle:     96 Defect Energy:   4.226929  Gnorm:     0.000033  CPU:  131.984
  Cycle:     97 Defect Energy:   4.226869  Gnorm:     0.000023  CPU:  133.036
  ** Hessian calculated **
  Cycle:     98 Defect Energy:   4.226841  Gnorm:     0.000016  CPU:  135.503
  Cycle:     99 Defect Energy:   4.226828  Gnorm:     0.000011  CPU:  136.466


  **** Optimisation achieved ****


  Final defect energy  =        4.22682164
  Final defect Gnorm   =        0.00000793

  Components of defect energy : 

--------------------------------------------------------------------------------
  Region 1 - region 1                   =      5.54589641 eV
  Region 1 - region 2a (unrelaxed)      =     -0.77729054 eV
  Region 1 - 2a (relaxed - correction)  =     -0.21989070 eV
  Region 1 (Total)                      =      4.54871518 eV
  Region 2a                             =      0.10984517 eV
  Region 2b                             =     -0.43173871 eV
--------------------------------------------------------------------------------
  Total defect energy                   =      4.22682164 eV
--------------------------------------------------------------------------------

  Largest displacement in region 2 =   0.0237 Angstroms

  Final coordinates of region 1 :

--------------------------------------------------------------------------------
   No.  Atomic        x           y           z          Radius      Charge
        Label       (Angs)      (Angs)      (Angs)       (Angs)       (e) 
--------------------------------------------------------------------------------
     1  Na    c     2.253894    2.580969    0.091169    0.000000    1.000000
     2  O     c     2.253894    2.425647    2.308313    0.000000    0.183000
     3  Cl    c     4.668471    0.006867   -0.148411    0.000000    1.485000
     4  Cl    c    -0.160684    0.006867   -0.148411    0.000000    1.485000
     5  Na    c     4.403663    1.841975    2.190034    0.000000    1.000000
     6  Na    c     0.104124    1.841975    2.190034    0.000000    1.000000
     7  O     c     2.253894    2.247428   -2.197666    0.000000    0.183000
     8  O     c     2.253894   -2.409250    2.308110    0.000000    0.183000
     9  Na    c     2.253894    1.791641    4.445448    0.000000    1.000000
    10  Na    c     2.253894   -2.573631    0.091595    0.000000    1.000000
    11  Na    c     2.253894    0.004706   -1.737929    0.000000    1.000000
    12  Na    c     2.253894    4.571593    2.717337    0.000000    1.000000
    13  Cl    c     4.621908    0.006341    4.584733    0.000000    1.485000
    14  Cl    c    -0.114121    0.006341    4.584733    0.000000    1.485000
    15  Cl    c     4.522765    4.572125   -0.135381    0.000000    1.485000
    16  Cl    c    -0.014978    4.572125   -0.135381    0.000000    1.485000
    17  Na    c     4.512556    2.295525   -2.142985    0.000000    1.000000
    18  Na    c    -0.004769    2.295525   -2.142985    0.000000    1.000000
    19  Na    c     4.401558   -1.822452    2.191689    0.000000    1.000000
    20  Na    c     0.106230   -1.822452    2.191689    0.000000    1.000000
    21  O     c    -2.209403    2.235169    2.253668    0.000000    0.183000
    22  O     c     6.717190    2.235169    2.253668    0.000000    0.183000
    23  Na    c    -2.307519    1.882880    0.004106    0.000000    1.000000
    24  Na    c     6.815306    1.882880    0.004106    0.000000    1.000000
    25  Na    c    -2.495404    0.006086    2.618408    0.000000    1.000000
    26  Na    c     7.003191    0.006086    2.618408    0.000000    1.000000
    27  O     c     2.253894   -2.236940   -2.196350    0.000000    0.183000
    28  Na    c     2.253894   -1.791799    4.449064    0.000000    1.000000
    29  Na    c     2.253894    4.487951   -2.563735    0.000000    1.000000
    30  Cl    c     4.577315    4.621739    4.600680    0.000000    1.485000
    31  Cl    c    -0.069528    4.621739    4.600680    0.000000    1.485000
    32  Na    c     4.512050   -2.279962   -2.160362    0.000000    1.000000
    33  Na    c    -0.004263   -2.279962   -2.160362    0.000000    1.000000
    34  O     c     2.253894    2.229339    6.737260    0.000000    0.183000
    35  O     c     2.253894    6.815051    2.277812    0.000000    0.183000
    36  Na    c     2.253894    1.867843   -4.448876    0.000000    1.000000
    37  Na    c     2.253894    6.372325    0.028134    0.000000    1.000000
    38  Na    c     2.253894    0.004228    7.169860    0.000000    1.000000
    39  Na    c     2.253894   -4.556601    2.692598    0.000000    1.000000
    40  O     c    -2.269025    2.257276   -2.254033    0.000000    0.183000
    41  O     c     6.776812    2.257276   -2.254033    0.000000    0.183000
    42  O     c    -2.204587   -2.222950    2.250986    0.000000    0.183000
    43  O     c     6.712374   -2.222950    2.250986    0.000000    0.183000
    44  Na    c    -2.105628    2.577187    4.494819    0.000000    1.000000
    45  Na    c     6.613415    2.577187    4.494819    0.000000    1.000000
    46  Na    c    -2.279475   -1.894144    0.003653    0.000000    1.000000
    47  Na    c     6.787262   -1.894144    0.003653    0.000000    1.000000
    48  Na    c    -2.124792    0.003836   -2.585248    0.000000    1.000000
    49  Na    c     6.632579    0.003836   -2.585248    0.000000    1.000000
    50  Na    c    -1.902839    4.471890    1.945982    0.000000    1.000000
    51  Na    c     6.410626    4.471890    1.945982    0.000000    1.000000
    52  Cl    c     4.508824   -0.002292   -4.574991    0.000000    1.485000
    53  Cl    c    -0.001037   -0.002292   -4.574991    0.000000    1.485000
    54  Cl    c     4.527846   -4.575443   -0.133698    0.000000    1.485000
    55  Cl    c    -0.020058   -4.575443   -0.133698    0.000000    1.485000
    56  Na    c     4.504174    2.205639    6.738920    0.000000    1.000000
    57  Na    c     0.003613    2.205639    6.738920    0.000000    1.000000
    58  Na    c     4.504233    6.894597    2.306484    0.000000    1.000000
    59  Na    c     0.003555    6.894597    2.306484    0.000000    1.000000
    60  O     c     2.253894    6.744882   -2.238684    0.000000    0.183000
    61  O     c     2.253894   -2.221988    6.737608    0.000000    0.183000
    62  Na    c     2.253894    7.193875    4.512172    0.000000    1.000000
    63  Na    c     2.253894   -1.892158   -4.454362    0.000000    1.000000
    64  Na    c     2.253894    4.492452    6.375233    0.000000    1.000000
    65  Na    c     2.253894   -4.476357   -2.525389    0.000000    1.000000
    66  O     c     6.775578   -2.249474   -2.254087    0.000000    0.183000
    67  O     c    -2.267791   -2.249474   -2.254087    0.000000    0.183000
    68  Na    c     6.621037   -2.557040    4.485583    0.000000    1.000000
    69  Na    c    -2.113250   -2.557040    4.485583    0.000000    1.000000
    70  Na    c     6.825736    4.502722   -1.897430    0.000000    1.000000
    71  Na    c    -2.317949    4.502722   -1.897430    0.000000    1.000000
    72  Cl    c     4.518267    4.530674   -4.539987    0.000000    1.485000
    73  Cl    c    -0.010480    4.530674   -4.539987    0.000000    1.485000
    74  Cl    c     4.592616   -4.625938    4.609317    0.000000    1.485000
    75  Cl    c    -0.084829   -4.625938    4.609317    0.000000    1.485000
    76  Na    c     4.511215    6.667090   -2.193950    0.000000    1.000000
    77  Na    c    -0.003428    6.667090   -2.193950    0.000000    1.000000
    78  Na    c     4.503675   -2.189845    6.744428    0.000000    1.000000
    79  Na    c     0.004112   -2.189845    6.744428    0.000000    1.000000
    80  Cl    c     9.071640   -0.004205   -0.015068    0.000000    1.485000
    81  Cl    c    -4.563853   -0.004205   -0.015068    0.000000    1.485000
    82  Na    c     8.971753    2.564421    2.298242    0.000000    1.000000
    83  Na    c    -4.463966    2.564421    2.298242    0.000000    1.000000
    84  O     c    -2.253893    2.259846    6.750653    0.000000    0.183000
    85  O     c     6.761681    2.259846    6.750653    0.000000    0.183000
    86  Na    c    -2.231521    2.610830   -4.485127    0.000000    1.000000
    87  Na    c     6.739308    2.610830   -4.485127    0.000000    1.000000
    88  Na    c    -2.302925   -0.000336    6.466952    0.000000    1.000000
    89  Na    c     6.810713   -0.000336    6.466952    0.000000    1.000000
    90  O     c     6.752832    6.725557    2.250744    0.000000    0.183000
    91  O     c    -2.245045    6.725557    2.250744    0.000000    0.183000
    92  Na    c     6.771734    7.056245    0.010268    0.000000    1.000000
    93  Na    c    -2.263946    7.056245    0.010268    0.000000    1.000000
    94  Na    c     6.418632   -4.471166    1.985555    0.000000    1.000000
    95  Na    c    -1.910844   -4.471166    1.985555    0.000000    1.000000
    96  Cl    c     9.096795    0.005084    4.573273    0.000000    1.485000
    97  Cl    c    -4.589008    0.005084    4.573273    0.000000    1.485000
    98  Na    c     9.015533    2.148921   -2.318801    0.000000    1.000000
    99  Na    c    -4.507746    2.148921   -2.318801    0.000000    1.000000
   100  Cl    c     9.076637    4.514897    0.017295    0.000000    1.485000
   101  Cl    c    -4.568850    4.514897    0.017295    0.000000    1.485000
   102  Na    c     8.967029   -2.548778    2.262484    0.000000    1.000000
   103  Na    c    -4.459242   -2.548778    2.262484    0.000000    1.000000
   104  O     c     2.253894    6.765325    6.736487    0.000000    0.183000
   105  Na    c     2.253894    7.073467   -4.472294    0.000000    1.000000
   106  Na    c     2.253894   -4.490453    6.393089    0.000000    1.000000
   107  O     c    -2.252804   -2.257692    6.740799    0.000000    0.183000
   108  O     c     6.760592   -2.257692    6.740799    0.000000    0.183000
   109  Na    c    -2.263423   -2.603398   -4.482392    0.000000    1.000000
   110  Na    c     6.771210   -2.603398   -4.482392    0.000000    1.000000
   111  Na    c    -2.228229    4.497404    7.063108    0.000000    1.000000
   112  Na    c     6.736016    4.497404    7.063108    0.000000    1.000000
   113  O     c     2.253894    2.237411   -6.728080    0.000000    0.183000
   114  O     c     2.253894   -6.797731    2.281712    0.000000    0.183000
   115  O     c     6.773747    6.758570   -2.241126    0.000000    0.183000
   116  O     c    -2.265959    6.758570   -2.241126    0.000000    0.183000
   117  Na    c     2.253894    2.578843    8.988322    0.000000    1.000000
   118  Na    c     2.253894   -6.446564    0.018594    0.000000    1.000000
   119  Na    c     6.798079    6.446916    4.514142    0.000000    1.000000
   120  Na    c    -2.290292    6.446916    4.514142    0.000000    1.000000
   121  Na    c     2.253894    0.002031   -7.045709    0.000000    1.000000
   122  Na    c     2.253894    9.034021    1.893986    0.000000    1.000000
   123  Na    c     6.821573   -4.497835   -1.922095    0.000000    1.000000
   124  Na    c    -2.313785   -4.497835   -1.922095    0.000000    1.000000
   125  Cl    c     4.512769   -4.533544   -4.550379    0.000000    1.485000
   126  Cl    c    -0.004981   -4.533544   -4.550379    0.000000    1.485000
   127  Na    c     4.512154    6.700245    6.688701    0.000000    1.000000
   128  Na    c    -0.004367    6.700245    6.688701    0.000000    1.000000
   129  Cl    c     4.533973   -0.007140    9.047555    0.000000    1.485000
   130  Cl    c    -0.026186   -0.007140    9.047555    0.000000    1.485000
   131  Na    c     4.504108    2.232220   -6.675991    0.000000    1.000000
   132  Na    c     0.003679    2.232220   -6.675991    0.000000    1.000000
   133  Cl    c     4.516355    9.051888    0.009376    0.000000    1.485000
   134  Cl    c    -0.008568    9.051888    0.009376    0.000000    1.485000
   135  Cl    c     9.061794    4.507334    4.531953    0.000000    1.485000
   136  Cl    c    -4.554007    4.507334    4.531953    0.000000    1.485000
   137  Na    c     4.496464   -6.873212    2.288871    0.000000    1.000000
   138  Na    c     0.011323   -6.873212    2.288871    0.000000    1.000000
   139  Na    c     9.016869   -2.135000   -2.261869    0.000000    1.000000
   140  Na    c    -4.509082   -2.135000   -2.261869    0.000000    1.000000
   141  O     c     2.253894   -2.232896   -6.736470    0.000000    0.183000
   142  O     c     2.253894   -6.732853   -2.254985    0.000000    0.183000
   143  Na    c     2.253894   -2.571937    8.985385    0.000000    1.000000
   144  Na    c     2.253894   -7.138152    4.514135    0.000000    1.000000
   145  Na    c     2.253894    4.500004   -6.449327    0.000000    1.000000
   146  Na    c     2.253894    8.993031   -1.961127    0.000000    1.000000
   147  Cl    c     4.500918    4.526434    9.061863    0.000000    1.485000
   148  Cl    c     0.006870    4.526434    9.061863    0.000000    1.485000
   149  Cl    c     9.071330    0.005838   -4.503648    0.000000    1.485000
   150  Cl    c    -4.563542    0.005838   -4.503648    0.000000    1.485000
   151  Na    c     4.504673   -2.231414   -6.660887    0.000000    1.000000
   152  Na    c     0.003114   -2.231414   -6.660887    0.000000    1.000000
   153  Na    c     9.012213    2.290912    6.665607    0.000000    1.000000
   154  Na    c    -4.504426    2.290912    6.665607    0.000000    1.000000
   155  Cl    c     4.544139    9.059945    4.507774    0.000000    1.485000
   156  Cl    c    -0.036352    9.059945    4.507774    0.000000    1.485000
   157  Cl    c     9.074599   -4.512921    0.012321    0.000000    1.485000
   158  Cl    c    -4.566812   -4.512921    0.012321    0.000000    1.485000
   159  Na    c     4.511466   -6.657726   -2.209649    0.000000    1.000000
   160  Na    c    -0.003678   -6.657726   -2.209649    0.000000    1.000000
   161  Na    c     9.008686    6.531556    2.219551    0.000000    1.000000
   162  Na    c    -4.500899    6.531556    2.219551    0.000000    1.000000
   163  O     c     6.770781    6.745483    6.776082    0.000000    0.183000
   164  O     c    -2.262994    6.745483    6.776082    0.000000    0.183000
   165  O     c     6.740167   -6.732989    2.238604    0.000000    0.183000
   166  O     c    -2.232379   -6.732989    2.238604    0.000000    0.183000
   167  O     c    11.236951    2.250951    2.249679    0.000000    0.183000
   168  O     c    -6.729164    2.250951    2.249679    0.000000    0.183000
   169  O     c    -2.251830    2.260693   -6.732927    0.000000    0.183000
   170  O     c     6.759617    2.260693   -6.732927    0.000000    0.183000
   171  Na    c     6.722086    6.529962   -4.500842    0.000000    1.000000
   172  Na    c    -2.214299    6.529962   -4.500842    0.000000    1.000000
   173  Na    c     6.774845   -6.996150    0.004215    0.000000    1.000000
   174  Na    c    -2.267058   -6.996150    0.004215    0.000000    1.000000
   175  Na    c    11.162158    2.150468   -0.000831    0.000000    1.000000
   176  Na    c    -6.654371    2.150468   -0.000831    0.000000    1.000000
   177  Na    c    -2.295787    1.989907    8.998368    0.000000    1.000000
   178  Na    c     6.803574    1.989907    8.998368    0.000000    1.000000
   179  Na    c     6.885216    8.983472    2.506974    0.000000    1.000000
   180  Na    c    -2.377429    8.983472    2.506974    0.000000    1.000000
   181  Na    c     6.713133   -4.500480    6.937988    0.000000    1.000000
   182  Na    c    -2.205346   -4.500480    6.937988    0.000000    1.000000
   183  Na    c    10.971246   -0.001570    2.306350    0.000000    1.000000
   184  Na    c    -6.463459   -0.001570    2.306350    0.000000    1.000000
   185  Na    c    -2.249051   -0.002812   -6.474512    0.000000    1.000000
   186  Na    c     6.756838   -0.002812   -6.474512    0.000000    1.000000
   187  Cl    c     9.045985    4.530981   -4.535471    0.000000    1.485000
   188  Cl    c    -4.538198    4.530981   -4.535471    0.000000    1.485000
   189  Na    c     9.010615   -2.289133    6.681911    0.000000    1.000000
   190  Na    c    -4.502828   -2.289133    6.681911    0.000000    1.000000
   191  Cl    c     9.062822   -4.498043    4.530198    0.000000    1.485000
   192  Cl    c    -4.555034   -4.498043    4.530198    0.000000    1.485000
   193  Na    c     9.015102    6.780569   -2.290686    0.000000    1.000000
   194  Na    c    -4.507315    6.780569   -2.290686    0.000000    1.000000
   195  O     c     2.253894    6.769174   -6.724083    0.000000    0.183000
   196  O     c     2.253894   -6.764781    6.734933    0.000000    0.183000
   197  O     c    11.234077   -2.252925    2.253974    0.000000    0.183000
   198  O     c    -6.726290   -2.252925    2.253974    0.000000    0.183000
   199  O     c    -2.251933   -2.266031   -6.729927    0.000000    0.183000
   200  O     c     6.759720   -2.266031   -6.729927    0.000000    0.183000
   201  Na    c     2.253894    6.536957    8.998243    0.000000    1.000000
   202  Na    c     2.253894   -6.964965   -4.487761    0.000000    1.000000
   203  Na    c    11.222214   -2.181678   -0.000720    0.000000    1.000000
   204  Na    c    -6.714427   -2.181678   -0.000720    0.000000    1.000000
   205  Na    c    -2.293541   -2.084408    9.001565    0.000000    1.000000
   206  Na    c     6.801329   -2.084408    9.001565    0.000000    1.000000
   207  Na    c     2.253894    8.997485    7.028605    0.000000    1.000000
   208  Na    c     2.253894   -4.499036   -6.524678    0.000000    1.000000
   209  Na    c    11.455048    4.492855    2.176077    0.000000    1.000000
   210  Na    c    -6.947261    4.492855    2.176077    0.000000    1.000000
   211  Na    c    -2.270018    4.495239   -6.981007    0.000000    1.000000
   212  Na    c     6.777805    4.495239   -6.981007    0.000000    1.000000
   213  O     c     6.772248   -6.757402   -2.239867    0.000000    0.183000
   214  O     c    -2.264461   -6.757402   -2.239867    0.000000    0.183000
   215  O     c    11.271937    2.251265   -2.254538    0.000000    0.183000
   216  O     c    -6.764149    2.251265   -2.254538    0.000000    0.183000
   217  Na    c     6.772246   -6.575941    4.507177    0.000000    1.000000
   218  Na    c    -2.264459   -6.575941    4.507177    0.000000    1.000000
   219  Na    c    11.296905    2.272185    4.500310    0.000000    1.000000
   220  Na    c    -6.789118    2.272185    4.500310    0.000000    1.000000
   221  Na    c     6.735658    9.000558   -2.456316    0.000000    1.000000
   222  Na    c    -2.227871    9.000558   -2.456316    0.000000    1.000000
   223  Na    c    11.345142    0.005330   -2.368975    0.000000    1.000000
   224  Na    c    -6.837354    0.005330   -2.368975    0.000000    1.000000
   225  Cl    c     4.527228    9.052265   -4.529051    0.000000    1.485000
   226  Cl    c    -0.019441    9.052265   -4.529051    0.000000    1.485000
   227  Cl    c     4.512564   -4.515603    9.064656    0.000000    1.485000
   228  Cl    c    -0.004777   -4.515603    9.064656    0.000000    1.485000
   229  Na    c     4.505735    6.742903   -6.722028    0.000000    1.000000
   230  Na    c     0.002052    6.742903   -6.722028    0.000000    1.000000
   231  Na    c     4.510981   -6.731884    6.708943    0.000000    1.000000
   232  Na    c    -0.003194   -6.731884    6.708943    0.000000    1.000000
   233  O     c     2.253894   11.266190    2.228588    0.000000    0.183000
   234  Na    c     2.253894   11.461103    0.000482    0.000000    1.000000
   235  Na    c     2.253894   -9.032188    2.030031    0.000000    1.000000
   236  O     c     2.253894    2.274427   11.248069    0.000000    0.183000
   237  O     c    11.273564   -2.239320   -2.259123    0.000000    0.183000
   238  O     c    -6.765776   -2.239320   -2.259123    0.000000    0.183000
   239  Na    c     2.253894    2.428971   -8.993170    0.000000    1.000000
   240  Na    c    11.267982   -2.263424    4.504131    0.000000    1.000000
   241  Na    c    -6.760195   -2.263424    4.504131    0.000000    1.000000
   242  Na    c     2.253894   -0.002454   11.130569    0.000000    1.000000
   243  Na    c    11.225919    4.507543   -2.178152    0.000000    1.000000
   244  Na    c    -6.718132    4.507543   -2.178152    0.000000    1.000000
   245  Cl    c     9.052368   -4.519591   -4.542417    0.000000    1.485000
   246  Cl    c    -4.544581   -4.519591   -4.542417    0.000000    1.485000
   247  Na    c     9.015653    6.749108    6.790401    0.000000    1.000000
   248  Na    c    -4.507866    6.749108    6.790401    0.000000    1.000000
   249  Cl    c     4.534612    0.001976   -9.053285    0.000000    1.485000
   250  Cl    c    -0.026825    0.001976   -9.053285    0.000000    1.485000
   251  Cl    c     4.488202   -9.067532    0.008090    0.000000    1.485000
   252  Cl    c     0.019585   -9.067532    0.008090    0.000000    1.485000
   253  Cl    c     9.026223   -0.009242    9.067615    0.000000    1.485000
   254  Cl    c    -4.518435   -0.009242    9.067615    0.000000    1.485000
   255  Cl    c     9.051283    9.017250   -0.010659    0.000000    1.485000
   256  Cl    c    -4.543496    9.017250   -0.010659    0.000000    1.485000
   257  Na    c     4.508636    2.239413   11.217399    0.000000    1.000000
   258  Na    c    -0.000849    2.239413   11.217399    0.000000    1.000000
[...]
    235 y          4.507787      4.631572     0.123785    Cartesian    2.75
    235 z          4.507787      4.611390     0.103603    Cartesian    2.30
    236 x          2.253894      2.253894     0.000000    Cartesian    0.00
    236 y          2.253894      2.229302    -0.024592    Cartesian   -1.09
    236 z          6.761681      6.737339    -0.024342    Cartesian   -0.36
    237 x          2.253894      2.253894     0.000000    Cartesian    0.00
    237 y          6.761681      6.815117     0.053437    Cartesian    0.79
    237 z          2.253894      2.277856     0.023963    Cartesian    1.06
    238 x         -2.253894     -2.269042    -0.015148    Cartesian    0.67
    238 y          2.253894      2.257275     0.003381    Cartesian    0.15
    238 z         -2.253894     -2.254057    -0.000164    Cartesian    0.01
    239 x         -2.253894     -2.204658     0.049236    Cartesian   -2.18
    239 y         -2.253894     -2.222952     0.030942    Cartesian   -1.37
    239 z          2.253894      2.251011    -0.002883    Cartesian   -0.13
    240 x          4.507787      4.509268     0.001481    Cartesian    0.03
    240 y          0.000000     -0.002434    -0.002434    Cartesian    0.00
    240 z         -4.507787     -4.582493    -0.074705    Cartesian    1.66
    241 x          4.507787      4.537431     0.029643    Cartesian    0.66
    241 y         -4.507787     -4.583949    -0.076162    Cartesian    1.69
    241 z          0.000000     -0.143767    -0.143767    Cartesian    0.00
    242 x          2.253894      2.253894     0.000000    Cartesian    0.00
    242 y          6.761681      6.744876    -0.016805    Cartesian   -0.25
    242 z         -2.253894     -2.238722     0.015172    Cartesian   -0.67
    243 x          2.253894      2.253894     0.000000    Cartesian    0.00
    243 y         -2.253894     -2.221947     0.031946    Cartesian   -1.42
    243 z          6.761681      6.737691    -0.023990    Cartesian   -0.35
    244 x          6.761681      6.775592     0.013911    Cartesian    0.21
    244 y         -2.253894     -2.249475     0.004418    Cartesian   -0.20
    244 z         -2.253894     -2.254106    -0.000212    Cartesian    0.01
    245 x          4.507787      4.520811     0.013024    Cartesian    0.29
    245 y          4.507787      4.531768     0.023981    Cartesian    0.53
    245 z         -4.507787     -4.545200    -0.037413    Cartesian    0.83
    246 x          4.507787      4.602676     0.094889    Cartesian    2.11
    246 y         -4.507787     -4.633795    -0.126007    Cartesian    2.80
    246 z          4.507787      4.620323     0.112536    Cartesian    2.50
    247 x          9.015574      9.072003     0.056429    Cartesian    0.63
    247 y          0.000000     -0.002949    -0.002949    Cartesian    0.00
    247 z          0.000000     -0.015224    -0.015224    Cartesian    0.00
    248 x         -2.253894     -2.253888     0.000006    Cartesian   -0.00
    248 y          2.253894      2.259870     0.005976    Cartesian    0.27
    248 z          6.761681      6.750668    -0.011012    Cartesian   -0.16
    249 x          6.761681      6.752802    -0.008879    Cartesian   -0.13
    249 y          6.761681      6.725596    -0.036084    Cartesian   -0.53
    249 z          2.253894      2.250726    -0.003168    Cartesian   -0.14
    250 x          9.015574      9.095421     0.079846    Cartesian    0.89
    250 y          0.000000      0.005119     0.005119    Cartesian    0.00
    250 z          4.507787      4.571419     0.063632    Cartesian    1.41
    251 x          9.015574      9.078896     0.063322    Cartesian    0.70
    251 y          4.507787      4.516928     0.009141    Cartesian    0.20
    251 z          0.000000      0.020071     0.020071    Cartesian    0.00
    252 x          2.253894      2.253894     0.000000    Cartesian    0.00
    252 y          6.761681      6.765399     0.003719    Cartesian    0.05
    252 z          6.761681      6.736463    -0.025217    Cartesian   -0.37
    253 x         -2.253894     -2.252797     0.001096    Cartesian   -0.05
    253 y         -2.253894     -2.257735    -0.003841    Cartesian    0.17
    253 z          6.761681      6.740796    -0.020885    Cartesian   -0.31
    254 x          2.253894      2.253894     0.000000    Cartesian    0.00
    254 y          2.253894      2.237361    -0.016533    Cartesian   -0.73
    254 z         -6.761681     -6.728116     0.033565    Cartesian   -0.50
    255 x          2.253894      2.253894     0.000000    Cartesian    0.00
    255 y         -6.761681     -6.797804    -0.036123    Cartesian    0.53
    255 z          2.253894      2.281775     0.027881    Cartesian    1.24
    256 x          6.761681      6.773769     0.012089    Cartesian    0.18
    256 y          6.761681      6.758609    -0.003072    Cartesian   -0.05
    256 z         -2.253894     -2.241110     0.012783    Cartesian   -0.57
    257 x          4.507787      4.513846     0.006059    Cartesian    0.13
    257 y         -4.507787     -4.534377    -0.026589    Cartesian    0.59
    257 z         -4.507787     -4.555751    -0.047964    Cartesian    1.06
    258 x          4.507787      4.533588     0.025800    Cartesian    0.57
    258 y          0.000000     -0.006623    -0.006623    Cartesian    0.00
    258 z          9.015574      9.048404     0.032829    Cartesian    0.36
    259 x          4.507787      4.511370     0.003583    Cartesian    0.08
    259 y          9.015574      9.053873     0.038298    Cartesian    0.42
    259 z          0.000000      0.012637     0.012637    Cartesian    0.00
    260 x          9.015574      9.060435     0.044860    Cartesian    0.50
    260 y          4.507787      4.506579    -0.001208    Cartesian   -0.03
    260 z          4.507787      4.528733     0.020945    Cartesian    0.46
    261 x          2.253894      2.253894     0.000000    Cartesian    0.00
    261 y         -2.253894     -2.232853     0.021041    Cartesian   -0.93
    261 z         -6.761681     -6.736511     0.025170    Cartesian   -0.37
    262 x          2.253894      2.253894     0.000000    Cartesian    0.00
    262 y         -6.761681     -6.732838     0.028843    Cartesian   -0.43
    262 z         -2.253894     -2.255047    -0.001153    Cartesian    0.05
    263 x          4.507787      4.497732    -0.010056    Cartesian   -0.22
    263 y          4.507787      4.527655     0.019867    Cartesian    0.44
    263 z          9.015574      9.065186     0.049611    Cartesian    0.55
    264 x          9.015574      9.072690     0.057116    Cartesian    0.63
    264 y          0.000000      0.006907     0.006907    Cartesian    0.00
    264 z         -4.507787     -4.501282     0.006505    Cartesian   -0.14
    265 x          4.507787      4.543151     0.035364    Cartesian    0.78
    265 y          9.015574      9.059847     0.044272    Cartesian    0.49
    265 z          4.507787      4.505720    -0.002067    Cartesian   -0.05
    266 x          9.015574      9.077032     0.061458    Cartesian    0.68
    266 y         -4.507787     -4.513007    -0.005219    Cartesian    0.12
    266 z          0.000000      0.013690     0.013690    Cartesian    0.00
    267 x          6.761681      6.770796     0.009115    Cartesian    0.13
    267 y          6.761681      6.745468    -0.016213    Cartesian   -0.24
    267 z          6.761681      6.776133     0.014452    Cartesian    0.21
    268 x          6.761681      6.740124    -0.021557    Cartesian   -0.32
    268 y         -6.761681     -6.733047     0.028634    Cartesian   -0.42
    268 z          2.253894      2.238572    -0.015322    Cartesian   -0.68
    269 x         11.269468     11.236963    -0.032505    Cartesian   -0.29
    269 y          2.253894      2.250981    -0.002912    Cartesian   -0.13
    269 z          2.253894      2.249682    -0.004212    Cartesian   -0.19
    270 x         -2.253894     -2.251830     0.002064    Cartesian   -0.09
    270 y          2.253894      2.260749     0.006855    Cartesian    0.30
    270 z         -6.761681     -6.732931     0.028750    Cartesian   -0.43
    271 x          9.015574      9.043882     0.028308    Cartesian    0.31
    271 y          4.507787      4.531926     0.024139    Cartesian    0.54
    271 z         -4.507787     -4.539334    -0.031547    Cartesian    0.70
    272 x          9.015574      9.064799     0.049225    Cartesian    0.55
    272 y         -4.507787     -4.494174     0.013613    Cartesian   -0.30
    272 z          4.507787      4.528969     0.021182    Cartesian    0.47
    273 x          2.253894      2.253894     0.000000    Cartesian    0.00
    273 y          6.761681      6.769235     0.007555    Cartesian    0.11
    273 z         -6.761681     -6.724074     0.037607    Cartesian   -0.56
    274 x          2.253894      2.253894     0.000000    Cartesian    0.00
    274 y         -6.761681     -6.764862    -0.003181    Cartesian    0.05
    274 z          6.761681      6.734894    -0.026787    Cartesian   -0.40
    275 x         11.269468     11.234087    -0.035382    Cartesian   -0.31
    275 y         -2.253894     -2.252957     0.000936    Cartesian   -0.04
    275 z          2.253894      2.253983     0.000089    Cartesian    0.00
    276 x         -2.253894     -2.251934     0.001959    Cartesian   -0.09
    276 y         -2.253894     -2.266085    -0.012192    Cartesian    0.54
    276 z         -6.761681     -6.729924     0.031757    Cartesian   -0.47
    277 x          6.761681      6.772270     0.010589    Cartesian    0.16
    277 y         -6.761681     -6.757438     0.004242    Cartesian   -0.06
    277 z         -2.253894     -2.239832     0.014062    Cartesian   -0.62
    278 x         11.269468     11.271939     0.002471    Cartesian    0.02
    278 y          2.253894      2.251239    -0.002655    Cartesian   -0.12
    278 z         -2.253894     -2.254554    -0.000660    Cartesian    0.03
    279 x          4.507787      4.527725     0.019938    Cartesian    0.44
    279 y          9.015574      9.055683     0.040109    Cartesian    0.44
    279 z         -4.507787     -4.529235    -0.021447    Cartesian    0.48
    280 x          4.507787      4.509433     0.001646    Cartesian    0.04
    280 y         -4.507787     -4.515256    -0.007469    Cartesian    0.17
    280 z          9.015574      9.068410     0.052836    Cartesian    0.59
    281 x          2.253894      2.253894     0.000000    Cartesian    0.00
    281 y         11.269468     11.266190    -0.003278    Cartesian   -0.03
    281 z          2.253894      2.228500    -0.025393    Cartesian   -1.13
    282 x          2.253894      2.253894     0.000000    Cartesian    0.00
    282 y          2.253894      2.274510     0.020617    Cartesian    0.91
    282 z         11.269468     11.248078    -0.021390    Cartesian   -0.19
    283 x         11.269468     11.273568     0.004100    Cartesian    0.04
    283 y         -2.253894     -2.239293     0.014600    Cartesian   -0.65
    283 z         -2.253894     -2.259142    -0.005248    Cartesian    0.23
    284 x          9.015574      9.051395     0.035820    Cartesian    0.40
    284 y         -4.507787     -4.517583    -0.009796    Cartesian    0.22
    284 z         -4.507787     -4.546393    -0.038606    Cartesian    0.86
    285 x          4.507787      4.539295     0.031507    Cartesian    0.70
    285 y          0.000000      0.002301     0.002301    Cartesian    0.00
    285 z         -9.015574     -9.056273    -0.040699    Cartesian    0.45
    286 x          4.507787      4.482525    -0.025262    Cartesian   -0.56
    286 y         -9.015574     -9.071344    -0.055769    Cartesian    0.62
    286 z          0.000000      0.010830     0.010830    Cartesian    0.00
    287 x          9.015574      9.021855     0.006281    Cartesian    0.07
    287 y          0.000000     -0.008488    -0.008488    Cartesian    0.00
    287 z          9.015574      9.074071     0.058496    Cartesian    0.65
    288 x          9.015574      9.052545     0.036971    Cartesian    0.41
    288 y          9.015574      9.014789    -0.000785    Cartesian   -0.01
    288 z          0.000000     -0.012549    -0.012549    Cartesian    0.00
    289 x          6.761681      6.761648    -0.000033    Cartesian   -0.00
    289 y          6.761681      6.741144    -0.020537    Cartesian   -0.30
    289 z         -6.761681     -6.766565    -0.004884    Cartesian    0.07
    290 x          6.761681      6.770668     0.008987    Cartesian    0.13
    290 y         -6.761681     -6.751334     0.010347    Cartesian   -0.15
    290 z          6.761681      6.776138     0.014457    Cartesian    0.21
    291 x         11.269468     11.273668     0.004200    Cartesian    0.04
    291 y          2.253894      2.256195     0.002301    Cartesian    0.10
    291 z          6.761681      6.759518    -0.002163    Cartesian   -0.03
    292 x         11.269468     11.273723     0.004255    Cartesian    0.04
    292 y          6.761681      6.745962    -0.015719    Cartesian   -0.23
    292 z          2.253894      2.247928    -0.005965    Cartesian   -0.26
    293 x          2.253894      2.253894     0.000000    Cartesian    0.00
    293 y         11.269468     11.262555    -0.006913    Cartesian   -0.06
    293 z         -2.253894     -2.225098     0.028796    Cartesian   -1.28
    294 x          2.253894      2.253894     0.000000    Cartesian    0.00
    294 y         -2.253894     -2.279657    -0.025764    Cartesian    1.14
    294 z         11.269468     11.245902    -0.023566    Cartesian   -0.21
    295 x          4.507787      4.509137     0.001349    Cartesian    0.03
    295 y          4.507787      4.529112     0.021325    Cartesian    0.47
    295 z         -9.015574     -9.067346    -0.051772    Cartesian    0.57
    296 x          4.507787      4.529241     0.021454    Cartesian    0.48
    296 y         -9.015574     -9.045051    -0.029477    Cartesian    0.33
    296 z          4.507787      4.502371    -0.005416    Cartesian   -0.12
    297 x          9.015574      9.019046     0.003471    Cartesian    0.04
    297 y          9.015574      9.081764     0.066189    Cartesian    0.73
    297 z          4.507787      4.538923     0.031136    Cartesian    0.69
    298 x          9.015574      9.050804     0.035229    Cartesian    0.39
    298 y          4.507787      4.534369     0.026582    Cartesian    0.59
    298 z          9.015574      9.019819     0.004244    Cartesian    0.05
    299 x         11.269468     11.272967     0.003499    Cartesian    0.03
    299 y         -2.253894     -2.255704    -0.001811    Cartesian    0.08
    299 z          6.761681      6.762324     0.000643    Cartesian    0.01
    300 x         -2.253894     -2.266553    -0.012659    Cartesian    0.56
    300 y         11.269468     11.251785    -0.017683    Cartesian   -0.16
    300 z          2.253894      2.276229     0.022336    Cartesian    0.99
    301 x          2.253894      2.253894     0.000000    Cartesian    0.00
    301 y         -6.761681     -6.768123    -0.006442    Cartesian    0.10
    301 z         -6.761681     -6.741030     0.020651    Cartesian   -0.31
    302 x          6.761681      6.766375     0.004694    Cartesian    0.07
    302 y          2.253894      2.229654    -0.024240    Cartesian   -1.08
    302 z         11.269468     11.260770    -0.008698    Cartesian   -0.08
    303 x         11.269468     11.268609    -0.000859    Cartesian   -0.01
    303 y          6.761681      6.767361     0.005680    Cartesian    0.08
    303 z         -2.253894     -2.255433    -0.001539    Cartesian    0.07
    304 x         13.523362     13.596698     0.073336    Cartesian    0.54
    304 y          0.000000      0.006258     0.006258    Cartesian    0.00
    304 z          0.000000      0.000672     0.000672    Cartesian    0.00
    305 x          4.507787      4.508164     0.000377    Cartesian    0.01
    305 y          9.015574      9.048974     0.033399    Cartesian    0.37
    305 z          9.015574      9.053068     0.037493    Cartesian    0.42
    306 x          2.253894      2.253894     0.000000    Cartesian    0.00
    306 y          6.761681      6.747067    -0.014613    Cartesian   -0.22
    306 z         11.269468     11.274065     0.004597    Cartesian    0.04
    307 x          2.253894      2.253894     0.000000    Cartesian    0.00
    307 y         11.269468     11.246023    -0.023445    Cartesian   -0.21
    307 z          6.761681      6.774661     0.012980    Cartesian    0.19
    308 x         -2.253894     -2.254656    -0.000762    Cartesian    0.03
    308 y         11.269468     11.255326    -0.014142    Cartesian   -0.13
    308 z         -2.253894     -2.265381    -0.011488    Cartesian    0.51
    309 x          6.761681      6.766982     0.005301    Cartesian    0.08
    309 y         -2.253894     -2.246403     0.007490    Cartesian   -0.33
    309 z         11.269468     11.274439     0.004970    Cartesian    0.04
    310 x         13.523362     13.587493     0.064131    Cartesian    0.47
    310 y          0.000000      0.001259     0.001259    Cartesian    0.00
    310 z          4.507787      4.490559    -0.017228    Cartesian   -0.38
    311 x         13.523362     13.562692     0.039331    Cartesian    0.29
    311 y          4.507787      4.526123     0.018335    Cartesian    0.41
    311 z          0.000000      0.000352     0.000352    Cartesian    0.00
    312 x          4.507787      4.537462     0.029675    Cartesian    0.66
    312 y         -4.507787     -4.521237    -0.013450    Cartesian    0.30
    312 z         -9.015574     -9.063931    -0.048356    Cartesian    0.54
    313 x          4.507787      4.504215    -0.003572    Cartesian   -0.08
    313 y         -9.015574     -9.056803    -0.041228    Cartesian    0.46
    313 z         -4.507787     -4.532222    -0.024435    Cartesian    0.54
    314 x          9.015574      9.047647     0.032073    Cartesian    0.36
    314 y          9.015574      9.047805     0.032230    Cartesian    0.36
    314 z         -4.507787     -4.515258    -0.007471    Cartesian    0.17
    315 x          9.015574      9.031970     0.016395    Cartesian    0.18
    315 y         -4.507787     -4.533697    -0.025909    Cartesian    0.57
    315 z          9.015574      9.036264     0.020690    Cartesian    0.23
--------------------------------------------------------------------------------


  Time to end of optimisation  =      137.3749 seconds


  Peak dynamic memory used =      91.13 MB 


  Timing analysis for GULP :

--------------------------------------------------------------------------------
  Task / Subroutine                                          Time (Seconds)
--------------------------------------------------------------------------------
  Calculation of reciprocal space energy and derivatives          0.0008
  Calculation of reciprocal space energy using symmetry           0.0011
  Calculation of real space energy and derivatives                0.0044
  Calculation of real space energy using symmetry                 0.0099
  Calculation for region 1 energy and derivatives (2-b)          82.6931
  Calculation for region 2a energy                               48.1296
  Calculation for region 2b energy                                0.0248
  Calculation and manipulation of Hessian matrix                  0.2204
  Calculation of matrix inversion                                 5.7554
  Symmetry generation of equivalent positions                     0.0046
--------------------------------------------------------------------------------
  Total CPU time                                                137.3750
--------------------------------------------------------------------------------


  Dump file written as Na3OCl.grs


  Job Finished at 18:44.06 26th November   2020                               

