********************************************************************************
*                       GENERAL UTILITY LATTICE PROGRAM                        *
*                                 Julian Gale                                  *
*                       Curtin Institute for Computation                       *
*                    School of Molecular and Life Sciences                     *
*                    Curtin University, Western Australia                      *
********************************************************************************
* Version = 5.2.0 * Last modified =  10th September 2020                       *
********************************************************************************
*  optimise     - perform optimisation run                                     *
*  conp         - constant pressure calculation                                *
*  property     - calculate properties for final geometry                      *
*  defect       - perform defect calculation after bulk run                    *
*  compare      - compare initial and final structures                         *
********************************************************************************

  Job Started  at 18:44.49 26th November   2020                               

  Number of CPUs =     1


  Total number of configurations input =      1

********************************************************************************
*  Input for Configuration =   1                                               *
********************************************************************************

  Formula = ClONa3                                                      

  Number of irreducible atoms/shells =       5


  Total number atoms/shells =       7

  Dimensionality = 3               :  Bulk   


  Symmetry :

  Crystal family                   :  Cubic       
  Crystal class  (Groth - 1921)    :  Cubic Hexakisoctahedral              

  Space group (centrosymmetric)    :  P M 3 M         

  Patterson group                  :  P m -3 m 

  Cartesian lattice vectors (Angstroms) :

        4.504000    0.000000    0.000000
        0.000000    4.504000    0.000000
        0.000000    0.000000    4.504000

  Cell parameters (Angstroms/Degrees):

  a =       4.5040    alpha =  90.0000
  b =       4.5040    beta  =  90.0000
  c =       4.5040    gamma =  90.0000

  Initial cell volume =          91.368216 Angs**3

  Temperature of configuration =   0.00     K 

  Pressure of configuration =         0.000 GPa 

  Fractional coordinates of asymmetric unit :

--------------------------------------------------------------------------------
   No.  Atomic       x           y          z         Charge      Occupancy
        Label      (Frac)      (Frac)     (Frac)        (e)         (Frac)  
--------------------------------------------------------------------------------
      1 Cl    c    0.000000    0.000000    0.000000     1.48500    1.000000    
      2 O     c    0.500000    0.500000    0.500000     0.18300    1.000000    
      3 Na    c    0.500000    0.500000    0.000000     1.00000    1.000000    
      4 Cl    s    0.000000    0.000000    0.000000    -2.48500    1.000000    
      5 O     s    0.500000    0.500000    0.500000    -2.18300    1.000000    
--------------------------------------------------------------------------------


  Constraints : 

--------------------------------------------------------------------------------
  Constraint no.      Unconstrained     Constrained    Coefficient    Offset
                         Variable         Variable
--------------------------------------------------------------------------------
           1              Strain 1        Strain 2       1.00000      0.0000
           2              Strain 1        Strain 3       1.00000      0.0000
--------------------------------------------------------------------------------


********************************************************************************
*  General input information                                                   *
********************************************************************************

  Species output for all configurations : 

--------------------------------------------------------------------------------
  Species    Type    Atomic    Atomic    Charge       Radii (Angs)     Library
                     Number     Mass       (e)     Cova   Ionic  VDW   Symbol
--------------------------------------------------------------------------------
    Na       Core       11      22.99   1.000000   0.970  0.000  2.300          
    O        Core        8      16.00   0.183000   0.730  0.000  1.360          
    O        Shell       8       0.00  -2.183000   0.730  0.000  1.360          
    Cl       Core       17      35.45   1.485000   0.990  0.000  1.650          
    Cl       Shell      17       0.00  -2.485000   0.990  0.000  1.650          
--------------------------------------------------------------------------------


  Lattice summation method               =    Ewald          (3-D)
                                         =    Parry          (2-D)
                                         =    Saunders et al (1-D)
  Accuracy factor for lattice sums       =   12.000


  Analytic derivatives to be used

  Time limit = Infinity

  Maximum range for interatomic potentials =    100000.000000 Angstroms

  General interatomic potentials :

--------------------------------------------------------------------------------
Atom  Types   Potential      Parameter       Value         Units   Cutoffs(Ang)
  1     2                                                            Min /  Max 
--------------------------------------------------------------------------------
O    c O    s Spring (c-s)  Spring k 2       593.72000    eV*Ang^-2 0.000  0.800
                            Spring k 4       0.0000000    eV*Ang^-4 
--------------------------------------------------------------------------------
Cl   c Cl   s Spring (c-s)  Spring k 2       29.380000    eV*Ang^-2 0.000  0.800
                            Spring k 4       0.0000000    eV*Ang^-4 
--------------------------------------------------------------------------------
Na   c Na   c Buckingham    Buckingham A     1788.1900    eV        0.000 12.000
                            Buckingham rho  0.15900000    Ang       
                            Buckingham C     0.0000000    eV*Ang^6  
--------------------------------------------------------------------------------
Na   c O    s Buckingham    Buckingham A     1226.8400    eV        0.000 12.000
                            Buckingham rho  0.30700000    Ang       
                            Buckingham C     0.0000000    eV*Ang^6  
--------------------------------------------------------------------------------
Na   c Cl   s Buckingham    Buckingham A     2314.7000    eV        0.000 12.000
                            Buckingham rho  0.29000000    Ang       
                            Buckingham C     0.0000000    eV*Ang^6  
--------------------------------------------------------------------------------
O    s O    s Buckingham    Buckingham A     22764.300    eV        0.000 12.000
                            Buckingham rho  0.14900000    Ang       
                            Buckingham C     13.190000    eV*Ang^6  
--------------------------------------------------------------------------------
O    s Cl   s Buckingham    Buckingham A     8286.9100    eV        0.000 12.000
                            Buckingham rho  0.25900000    Ang       
                            Buckingham C     62.200000    eV*Ang^6  
--------------------------------------------------------------------------------
Cl   s Cl   s Buckingham    Buckingham A     1227.2000    eV        0.000 12.000
                            Buckingham rho  0.32100000    Ang       
                            Buckingham C     14.530000    eV*Ang^6  
--------------------------------------------------------------------------------

********************************************************************************
*  Output for configuration   1                                                *
********************************************************************************


  Components of energy : 

--------------------------------------------------------------------------------
  Interatomic potentials     =           5.13022605 eV    
  Monopole - monopole (real) =         -10.03624526 eV    
  Monopole - monopole (recip)=         -29.53581274 eV    
  Monopole - monopole (total)=         -39.57205800 eV    
--------------------------------------------------------------------------------
  Total lattice energy       =         -34.44183194 eV    
--------------------------------------------------------------------------------
  Total lattice energy       =           -3323.1103 kJ/(mole unit cells)
--------------------------------------------------------------------------------


  Number of variables =        1

  Maximum number of calculations  =          1000
  Maximum Hessian update interval =            10
  Maximum step size               =   1.000000000
  Maximum parameter tolerance     =   0.000010000
  Maximum function  tolerance     =   0.000010000
  Maximum gradient  tolerance     =   0.001000000
  Maximum gradient  component     =   0.010000000

  Symmetry constrained optimisation

  Symmetry used for second derivatives

  Cell parameters to be optimised using strains

  Newton-Raphson optimiser to be used

  BFGS hessian update to be used

  Lower half triangular hessian to be used

  Start of bulk optimisation :

  Cycle:      0 Energy:       -34.441832  Gnorm:      0.196570  CPU:    0.016
  ** Hessian calculated **
  Cycle:      1 Energy:       -34.441914  Gnorm:      0.000103  CPU:    0.020


  **** Optimisation achieved ****


  Final energy =     -34.44191447 eV
  Final Gnorm  =       0.00000000

  Components of energy : 

--------------------------------------------------------------------------------
  Interatomic potentials     =           5.09689708 eV    
  Monopole - monopole (real) =         -10.02781331 eV    
  Monopole - monopole (recip)=         -29.51099824 eV    
  Monopole - monopole (total)=         -39.53881155 eV    
--------------------------------------------------------------------------------
  Total lattice energy       =         -34.44191447 eV    
--------------------------------------------------------------------------------
  Total lattice energy       =           -3323.1183 kJ/(mole unit cells)
--------------------------------------------------------------------------------

  Final asymmetric unit coordinates :

--------------------------------------------------------------------------------
   No.  Atomic        x           y           z         Radius
        Label       (Frac)      (Frac)      (Frac)       (Angs) 
--------------------------------------------------------------------------------
     1  Cl    c     0.000000    0.000000    0.000000    0.000000
     2  O     c     0.500000    0.500000    0.500000    0.000000
     3  Na    c     0.500000    0.500000    0.000000    0.000000
     4  Cl    s     0.000000    0.000000    0.000000    0.000000
     5  O     s     0.500000    0.500000    0.500000    0.000000
--------------------------------------------------------------------------------

  Final Cartesian lattice vectors (Angstroms) :

        4.507787    0.000000    0.000000
        0.000000    4.507787    0.000000
        0.000000    0.000000    4.507787


  Final cell parameters and derivatives :

--------------------------------------------------------------------------------
       a            4.507787 Angstrom     dE/de1(xx)     0.000000 eV/strain
       b            4.507787 Angstrom     dE/de2(yy)     0.000000 eV/strain
       c            4.507787 Angstrom     dE/de3(zz)     0.000000 eV/strain
       alpha       90.000000 Degrees      dE/de4(yz)     0.000000 eV/strain
       beta        90.000000 Degrees      dE/de5(xz)     0.000000 eV/strain
       gamma       90.000000 Degrees      dE/de6(xy)     0.000000 eV/strain
--------------------------------------------------------------------------------

  Primitive cell volume =            91.598892 Angs**3

  Density of cell =      2.183054 g/cm**3

  Non-primitive cell volume =            91.598892 Angs**3


  Final internal derivatives :

--------------------------------------------------------------------------------
   No.  Atomic          a             b             c           Radius
        Label          (eV)          (eV)          (eV)        (eV/Angs)
--------------------------------------------------------------------------------
      1 Cl    c       0.000000      0.000000      0.000000      0.000000
      2 O     c       0.000000      0.000000      0.000000      0.000000
      3 Na    c       0.000000      0.000000      0.000000      0.000000
      4 Cl    s       0.000000      0.000000      0.000000      0.000000
      5 O     s       0.000000      0.000000      0.000000      0.000000
--------------------------------------------------------------------------------
  Maximum abs         0.000000      0.000000      0.000000      0.000000
--------------------------------------------------------------------------------

  Comparison of initial and final structures : 

--------------------------------------------------------------------------------
  Parameter   Initial value   Final value   Difference    Units      Percent
--------------------------------------------------------------------------------
    Volume        91.368216     91.598892     0.230676    Angs**3      0.25
    a              4.504000      4.507787     0.003787    Angstroms    0.08
    b              4.504000      4.507787     0.003787    Angstroms    0.08
    c              4.504000      4.507787     0.003787    Angstroms    0.08
    alpha         90.000000     90.000000     0.000000    Degrees      0.00
    beta          90.000000     90.000000     0.000000    Degrees      0.00
    gamma         90.000000     90.000000     0.000000    Degrees      0.00
      1 x          0.000000      0.000000     0.000000    Fractional   0.00
      1 y          0.000000      0.000000     0.000000    Fractional   0.00
      1 z          0.000000      0.000000     0.000000    Fractional   0.00
      2 x          0.500000      0.500000     0.000000    Fractional   0.00
      2 y          0.500000      0.500000     0.000000    Fractional   0.00
      2 z          0.500000      0.500000     0.000000    Fractional   0.00
      3 x          0.500000      0.500000     0.000000    Fractional   0.00
      3 y          0.500000      0.500000     0.000000    Fractional   0.00
      3 z          0.000000      0.000000     0.000000    Fractional   0.00
      4 x          0.000000      0.000000     0.000000    Fractional   0.00
      4 y          0.000000      0.000000     0.000000    Fractional   0.00
      4 z          0.000000      0.000000     0.000000    Fractional   0.00
      5 x          0.500000      0.500000     0.000000    Fractional   0.00
      5 y          0.500000      0.500000     0.000000    Fractional   0.00
      5 z          0.500000      0.500000     0.000000    Fractional   0.00
--------------------------------------------------------------------------------


  Born effective charge tensors : 

-------------------------------------------------------------------------------
  Atom             x           y             z
-------------------------------------------------------------------------------
    1 Cl    x      -1.0181     -0.0000      0.0000
            y      -0.0000     -1.0181      0.0000
            z       0.0000      0.0000     -1.0181
-------------------------------------------------------------------------------
    2 O     x      -2.2647      0.0000     -0.0000
            y       0.0000     -2.2647     -0.0000
            z      -0.0000     -0.0000     -2.2647
-------------------------------------------------------------------------------
    3 Na    x       1.2258     -0.0000      0.0000
            y      -0.0000      1.2258     -0.0000
            z       0.0000     -0.0000      0.8313
-------------------------------------------------------------------------------




  Elastic Constant Matrix: (Units=GPa)

-------------------------------------------------------------------------------
  Indices      1         2         3         4         5         6    
-------------------------------------------------------------------------------
       1     95.8177   20.0737   20.0737   -0.0000   -0.0000    0.0000
       2     20.0737   95.8177   20.0737   -0.0000   -0.0000    0.0000
       3     20.0737   20.0737   95.8177   -0.0000   -0.0000    0.0000
       4     -0.0000   -0.0000   -0.0000   20.0737   -0.0000    0.0000
       5     -0.0000   -0.0000   -0.0000   -0.0000   20.0737    0.0000
       6      0.0000    0.0000    0.0000    0.0000    0.0000   20.0737
-------------------------------------------------------------------------------


  Elastic Compliance Matrix: (Units=1/GPa)

-------------------------------------------------------------------------------
  Indices      1         2         3         4         5         6    
-------------------------------------------------------------------------------
       1    0.011253 -0.001949 -0.001949  0.000000  0.000000 -0.000000
       2   -0.001949  0.011253 -0.001949  0.000000  0.000000  0.000000
       3   -0.001949 -0.001949  0.011253  0.000000  0.000000 -0.000000
       4    0.000000  0.000000  0.000000  0.049816  0.000000 -0.000000
       5    0.000000  0.000000  0.000000  0.000000  0.049816 -0.000000
       6   -0.000000  0.000000 -0.000000 -0.000000 -0.000000  0.049816
-------------------------------------------------------------------------------

  Mechanical properties :

-------------------------------------------------------------------------------
  Convention :                    Reuss         Voigt         Hill
-------------------------------------------------------------------------------
  Bulk  Modulus (GPa)     =      45.32174      45.32174      45.32174
  Shear Modulus (GPa)     =      24.72085      27.19304      25.95695
-------------------------------------------------------------------------------
  Velocity S-wave (km/s)  =       3.36511       3.52937       3.44822
  Velocity P-wave (km/s)  =       5.98827       6.11304       6.05098
-------------------------------------------------------------------------------
  Compressibility (1/GPa) =    0.02206447
-------------------------------------------------------------------------------
  Stress axis :                     x             y             z
-------------------------------------------------------------------------------
  Youngs Moduli (GPa)     =      88.86373      88.86373      88.86373
-------------------------------------------------------------------------------
  Poissons Ratio (x)      =                     0.17321       0.17321
  Poissons Ratio (y)      =       0.17321                     0.17321
  Poissons Ratio (z)      =       0.17321       0.17321
-------------------------------------------------------------------------------


  Piezoelectric Strain Matrix: (Units=C/m**2)

-------------------------------------------------------------------------------
  Indices      1         2         3         4         5         6    
-------------------------------------------------------------------------------
       x    -0.00000  -0.00000  -0.00000   0.00000  -0.00000  -0.00000
       y    -0.00000  -0.00000   0.00000  -0.00000   0.00000   0.00000
       z    -0.00000  -0.00000  -0.00000  -0.00000   0.00000   0.00000
-------------------------------------------------------------------------------


  Piezoelectric Stress Matrix: (Units=10**-11 C/N)

-------------------------------------------------------------------------------
  Indices      1         2         3         4         5         6    
-------------------------------------------------------------------------------
       x    -0.00000   0.00000   0.00000   0.00000  -0.00000  -0.00000
       y    -0.00000  -0.00000   0.00000  -0.00000   0.00000   0.00000
       z     0.00000   0.00000  -0.00000  -0.00000   0.00000   0.00000
-------------------------------------------------------------------------------


  Static dielectric constant tensor : 

-------------------------------------------------------------------------------
              x         y         z
-------------------------------------------------------------------------------
       x    22.84729   0.00000   0.00000
       y     0.00000  22.84729  -0.00000
       z     0.00000  -0.00000  22.84729
--------------------------------------------------------------------------------

  High frequency dielectric constant tensor : 

-------------------------------------------------------------------------------
              x         y         z
-------------------------------------------------------------------------------
       x     1.47557   0.00000  -0.00000
       y     0.00000   1.47557  -0.00000
       z    -0.00000  -0.00000   1.47557
-------------------------------------------------------------------------------

  Static refractive indices : 

-------------------------------------------------------------------------------
    1 =    4.77988      2 =    4.77988      3 =    4.77988
-------------------------------------------------------------------------------

  High frequency refractive indices : 

-------------------------------------------------------------------------------
    1 =    1.21473      2 =    1.21473      3 =    1.21473
-------------------------------------------------------------------------------


  Time to end of optimisation =       0.0297 seconds

********************************************************************************
*  Defect calculation for configuration   1 :                                  *
********************************************************************************

  Total number of defects =      3

  Total charge on defect  =  -1.00

  Defect centre is at   0.5000   0.2500   0.2500  Frac

  Region 1 radius =  12.0000      Number of ions =    543

  Number of symmetry inequivalent region 1 ions  =    315

  Region 2 radius =  16.0000      Number of ions =    766

  Number of symmetry inequivalent region 2a ions =    417

  Region 2a mode = 4 : screened electrostatics due to region 1 
                       neglect correction to region 1 forces from 2a
                       region 2a displacements based on defects only

  Region 2a ions will only interact with defects in region 1

  Vacancies:

--------------------------------------------------------------------------------
    Specification type     Symbol/Number         x          y          z
--------------------------------------------------------------------------------
    Fractional                               0.500000   0.500000   0.000000
    Fractional                               0.500000   0.000000   0.500000
--------------------------------------------------------------------------------

  Interstitials:

--------------------------------------------------------------------------------
    Specification type     Symbol/Number         x          y          z
--------------------------------------------------------------------------------
    Atom/Fractional         Na               0.500000   0.060000   0.440000
--------------------------------------------------------------------------------


  Symmetry reduced region 1 (Relative to defect centre) :

--------------------------------------------------------------------------------
   No.   Atomic       x            y             z       Radius  Multiplicity   
         Label      (Angs)       (Angs)        (Angs)    (Angs)     
--------------------------------------------------------------------------------
     1  Na    c      0.0000      -0.8565 *     0.8565 *  0.0000     1    Defect
     2  O     c      0.0000       1.1269 *     1.1269 *  0.0000     1          
     3  Cl    c      2.2539 *    -1.1269 *    -1.1269 *  0.0000     2          
     4  Na    c      2.2539 *     1.1269 *     1.1269 *  0.0000     2          
     5  O     c      0.0000       1.1269 *    -3.3808 *  0.0000     1          
     6  O     c      0.0000      -3.3808 *     1.1269 *  0.0000     1          
     7  Na    c      0.0000       1.1269 *     3.3808 *  0.0000     1          
     8  Na    c      0.0000      -3.3808 *    -1.1269 *  0.0000     1          
     9  Na    c      0.0000      -1.1269 *    -3.3808 *  0.0000     1          
    10  Na    c      0.0000       3.3808 *     1.1269 *  0.0000     1          
    11  Cl    c      2.2539 *    -1.1269 *     3.3808 *  0.0000     2          
    12  Cl    c      2.2539 *     3.3808 *    -1.1269 *  0.0000     2          
    13  Na    c      2.2539 *     1.1269 *    -3.3808 *  0.0000     2          
    14  Na    c      2.2539 *    -3.3808 *     1.1269 *  0.0000     2          
    15  O     c     -4.5078 *     1.1269 *     1.1269 *  0.0000     2          
    16  Na    c     -4.5078 *     1.1269 *    -1.1269 *  0.0000     2          
    17  Na    c     -4.5078 *    -1.1269 *     1.1269 *  0.0000     2          
    18  O     c      0.0000      -3.3808 *    -3.3808 *  0.0000     1          
    19  Na    c      0.0000      -3.3808 *     3.3808 *  0.0000     1          
    20  Na    c      0.0000       3.3808 *    -3.3808 *  0.0000     1          
    21  Cl    c      2.2539 *     3.3808 *     3.3808 *  0.0000     2          
    22  Na    c      2.2539 *    -3.3808 *    -3.3808 *  0.0000     2          
    23  O     c      0.0000       1.1269 *     5.6347 *  0.0000     1          
    24  O     c      0.0000       5.6347 *     1.1269 *  0.0000     1          
    25  Na    c      0.0000       1.1269 *    -5.6347 *  0.0000     1          
    26  Na    c      0.0000       5.6347 *    -1.1269 *  0.0000     1          
    27  Na    c      0.0000      -1.1269 *     5.6347 *  0.0000     1          
    28  Na    c      0.0000      -5.6347 *     1.1269 *  0.0000     1          
    29  O     c     -4.5078 *     1.1269 *    -3.3808 *  0.0000     2          
    30  O     c     -4.5078 *    -3.3808 *     1.1269 *  0.0000     2          
    31  Na    c     -4.5078 *     1.1269 *     3.3808 *  0.0000     2          
    32  Na    c     -4.5078 *    -3.3808 *    -1.1269 *  0.0000     2          
    33  Na    c     -4.5078 *    -1.1269 *    -3.3808 *  0.0000     2          
    34  Na    c     -4.5078 *     3.3808 *     1.1269 *  0.0000     2          
    35  Cl    c      2.2539 *    -1.1269 *    -5.6347 *  0.0000     2          
    36  Cl    c      2.2539 *    -5.6347 *    -1.1269 *  0.0000     2          
    37  Na    c      2.2539 *     1.1269 *     5.6347 *  0.0000     2          
    38  Na    c      2.2539 *     5.6347 *     1.1269 *  0.0000     2          
    39  O     c      0.0000       5.6347 *    -3.3808 *  0.0000     1          
    40  O     c      0.0000      -3.3808 *     5.6347 *  0.0000     1          
    41  Na    c      0.0000       5.6347 *     3.3808 *  0.0000     1          
    42  Na    c      0.0000      -3.3808 *    -5.6347 *  0.0000     1          
    43  Na    c      0.0000       3.3808 *     5.6347 *  0.0000     1          
    44  Na    c      0.0000      -5.6347 *    -3.3808 *  0.0000     1          
    45  O     c      4.5078 *    -3.3808 *    -3.3808 *  0.0000     2          
    46  Na    c      4.5078 *    -3.3808 *     3.3808 *  0.0000     2          
    47  Na    c      4.5078 *     3.3808 *    -3.3808 *  0.0000     2          
    48  Cl    c      2.2539 *     3.3808 *    -5.6347 *  0.0000     2          
    49  Cl    c      2.2539 *    -5.6347 *     3.3808 *  0.0000     2          
    50  Na    c      2.2539 *     5.6347 *    -3.3808 *  0.0000     2          
    51  Na    c      2.2539 *    -3.3808 *     5.6347 *  0.0000     2          
    52  Cl    c      6.7617 *    -1.1269 *    -1.1269 *  0.0000     2          
    53  Na    c      6.7617 *     1.1269 *     1.1269 *  0.0000     2          
    54  O     c     -4.5078 *     1.1269 *     5.6347 *  0.0000     2          
    55  Na    c     -4.5078 *     1.1269 *    -5.6347 *  0.0000     2          
    56  Na    c     -4.5078 *    -1.1269 *     5.6347 *  0.0000     2          
    57  O     c      4.5078 *     5.6347 *     1.1269 *  0.0000     2          
    58  Na    c      4.5078 *     5.6347 *    -1.1269 *  0.0000     2          
    59  Na    c      4.5078 *    -5.6347 *     1.1269 *  0.0000     2          
    60  Cl    c      6.7617 *    -1.1269 *     3.3808 *  0.0000     2          
    61  Na    c      6.7617 *     1.1269 *    -3.3808 *  0.0000     2          
    62  Cl    c      6.7617 *     3.3808 *    -1.1269 *  0.0000     2          
    63  Na    c      6.7617 *    -3.3808 *     1.1269 *  0.0000     2          
    64  O     c      0.0000       5.6347 *     5.6347 *  0.0000     1          
    65  Na    c      0.0000       5.6347 *    -5.6347 *  0.0000     1          
    66  Na    c      0.0000      -5.6347 *     5.6347 *  0.0000     1          
    67  O     c     -4.5078 *    -3.3808 *     5.6347 *  0.0000     2          
    68  Na    c     -4.5078 *    -3.3808 *    -5.6347 *  0.0000     2          
    69  Na    c     -4.5078 *     3.3808 *     5.6347 *  0.0000     2          
    70  O     c      0.0000       1.1269 *    -7.8886 *  0.0000     1          
    71  O     c      0.0000      -7.8886 *     1.1269 *  0.0000     1          
    72  O     c      4.5078 *     5.6347 *    -3.3808 *  0.0000     2          
    73  Na    c      0.0000       1.1269 *     7.8886 *  0.0000     1          
    74  Na    c      0.0000      -7.8886 *    -1.1269 *  0.0000     1          
    75  Na    c      4.5078 *     5.6347 *     3.3808 *  0.0000     2          
    76  Na    c      0.0000      -1.1269 *    -7.8886 *  0.0000     1          
    77  Na    c      0.0000       7.8886 *     1.1269 *  0.0000     1          
    78  Na    c      4.5078 *    -5.6347 *    -3.3808 *  0.0000     2          
    79  Cl    c      2.2539 *    -5.6347 *    -5.6347 *  0.0000     2          
    80  Na    c      2.2539 *     5.6347 *     5.6347 *  0.0000     2          
    81  Cl    c      2.2539 *    -1.1269 *     7.8886 *  0.0000     2          
    82  Na    c      2.2539 *     1.1269 *    -7.8886 *  0.0000     2          
    83  Cl    c      2.2539 *     7.8886 *    -1.1269 *  0.0000     2          
    84  Cl    c      6.7617 *     3.3808 *     3.3808 *  0.0000     2          
    85  Na    c      2.2539 *    -7.8886 *     1.1269 *  0.0000     2          
    86  Na    c      6.7617 *    -3.3808 *    -3.3808 *  0.0000     2          
    87  O     c      0.0000      -3.3808 *    -7.8886 *  0.0000     1          
    88  O     c      0.0000      -7.8886 *    -3.3808 *  0.0000     1          
    89  Na    c      0.0000      -3.3808 *     7.8886 *  0.0000     1          
    90  Na    c      0.0000      -7.8886 *     3.3808 *  0.0000     1          
    91  Na    c      0.0000       3.3808 *    -7.8886 *  0.0000     1          
    92  Na    c      0.0000       7.8886 *    -3.3808 *  0.0000     1          
    93  Cl    c      2.2539 *     3.3808 *     7.8886 *  0.0000     2          
    94  Cl    c      6.7617 *    -1.1269 *    -5.6347 *  0.0000     2          
    95  Na    c      2.2539 *    -3.3808 *    -7.8886 *  0.0000     2          
    96  Na    c      6.7617 *     1.1269 *     5.6347 *  0.0000     2          
    97  Cl    c      2.2539 *     7.8886 *     3.3808 *  0.0000     2          
    98  Cl    c      6.7617 *    -5.6347 *    -1.1269 *  0.0000     2          
    99  Na    c      2.2539 *    -7.8886 *    -3.3808 *  0.0000     2          
   100  Na    c      6.7617 *     5.6347 *     1.1269 *  0.0000     2          
   101  O     c      4.5078 *     5.6347 *     5.6347 *  0.0000     2          
   102  O     c      4.5078 *    -7.8886 *     1.1269 *  0.0000     2          
   103  O     c      9.0156 *     1.1269 *     1.1269 *  0.0000     2          
   104  O     c     -4.5078 *     1.1269 *    -7.8886 *  0.0000     2          
   105  Na    c      4.5078 *     5.6347 *    -5.6347 *  0.0000     2          
   106  Na    c      4.5078 *    -7.8886 *    -1.1269 *  0.0000     2          
   107  Na    c      9.0156 *     1.1269 *    -1.1269 *  0.0000     2          
   108  Na    c     -4.5078 *     1.1269 *     7.8886 *  0.0000     2          
   109  Na    c      4.5078 *     7.8886 *     1.1269 *  0.0000     2          
   110  Na    c      4.5078 *    -5.6347 *     5.6347 *  0.0000     2          
   111  Na    c      9.0156 *    -1.1269 *     1.1269 *  0.0000     2          
   112  Na    c     -4.5078 *    -1.1269 *    -7.8886 *  0.0000     2          
   113  Cl    c      6.7617 *     3.3808 *    -5.6347 *  0.0000     2          
   114  Na    c      6.7617 *    -3.3808 *     5.6347 *  0.0000     2          
   115  Cl    c      6.7617 *    -5.6347 *     3.3808 *  0.0000     2          
   116  Na    c      6.7617 *     5.6347 *    -3.3808 *  0.0000     2          
   117  O     c      0.0000       5.6347 *    -7.8886 *  0.0000     1          
   118  O     c      0.0000      -7.8886 *     5.6347 *  0.0000     1          
   119  O     c      9.0156 *    -3.3808 *     1.1269 *  0.0000     2          
   120  O     c     -4.5078 *    -3.3808 *    -7.8886 *  0.0000     2          
   121  Na    c      0.0000       5.6347 *     7.8886 *  0.0000     1          
   122  Na    c      0.0000      -7.8886 *    -5.6347 *  0.0000     1          
   123  Na    c      9.0156 *    -3.3808 *    -1.1269 *  0.0000     2          
   124  Na    c     -4.5078 *    -3.3808 *     7.8886 *  0.0000     2          
   125  Na    c      0.0000       7.8886 *     5.6347 *  0.0000     1          
   126  Na    c      0.0000      -5.6347 *    -7.8886 *  0.0000     1          
   127  Na    c      9.0156 *     3.3808 *     1.1269 *  0.0000     2          
   128  Na    c     -4.5078 *     3.3808 *    -7.8886 *  0.0000     2          
   129  O     c      4.5078 *    -7.8886 *    -3.3808 *  0.0000     2          
   130  O     c      9.0156 *     1.1269 *    -3.3808 *  0.0000     2          
   131  Na    c      4.5078 *    -7.8886 *     3.3808 *  0.0000     2          
   132  Na    c      9.0156 *     1.1269 *     3.3808 *  0.0000     2          
   133  Na    c      4.5078 *     7.8886 *    -3.3808 *  0.0000     2          
   134  Na    c      9.0156 *    -1.1269 *    -3.3808 *  0.0000     2          
   135  Cl    c      2.2539 *     7.8886 *    -5.6347 *  0.0000     2          
   136  Cl    c      2.2539 *    -5.6347 *     7.8886 *  0.0000     2          
   137  Na    c      2.2539 *     5.6347 *    -7.8886 *  0.0000     2          
   138  Na    c      2.2539 *    -7.8886 *     5.6347 *  0.0000     2          
   139  O     c      0.0000      10.1425 *     1.1269 *  0.0000     1          
   140  Na    c      0.0000      10.1425 *    -1.1269 *  0.0000     1          
   141  Na    c      0.0000     -10.1425 *     1.1269 *  0.0000     1          
   142  O     c      0.0000       1.1269 *    10.1425 *  0.0000     1          
   143  O     c      9.0156 *    -3.3808 *    -3.3808 *  0.0000     2          
   144  Na    c      0.0000       1.1269 *   -10.1425 *  0.0000     1          
   145  Na    c      9.0156 *    -3.3808 *     3.3808 *  0.0000     2          
   146  Na    c      0.0000      -1.1269 *    10.1425 *  0.0000     1          
   147  Na    c      9.0156 *     3.3808 *    -3.3808 *  0.0000     2          
   148  Cl    c      6.7617 *    -5.6347 *    -5.6347 *  0.0000     2          
   149  Na    c      6.7617 *     5.6347 *     5.6347 *  0.0000     2          
   150  Cl    c      2.2539 *    -1.1269 *   -10.1425 *  0.0000     2          
   151  Cl    c      2.2539 *   -10.1425 *    -1.1269 *  0.0000     2          
   152  Cl    c      6.7617 *    -1.1269 *     7.8886 *  0.0000     2          
   153  Cl    c      6.7617 *     7.8886 *    -1.1269 *  0.0000     2          
   154  Na    c      2.2539 *     1.1269 *    10.1425 *  0.0000     2          
   155  Na    c      2.2539 *    10.1425 *     1.1269 *  0.0000     2          
   156  Na    c      6.7617 *     1.1269 *    -7.8886 *  0.0000     2          
   157  Na    c      6.7617 *    -7.8886 *     1.1269 *  0.0000     2          
   158  O     c      4.5078 *     5.6347 *    -7.8886 *  0.0000     2          
   159  O     c      4.5078 *    -7.8886 *     5.6347 *  0.0000     2          
   160  O     c      9.0156 *     1.1269 *     5.6347 *  0.0000     2          
   161  O     c      9.0156 *     5.6347 *     1.1269 *  0.0000     2          
   162  Na    c      4.5078 *     5.6347 *     7.8886 *  0.0000     2          
   163  Na    c      4.5078 *    -7.8886 *    -5.6347 *  0.0000     2          
   164  Na    c      9.0156 *     1.1269 *    -5.6347 *  0.0000     2          
   165  Na    c      9.0156 *     5.6347 *    -1.1269 *  0.0000     2          
   166  Na    c      4.5078 *     7.8886 *     5.6347 *  0.0000     2          
   167  Na    c      4.5078 *    -5.6347 *    -7.8886 *  0.0000     2          
   168  Na    c      9.0156 *    -1.1269 *     5.6347 *  0.0000     2          
   169  Na    c      9.0156 *    -5.6347 *     1.1269 *  0.0000     2          
   170  O     c      0.0000      10.1425 *    -3.3808 *  0.0000     1          
   171  O     c      0.0000      -3.3808 *    10.1425 *  0.0000     1          
   172  Na    c      0.0000      10.1425 *     3.3808 *  0.0000     1          
   173  Na    c      0.0000      -3.3808 *   -10.1425 *  0.0000     1          
   174  Na    c      0.0000       3.3808 *    10.1425 *  0.0000     1          
   175  Na    c      0.0000     -10.1425 *    -3.3808 *  0.0000     1          
   176  Cl    c      2.2539 *     3.3808 *   -10.1425 *  0.0000     2          
   177  Cl    c      2.2539 *   -10.1425 *     3.3808 *  0.0000     2          
   178  Cl    c      6.7617 *     7.8886 *     3.3808 *  0.0000     2          
   179  Na    c      2.2539 *    10.1425 *    -3.3808 *  0.0000     2          
   180  Na    c      2.2539 *    -3.3808 *    10.1425 *  0.0000     2          
   181  Na    c      6.7617 *    -7.8886 *    -3.3808 *  0.0000     2          
   182  Cl    c      6.7617 *     3.3808 *     7.8886 *  0.0000     2          
   183  Na    c      6.7617 *    -3.3808 *    -7.8886 *  0.0000     2          
   184  O     c      9.0156 *    -3.3808 *     5.6347 *  0.0000     2          
   185  O     c     -4.5078 *    10.1425 *     1.1269 *  0.0000     2          
   186  Na    c      9.0156 *    -3.3808 *    -5.6347 *  0.0000     2          
   187  Na    c     -4.5078 *    10.1425 *    -1.1269 *  0.0000     2          
   188  Na    c      9.0156 *     3.3808 *     5.6347 *  0.0000     2          
   189  Na    c     -4.5078 *   -10.1425 *     1.1269 *  0.0000     2          
   190  O     c      0.0000      -7.8886 *    -7.8886 *  0.0000     1          
   191  O     c      4.5078 *     1.1269 *    10.1425 *  0.0000     2          
   192  O     c      9.0156 *     5.6347 *    -3.3808 *  0.0000     2          
   193  Na    c      0.0000      -7.8886 *     7.8886 *  0.0000     1          
   194  Na    c      4.5078 *     1.1269 *   -10.1425 *  0.0000     2          
   195  Na    c      9.0156 *     5.6347 *     3.3808 *  0.0000     2          
   196  Na    c      0.0000       7.8886 *    -7.8886 *  0.0000     1          
   197  Na    c      4.5078 *    -1.1269 *    10.1425 *  0.0000     2          
   198  Na    c      9.0156 *    -5.6347 *    -3.3808 *  0.0000     2          
   199  Cl    c     11.2695 *    -1.1269 *    -1.1269 *  0.0000     2          
   200  Na    c     11.2695 *     1.1269 *     1.1269 *  0.0000     2          
   201  Cl    c      2.2539 *     7.8886 *     7.8886 *  0.0000     2          
   202  Na    c      2.2539 *    -7.8886 *    -7.8886 *  0.0000     2          
   203  O     c      0.0000       5.6347 *    10.1425 *  0.0000     1          
   204  O     c      0.0000      10.1425 *     5.6347 *  0.0000     1          
   205  O     c     -4.5078 *    10.1425 *    -3.3808 *  0.0000     2          
   206  Na    c      0.0000       5.6347 *   -10.1425 *  0.0000     1          
   207  Na    c      0.0000      10.1425 *    -5.6347 *  0.0000     1          
   208  Na    c     -4.5078 *    10.1425 *     3.3808 *  0.0000     2          
   209  Na    c      0.0000      -5.6347 *    10.1425 *  0.0000     1          
   210  Na    c      0.0000     -10.1425 *     5.6347 *  0.0000     1          
   211  Na    c     -4.5078 *   -10.1425 *    -3.3808 *  0.0000     2          
   212  O     c      4.5078 *    -3.3808 *    10.1425 *  0.0000     2          
   213  Na    c      4.5078 *    -3.3808 *   -10.1425 *  0.0000     2          
   214  Na    c      4.5078 *     3.3808 *    10.1425 *  0.0000     2          
   215  Cl    c     11.2695 *    -1.1269 *     3.3808 *  0.0000     2          
   216  Cl    c     11.2695 *     3.3808 *    -1.1269 *  0.0000     2          
   217  Na    c     11.2695 *     1.1269 *    -3.3808 *  0.0000     2          
   218  Na    c     11.2695 *    -3.3808 *     1.1269 *  0.0000     2          
   219  Cl    c      2.2539 *    -5.6347 *   -10.1425 *  0.0000     2          
   220  Cl    c      2.2539 *   -10.1425 *    -5.6347 *  0.0000     2          
   221  Cl    c      6.7617 *     7.8886 *    -5.6347 *  0.0000     2          
   222  Na    c      2.2539 *     5.6347 *    10.1425 *  0.0000     2          
   223  Na    c      2.2539 *    10.1425 *     5.6347 *  0.0000     2          
   224  Na    c      6.7617 *    -7.8886 *     5.6347 *  0.0000     2          
   225  Cl    c      6.7617 *    -5.6347 *     7.8886 *  0.0000     2          
   226  Na    c      6.7617 *     5.6347 *    -7.8886 *  0.0000     2          
   227  O     s      0.0000       1.1269 *     1.1269 *  0.0000     1          
   228  Cl    s      2.2539 *    -1.1269 *    -1.1269 *  0.0000     2          
   229  O     s      0.0000       1.1269 *    -3.3808 *  0.0000     1          
   230  O     s      0.0000      -3.3808 *     1.1269 *  0.0000     1          
   231  Cl    s      2.2539 *    -1.1269 *     3.3808 *  0.0000     2          
   232  Cl    s      2.2539 *     3.3808 *    -1.1269 *  0.0000     2          
   233  O     s     -4.5078 *     1.1269 *     1.1269 *  0.0000     2          
   234  O     s      0.0000      -3.3808 *    -3.3808 *  0.0000     1          
   235  Cl    s      2.2539 *     3.3808 *     3.3808 *  0.0000     2          
   236  O     s      0.0000       1.1269 *     5.6347 *  0.0000     1          
   237  O     s      0.0000       5.6347 *     1.1269 *  0.0000     1          
   238  O     s     -4.5078 *     1.1269 *    -3.3808 *  0.0000     2          
   239  O     s     -4.5078 *    -3.3808 *     1.1269 *  0.0000     2          
   240  Cl    s      2.2539 *    -1.1269 *    -5.6347 *  0.0000     2          
   241  Cl    s      2.2539 *    -5.6347 *    -1.1269 *  0.0000     2          
   242  O     s      0.0000       5.6347 *    -3.3808 *  0.0000     1          
   243  O     s      0.0000      -3.3808 *     5.6347 *  0.0000     1          
   244  O     s      4.5078 *    -3.3808 *    -3.3808 *  0.0000     2          
   245  Cl    s      2.2539 *     3.3808 *    -5.6347 *  0.0000     2          
   246  Cl    s      2.2539 *    -5.6347 *     3.3808 *  0.0000     2          
   247  Cl    s      6.7617 *    -1.1269 *    -1.1269 *  0.0000     2          
   248  O     s     -4.5078 *     1.1269 *     5.6347 *  0.0000     2          
   249  O     s      4.5078 *     5.6347 *     1.1269 *  0.0000     2          
   250  Cl    s      6.7617 *    -1.1269 *     3.3808 *  0.0000     2          
   251  Cl    s      6.7617 *     3.3808 *    -1.1269 *  0.0000     2          
   252  O     s      0.0000       5.6347 *     5.6347 *  0.0000     1          
   253  O     s     -4.5078 *    -3.3808 *     5.6347 *  0.0000     2          
   254  O     s      0.0000       1.1269 *    -7.8886 *  0.0000     1          
   255  O     s      0.0000      -7.8886 *     1.1269 *  0.0000     1          
   256  O     s      4.5078 *     5.6347 *    -3.3808 *  0.0000     2          
   257  Cl    s      2.2539 *    -5.6347 *    -5.6347 *  0.0000     2          
   258  Cl    s      2.2539 *    -1.1269 *     7.8886 *  0.0000     2          
   259  Cl    s      2.2539 *     7.8886 *    -1.1269 *  0.0000     2          
   260  Cl    s      6.7617 *     3.3808 *     3.3808 *  0.0000     2          
   261  O     s      0.0000      -3.3808 *    -7.8886 *  0.0000     1          
   262  O     s      0.0000      -7.8886 *    -3.3808 *  0.0000     1          
   263  Cl    s      2.2539 *     3.3808 *     7.8886 *  0.0000     2          
   264  Cl    s      6.7617 *    -1.1269 *    -5.6347 *  0.0000     2          
   265  Cl    s      2.2539 *     7.8886 *     3.3808 *  0.0000     2          
   266  Cl    s      6.7617 *    -5.6347 *    -1.1269 *  0.0000     2          
   267  O     s      4.5078 *     5.6347 *     5.6347 *  0.0000     2          
   268  O     s      4.5078 *    -7.8886 *     1.1269 *  0.0000     2          
   269  O     s      9.0156 *     1.1269 *     1.1269 *  0.0000     2          
   270  O     s     -4.5078 *     1.1269 *    -7.8886 *  0.0000     2          
   271  Cl    s      6.7617 *     3.3808 *    -5.6347 *  0.0000     2          
   272  Cl    s      6.7617 *    -5.6347 *     3.3808 *  0.0000     2          
   273  O     s      0.0000       5.6347 *    -7.8886 *  0.0000     1          
   274  O     s      0.0000      -7.8886 *     5.6347 *  0.0000     1          
   275  O     s      9.0156 *    -3.3808 *     1.1269 *  0.0000     2          
   276  O     s     -4.5078 *    -3.3808 *    -7.8886 *  0.0000     2          
   277  O     s      4.5078 *    -7.8886 *    -3.3808 *  0.0000     2          
   278  O     s      9.0156 *     1.1269 *    -3.3808 *  0.0000     2          
   279  Cl    s      2.2539 *     7.8886 *    -5.6347 *  0.0000     2          
   280  Cl    s      2.2539 *    -5.6347 *     7.8886 *  0.0000     2          
   281  O     s      0.0000      10.1425 *     1.1269 *  0.0000     1          
   282  O     s      0.0000       1.1269 *    10.1425 *  0.0000     1          
   283  O     s      9.0156 *    -3.3808 *    -3.3808 *  0.0000     2          
   284  Cl    s      6.7617 *    -5.6347 *    -5.6347 *  0.0000     2          
   285  Cl    s      2.2539 *    -1.1269 *   -10.1425 *  0.0000     2          
   286  Cl    s      2.2539 *   -10.1425 *    -1.1269 *  0.0000     2          
   287  Cl    s      6.7617 *    -1.1269 *     7.8886 *  0.0000     2          
   288  Cl    s      6.7617 *     7.8886 *    -1.1269 *  0.0000     2          
   289  O     s      4.5078 *     5.6347 *    -7.8886 *  0.0000     2          
   290  O     s      4.5078 *    -7.8886 *     5.6347 *  0.0000     2          
   291  O     s      9.0156 *     1.1269 *     5.6347 *  0.0000     2          
   292  O     s      9.0156 *     5.6347 *     1.1269 *  0.0000     2          
   293  O     s      0.0000      10.1425 *    -3.3808 *  0.0000     1          
   294  O     s      0.0000      -3.3808 *    10.1425 *  0.0000     1          
   295  Cl    s      2.2539 *     3.3808 *   -10.1425 *  0.0000     2          
   296  Cl    s      2.2539 *   -10.1425 *     3.3808 *  0.0000     2          
   297  Cl    s      6.7617 *     7.8886 *     3.3808 *  0.0000     2          
   298  Cl    s      6.7617 *     3.3808 *     7.8886 *  0.0000     2          
   299  O     s      9.0156 *    -3.3808 *     5.6347 *  0.0000     2          
   300  O     s     -4.5078 *    10.1425 *     1.1269 *  0.0000     2          
   301  O     s      0.0000      -7.8886 *    -7.8886 *  0.0000     1          
   302  O     s      4.5078 *     1.1269 *    10.1425 *  0.0000     2          
   303  O     s      9.0156 *     5.6347 *    -3.3808 *  0.0000     2          
   304  Cl    s     11.2695 *    -1.1269 *    -1.1269 *  0.0000     2          
   305  Cl    s      2.2539 *     7.8886 *     7.8886 *  0.0000     2          
   306  O     s      0.0000       5.6347 *    10.1425 *  0.0000     1          
   307  O     s      0.0000      10.1425 *     5.6347 *  0.0000     1          
   308  O     s     -4.5078 *    10.1425 *    -3.3808 *  0.0000     2          
   309  O     s      4.5078 *    -3.3808 *    10.1425 *  0.0000     2          
   310  Cl    s     11.2695 *    -1.1269 *     3.3808 *  0.0000     2          
   311  Cl    s     11.2695 *     3.3808 *    -1.1269 *  0.0000     2          
   312  Cl    s      2.2539 *    -5.6347 *   -10.1425 *  0.0000     2          
   313  Cl    s      2.2539 *   -10.1425 *    -5.6347 *  0.0000     2          
   314  Cl    s      6.7617 *     7.8886 *    -5.6347 *  0.0000     2          
   315  Cl    s      6.7617 *    -5.6347 *     7.8886 *  0.0000     2          
--------------------------------------------------------------------------------

  Components of defect energy : 

--------------------------------------------------------------------------------
  Region 1 - region 1                   =      8.59702598 eV
  Region 1 - region 2a (unrelaxed)      =     -0.20509549 eV
  Region 1 - 2a (relaxed - correction)  =     -0.29153871 eV
  Region 1 (Total)                      =      8.10039179 eV
  Region 2a                             =      0.14569615 eV
  Region 2b                             =     -0.43336976 eV
--------------------------------------------------------------------------------
  Total defect energy                   =      7.81271817 eV
--------------------------------------------------------------------------------

  Largest displacement in region 2 =   0.0223 Angstroms


  Number of variables =      858

  Maximum number of calculations  =        1000
  Maximum Hessian update interval =          10
  Maximum step size               =   1.0000000
  Maximum parameter tolerance     =   0.0000100
  Maximum function  tolerance     =   0.0000100
  Maximum gradient  tolerance     =   0.0010000

  Symmetry adapted optimisation

  Symmetry to be used for second derivatives

  Newton-Raphson optimiser to be used

  BFGS hessian update to be used

  Lower half triangular hessian to be used

  Start of defect optimisation :

  Cycle:      0 Defect Energy:   7.812718  Gnorm:     0.019288  CPU:    2.558
  ** Hessian calculated **
  Cycle:      1 Defect Energy:   6.094657  Gnorm:     0.007904  CPU:    6.557
  Cycle:      2 Defect Energy:   5.431611  Gnorm:     0.005707  CPU:   10.056
  Cycle:      3 Defect Energy:   5.298460  Gnorm:     0.003514  CPU:   12.827
  Cycle:      4 Defect Energy:   5.241254  Gnorm:     0.003496  CPU:   13.312
  Cycle:      5 Defect Energy:   5.162997  Gnorm:     0.002717  CPU:   16.966
  Cycle:      6 Defect Energy:   5.064849  Gnorm:     0.002141  CPU:   18.678
  Cycle:      7 Defect Energy:   4.981798  Gnorm:     0.001959  CPU:   19.641
  Cycle:      8 Defect Energy:   4.912131  Gnorm:     0.001792  CPU:   20.611
  Cycle:      9 Defect Energy:   4.850500  Gnorm:     0.001916  CPU:   21.573
  Cycle:     10 Defect Energy:   4.795261  Gnorm:     0.002013  CPU:   22.583
  ** Hessian calculated **
  Cycle:     11 Defect Energy:   4.698036  Gnorm:     0.001746  CPU:   25.282
  Cycle:     12 Defect Energy:   4.613748  Gnorm:     0.001425  CPU:   26.218
  ** Hessian calculated **
  Cycle:     13 Defect Energy:   4.529626  Gnorm:     0.001039  CPU:   28.782
  ** Hessian calculated **
  Cycle:     14 Defect Energy:   4.490050  Gnorm:     0.000865  CPU:   31.211
  ** Hessian calculated **
  Cycle:     15 Defect Energy:   4.485039  Gnorm:     0.000625  CPU:   33.660
  Cycle:     16 Defect Energy:   4.479776  Gnorm:     0.000561  CPU:   34.510
  Cycle:     17 Defect Energy:   4.475067  Gnorm:     0.000530  CPU:   35.388
  Cycle:     18 Defect Energy:   4.470977  Gnorm:     0.000509  CPU:   36.233
  Cycle:     19 Defect Energy:   4.467791  Gnorm:     0.000493  CPU:   37.094
  Cycle:     20 Defect Energy:   4.464705  Gnorm:     0.000486  CPU:   38.041
  Cycle:     21 Defect Energy:   4.461803  Gnorm:     0.000482  CPU:   38.900
  Cycle:     22 Defect Energy:   4.458638  Gnorm:     0.000467  CPU:   39.740
  Cycle:     23 Defect Energy:   4.455567  Gnorm:     0.000460  CPU:   40.565
  Cycle:     24 Defect Energy:   4.452266  Gnorm:     0.000453  CPU:   41.369
  ** Hessian calculated **
  Cycle:     25 Defect Energy:   4.447235  Gnorm:     0.000420  CPU:   43.641
  Cycle:     26 Defect Energy:   4.440737  Gnorm:     0.000377  CPU:   44.410
  Cycle:     27 Defect Energy:   4.432862  Gnorm:     0.000328  CPU:   45.203
  Cycle:     28 Defect Energy:   4.422635  Gnorm:     0.000278  CPU:   45.980
  Cycle:     29 Defect Energy:   4.417772  Gnorm:     0.000207  CPU:   46.749
  ** Hessian calculated **
  Cycle:     30 Defect Energy:   4.417441  Gnorm:     0.000147  CPU:   49.009
  Cycle:     31 Defect Energy:   4.417143  Gnorm:     0.000128  CPU:   52.991
  Cycle:     32 Defect Energy:   4.416833  Gnorm:     0.000124  CPU:   54.418
  Cycle:     33 Defect Energy:   4.416525  Gnorm:     0.000127  CPU:   55.386
  Cycle:     34 Defect Energy:   4.416276  Gnorm:     0.000127  CPU:   56.357
  Cycle:     35 Defect Energy:   4.416054  Gnorm:     0.000134  CPU:   57.332
  Cycle:     36 Defect Energy:   4.415810  Gnorm:     0.000135  CPU:   58.335
  Cycle:     37 Defect Energy:   4.415613  Gnorm:     0.000135  CPU:   59.391
  Cycle:     38 Defect Energy:   4.415365  Gnorm:     0.000135  CPU:   60.310
  Cycle:     39 Defect Energy:   4.415170  Gnorm:     0.000135  CPU:   61.230
  ** Hessian calculated **
  Cycle:     40 Defect Energy:   4.415088  Gnorm:     0.000128  CPU:   63.727
  Cycle:     41 Defect Energy:   4.415018  Gnorm:     0.000125  CPU:   64.661
  Cycle:     42 Defect Energy:   4.414898  Gnorm:     0.000121  CPU:   65.550
  Cycle:     43 Defect Energy:   4.414784  Gnorm:     0.000118  CPU:   66.427
  Cycle:     44 Defect Energy:   4.414607  Gnorm:     0.000115  CPU:   67.320
  Cycle:     45 Defect Energy:   4.414501  Gnorm:     0.000115  CPU:   68.281
  Cycle:     46 Defect Energy:   4.414377  Gnorm:     0.000116  CPU:   69.169
  Cycle:     47 Defect Energy:   4.414251  Gnorm:     0.000115  CPU:   70.031
  Cycle:     48 Defect Energy:   4.414090  Gnorm:     0.000119  CPU:   70.888
  Cycle:     49 Defect Energy:   4.413831  Gnorm:     0.000126  CPU:   71.766
  ** Hessian calculated **
  Cycle:     50 Defect Energy:   4.413732  Gnorm:     0.000121  CPU:   74.095
  Cycle:     51 Defect Energy:   4.413569  Gnorm:     0.000120  CPU:   74.917
  Cycle:     52 Defect Energy:   4.413375  Gnorm:     0.000118  CPU:   75.761
  Cycle:     53 Defect Energy:   4.413083  Gnorm:     0.000117  CPU:   76.603
  Cycle:     54 Defect Energy:   4.412759  Gnorm:     0.000119  CPU:   77.430
  Cycle:     55 Defect Energy:   4.412358  Gnorm:     0.000124  CPU:   78.360
  Cycle:     56 Defect Energy:   4.411982  Gnorm:     0.000141  CPU:   79.193
  Cycle:     57 Defect Energy:   4.411400  Gnorm:     0.000152  CPU:   79.968
  Cycle:     58 Defect Energy:   4.410569  Gnorm:     0.000186  CPU:   80.760
  Cycle:     59 Defect Energy:   4.409219  Gnorm:     0.000238  CPU:   81.559
  ** Hessian calculated **
  Cycle:     60 Defect Energy:   4.408366  Gnorm:     0.000222  CPU:   83.739
  Cycle:     61 Defect Energy:   4.407257  Gnorm:     0.000215  CPU:   84.219
  Cycle:     62 Defect Energy:   4.405675  Gnorm:     0.000203  CPU:   87.415
  Cycle:     63 Defect Energy:   4.403660  Gnorm:     0.000195  CPU:   90.072
  Cycle:     64 Defect Energy:   4.400958  Gnorm:     0.000198  CPU:   91.065
  Cycle:     65 Defect Energy:   4.397557  Gnorm:     0.000229  CPU:   92.108
  Cycle:     66 Defect Energy:   4.392977  Gnorm:     0.000301  CPU:   93.090
  Cycle:     67 Defect Energy:   4.387176  Gnorm:     0.000433  CPU:   94.088
  Cycle:     68 Defect Energy:   4.381004  Gnorm:     0.000564  CPU:   95.146
  Cycle:     69 Defect Energy:   4.376802  Gnorm:     0.000632  CPU:   96.097
  ** Hessian calculated **
  Cycle:     70 Defect Energy:   4.371792  Gnorm:     0.000600  CPU:   98.693
  Cycle:     71 Defect Energy:   4.364965  Gnorm:     0.000581  CPU:   99.627
  Cycle:     72 Defect Energy:   4.355864  Gnorm:     0.000553  CPU:  100.645
  Cycle:     73 Defect Energy:   4.344275  Gnorm:     0.000529  CPU:  101.527
  Cycle:     74 Defect Energy:   4.332063  Gnorm:     0.000525  CPU:  102.428
  Cycle:     75 Defect Energy:   4.324344  Gnorm:     0.000531  CPU:  103.324
  Cycle:     76 Defect Energy:   4.318113  Gnorm:     0.000562  CPU:  104.253
  Cycle:     77 Defect Energy:   4.312337  Gnorm:     0.000611  CPU:  105.215
  Cycle:     78 Defect Energy:   4.306021  Gnorm:     0.000646  CPU:  106.089
  Cycle:     79 Defect Energy:   4.300324  Gnorm:     0.000688  CPU:  106.949
  ** Hessian calculated **
  Cycle:     80 Defect Energy:   4.279088  Gnorm:     0.000622  CPU:  109.174
  Cycle:     81 Defect Energy:   4.251643  Gnorm:     0.000509  CPU:  110.054
  Cycle:     82 Defect Energy:   4.230129  Gnorm:     0.000348  CPU:  110.995
  Cycle:     83 Defect Energy:   4.222044  Gnorm:     0.000237  CPU:  111.827
  Cycle:     84 Defect Energy:   4.218577  Gnorm:     0.000167  CPU:  112.660
  Cycle:     85 Defect Energy:   4.216957  Gnorm:     0.000112  CPU:  113.497
  Cycle:     86 Defect Energy:   4.216063  Gnorm:     0.000070  CPU:  114.313
  Cycle:     87 Defect Energy:   4.215933  Gnorm:     0.000055  CPU:  115.297
  ** Hessian calculated **
  Cycle:     88 Defect Energy:   4.215697  Gnorm:     0.000047  CPU:  117.447
  Cycle:     89 Defect Energy:   4.215393  Gnorm:     0.000043  CPU:  118.227
  ** Hessian calculated **


  **** Optimisation achieved ****


  Final defect energy  =        4.21538658
  Final defect Gnorm   =        0.00003466

  Components of defect energy : 

--------------------------------------------------------------------------------
  Region 1 - region 1                   =      5.77549799 eV
  Region 1 - region 2a (unrelaxed)      =     -1.01673089 eV
  Region 1 - 2a (relaxed - correction)  =     -0.22303881 eV
  Region 1 (Total)                      =      4.53572830 eV
  Region 2a                             =      0.11145567 eV
  Region 2b                             =     -0.43179739 eV
--------------------------------------------------------------------------------
  Total defect energy                   =      4.21538658 eV
--------------------------------------------------------------------------------

  Largest displacement in region 2 =   0.0226 Angstroms

  Final coordinates of region 1 :

--------------------------------------------------------------------------------
   No.  Atomic        x           y           z          Radius      Charge
        Label       (Angs)      (Angs)      (Angs)       (Angs)       (e) 
--------------------------------------------------------------------------------
     1  Na    c     2.253894    0.071677    1.754403    0.000000    1.000000
     2  O     c     2.253894    2.214255    2.352600    0.000000    0.183000
     3  Cl    c     4.593162   -0.150224   -0.001241    0.000000    1.485000
     4  Cl    c    -0.085375   -0.150224   -0.001241    0.000000    1.485000
     5  Na    c     4.430064    2.262152    1.880076    0.000000    1.000000
     6  Na    c     0.077723    2.262152    1.880076    0.000000    1.000000
     7  O     c     2.253894    2.243218   -2.318024    0.000000    0.183000
     8  O     c     2.253894   -2.205173    2.256169    0.000000    0.183000
     9  Na    c     2.253894    1.970386    4.526138    0.000000    1.000000
    10  Na    c     2.253894   -2.601522    0.006132    0.000000    1.000000
    11  Na    c     2.253894    0.076742   -1.820801    0.000000    1.000000
    12  Na    c     2.253894    4.421901    2.036829    0.000000    1.000000
    13  Cl    c     4.553883   -0.085049    4.649893    0.000000    1.485000
    14  Cl    c    -0.046095   -0.085049    4.649893    0.000000    1.485000
    15  Cl    c     4.639354    4.590171    0.015327    0.000000    1.485000
    16  Cl    c    -0.131566    4.590171    0.015327    0.000000    1.485000
    17  Na    c     4.436972    2.254483   -1.883374    0.000000    1.000000
    18  Na    c     0.070815    2.254483   -1.883374    0.000000    1.000000
    19  Na    c     4.508560   -2.157203    2.304731    0.000000    1.000000
    20  Na    c    -0.000773   -2.157203    2.304731    0.000000    1.000000
    21  O     c    -2.222104    2.259865    2.234419    0.000000    0.183000
    22  O     c     6.729891    2.259865    2.234419    0.000000    0.183000
    23  Na    c    -2.491402    2.658076    0.005897    0.000000    1.000000
    24  Na    c     6.999189    2.658076    0.005897    0.000000    1.000000
    25  Na    c    -2.272548    0.015434    1.867962    0.000000    1.000000
    26  Na    c     6.780335    0.015434    1.867962    0.000000    1.000000
    27  O     c     2.253894   -2.211867   -2.242784    0.000000    0.183000
    28  Na    c     2.253894   -1.778628    4.496060    0.000000    1.000000
    29  Na    c     2.253894    4.407072   -1.786708    0.000000    1.000000
    30  Cl    c     4.565854    4.627805    4.592675    0.000000    1.485000
    31  Cl    c    -0.058067    4.627805    4.592675    0.000000    1.485000
    32  Na    c     4.510035   -2.163035   -2.285052    0.000000    1.000000
    33  Na    c    -0.002248   -2.163035   -2.285052    0.000000    1.000000
    34  O     c     2.253894    2.243937    6.805501    0.000000    0.183000
    35  O     c     2.253894    6.741890    2.220111    0.000000    0.183000
    36  Na    c     2.253894    2.229766   -4.504658    0.000000    1.000000
    37  Na    c     2.253894    7.058759   -0.001718    0.000000    1.000000
    38  Na    c     2.253894   -0.004591    7.126595    0.000000    1.000000
    39  Na    c     2.253894   -4.457430    2.619705    0.000000    1.000000
    40  O     c    -2.224273    2.253979   -2.222825    0.000000    0.183000
    41  O     c     6.732060    2.253979   -2.222825    0.000000    0.183000
    42  O     c    -2.262057   -2.237118    2.257280    0.000000    0.183000
    43  O     c     6.769844   -2.237118    2.257280    0.000000    0.183000
    44  Na    c    -1.970764    1.943287    4.476556    0.000000    1.000000
    45  Na    c     6.478551    1.943287    4.476556    0.000000    1.000000
    46  Na    c    -2.144234   -2.606762    0.005241    0.000000    1.000000
    47  Na    c     6.652021   -2.606762    0.005241    0.000000    1.000000
    48  Na    c    -2.257950    0.010818   -1.881570    0.000000    1.000000
    49  Na    c     6.765737    0.010818   -1.881570    0.000000    1.000000
    50  Na    c    -2.180598    4.505875    2.598903    0.000000    1.000000
    51  Na    c     6.688385    4.505875    2.598903    0.000000    1.000000
    52  Cl    c     4.563123   -0.095444   -4.628795    0.000000    1.485000
    53  Cl    c    -0.055335   -0.095444   -4.628795    0.000000    1.485000
    54  Cl    c     4.499614   -4.546992    0.004865    0.000000    1.485000
    55  Cl    c     0.008174   -4.546992    0.004865    0.000000    1.485000
    56  Na    c     4.505311    2.251893    6.852892    0.000000    1.000000
    57  Na    c     0.002476    2.251893    6.852892    0.000000    1.000000
    58  Na    c     4.508040    6.696434    2.184888    0.000000    1.000000
    59  Na    c    -0.000253    6.696434    2.184888    0.000000    1.000000
    60  O     c     2.253894    6.705884   -2.219841    0.000000    0.183000
    61  O     c     2.253894   -2.248192    6.741532    0.000000    0.183000
    62  Na    c     2.253894    6.681505    4.473101    0.000000    1.000000
    63  Na    c     2.253894   -1.823710   -4.478978    0.000000    1.000000
    64  Na    c     2.253894    4.474960    6.493224    0.000000    1.000000
    65  Na    c     2.253894   -4.457324   -2.605745    0.000000    1.000000
    66  O     c     6.771033   -2.242924   -2.246366    0.000000    0.183000
    67  O     c    -2.263246   -2.242924   -2.246366    0.000000    0.183000
    68  Na    c     6.833823   -1.879226    4.506756    0.000000    1.000000
    69  Na    c    -2.326036   -1.879226    4.506756    0.000000    1.000000
    70  Na    c     6.703299    4.492955   -2.580659    0.000000    1.000000
    71  Na    c    -2.195512    4.492955   -2.580659    0.000000    1.000000
    72  Cl    c     4.612686    4.593570   -4.615047    0.000000    1.485000
    73  Cl    c    -0.104899    4.593570   -4.615047    0.000000    1.485000
    74  Cl    c     4.526912   -4.562793    4.517607    0.000000    1.485000
    75  Cl    c    -0.019124   -4.562793    4.517607    0.000000    1.485000
    76  Na    c     4.508077    6.693682   -2.191972    0.000000    1.000000
    77  Na    c    -0.000290    6.693682   -2.191972    0.000000    1.000000
    78  Na    c     4.512967   -2.223528    6.655627    0.000000    1.000000
    79  Na    c    -0.005180   -2.223528    6.655627    0.000000    1.000000
    80  Cl    c     9.056725    0.002384    0.000033    0.000000    1.485000
    81  Cl    c    -4.548937    0.002384    0.000033    0.000000    1.485000
    82  Na    c     8.985600    2.243066    2.530593    0.000000    1.000000
    83  Na    c    -4.477812    2.243066    2.530593    0.000000    1.000000
    84  O     c    -2.248276    2.256974    6.731890    0.000000    0.183000
    85  O     c     6.756063    2.256974    6.731890    0.000000    0.183000
    86  Na    c    -1.979009    1.986130   -4.476750    0.000000    1.000000
    87  Na    c     6.486796    1.986130   -4.476750    0.000000    1.000000
    88  Na    c    -2.245973    0.008285    7.057964    0.000000    1.000000
    89  Na    c     6.753760    0.008285    7.057964    0.000000    1.000000
    90  O     c     6.763955    6.759687    2.262145    0.000000    0.183000
    91  O     c    -2.256168    6.759687    2.262145    0.000000    0.183000
    92  Na    c     6.816956    6.467716    0.000450    0.000000    1.000000
    93  Na    c    -2.309169    6.467716    0.000450    0.000000    1.000000
    94  Na    c     6.771919   -4.476671    2.613831    0.000000    1.000000
    95  Na    c    -2.264132   -4.476671    2.613831    0.000000    1.000000
    96  Cl    c     9.067267    0.022364    4.518274    0.000000    1.485000
    97  Cl    c    -4.559479    0.022364    4.518274    0.000000    1.485000
    98  Na    c     8.984302    2.215028   -2.512775    0.000000    1.000000
    99  Na    c    -4.476515    2.215028   -2.512775    0.000000    1.000000
   100  Cl    c     9.098609    4.578178    0.002835    0.000000    1.485000
   101  Cl    c    -4.590822    4.578178    0.002835    0.000000    1.485000
   102  Na    c     9.015264   -2.251971    2.152704    0.000000    1.000000
   103  Na    c    -4.507477   -2.251971    2.152704    0.000000    1.000000
   104  O     c     2.253894    6.725301    6.745598    0.000000    0.183000
   105  Na    c     2.253894    6.389850   -4.467899    0.000000    1.000000
   106  Na    c     2.253894   -4.491781    6.428389    0.000000    1.000000
   107  O     c    -2.267677   -2.249615    6.758441    0.000000    0.183000
   108  O     c     6.775464   -2.249615    6.758441    0.000000    0.183000
   109  Na    c    -2.325058   -1.901004   -4.498008    0.000000    1.000000
   110  Na    c     6.832845   -1.901004   -4.498008    0.000000    1.000000
   111  Na    c    -2.275320    4.516646    6.435682    0.000000    1.000000
   112  Na    c     6.783108    4.516646    6.435682    0.000000    1.000000
   113  O     c     2.253894    2.256549   -6.792058    0.000000    0.183000
   114  O     c     2.253894   -6.727555    2.255639    0.000000    0.183000
   115  O     c     6.765613    6.745959   -2.258302    0.000000    0.183000
   116  O     c    -2.257825    6.745959   -2.258302    0.000000    0.183000
   117  Na    c     2.253894    2.551755    9.036491    0.000000    1.000000
   118  Na    c     2.253894   -6.426848    0.003888    0.000000    1.000000
   119  Na    c     6.675323    7.075256    4.501466    0.000000    1.000000
   120  Na    c    -2.167535    7.075256    4.501466    0.000000    1.000000
   121  Na    c     2.253894    0.003281   -6.930714    0.000000    1.000000
   122  Na    c     2.253894    9.005220    2.419237    0.000000    1.000000
   123  Na    c     6.784665   -4.477429   -2.609935    0.000000    1.000000
   124  Na    c    -2.276877   -4.477429   -2.609935    0.000000    1.000000
   125  Cl    c     4.520369   -4.585604   -4.520110    0.000000    1.485000
   126  Cl    c    -0.012582   -4.585604   -4.520110    0.000000    1.485000
   127  Na    c     4.511867    6.683579    6.764359    0.000000    1.000000
   128  Na    c    -0.004080    6.683579    6.764359    0.000000    1.000000
   129  Cl    c     4.531485    0.001021    9.048422    0.000000    1.485000
   130  Cl    c    -0.023698    0.001021    9.048422    0.000000    1.485000
   131  Na    c     4.499902    2.289544   -6.818779    0.000000    1.000000
   132  Na    c     0.007886    2.289544   -6.818779    0.000000    1.000000
   133  Cl    c     4.511662    9.044953   -0.004427    0.000000    1.485000
   134  Cl    c    -0.003874    9.044953   -0.004427    0.000000    1.485000
   135  Cl    c     9.062449    4.515296    4.500644    0.000000    1.485000
   136  Cl    c    -4.554662    4.515296    4.500644    0.000000    1.485000
   137  Na    c     4.505940   -6.661509    2.205581    0.000000    1.000000
   138  Na    c     0.001847   -6.661509    2.205581    0.000000    1.000000
   139  Na    c     9.017494   -2.224085   -2.135677    0.000000    1.000000
   140  Na    c    -4.509707   -2.224085   -2.135677    0.000000    1.000000
   141  O     c     2.253894   -2.251575   -6.723264    0.000000    0.183000
   142  O     c     2.253894   -6.722472   -2.247679    0.000000    0.183000
   143  Na    c     2.253894   -2.536165    8.990947    0.000000    1.000000
   144  Na    c     2.253894   -7.035653    4.496891    0.000000    1.000000
   145  Na    c     2.253894    4.494655   -6.886975    0.000000    1.000000
   146  Na    c     2.253894    8.970291   -2.513629    0.000000    1.000000
   147  Cl    c     4.511338    4.515584    9.067126    0.000000    1.485000
   148  Cl    c    -0.003551    4.515584    9.067126    0.000000    1.485000
   149  Cl    c     9.082234    0.009295   -4.507367    0.000000    1.485000
   150  Cl    c    -4.574447    0.009295   -4.507367    0.000000    1.485000
   151  Na    c     4.513767   -2.265305   -6.645580    0.000000    1.000000
   152  Na    c    -0.005980   -2.265305   -6.645580    0.000000    1.000000
   153  Na    c     9.010154    2.233662    6.566858    0.000000    1.000000
   154  Na    c    -4.502367    2.233662    6.566858    0.000000    1.000000
   155  Cl    c     4.474145    9.057102    4.512007    0.000000    1.485000
   156  Cl    c     0.033643    9.057102    4.512007    0.000000    1.485000
   157  Cl    c     9.051354   -4.483879    0.009769    0.000000    1.485000
   158  Cl    c    -4.543567   -4.483879    0.009769    0.000000    1.485000
   159  Na    c     4.505704   -6.659254   -2.196430    0.000000    1.000000
   160  Na    c     0.002084   -6.659254   -2.196430    0.000000    1.000000
   161  Na    c     9.011401    6.731978    2.299962    0.000000    1.000000
   162  Na    c    -4.503614    6.731978    2.299962    0.000000    1.000000
   163  O     c     6.769002    6.775111    6.749664    0.000000    0.183000
   164  O     c    -2.261215    6.775111    6.749664    0.000000    0.183000
   165  O     c     6.759408   -6.729852    2.253609    0.000000    0.183000
   166  O     c    -2.251620   -6.729852    2.253609    0.000000    0.183000
   167  O     c    11.246981    2.248969    2.249802    0.000000    0.183000
   168  O     c    -6.739193    2.248969    2.249802    0.000000    0.183000
   169  O     c    -2.239541    2.242129   -6.736096    0.000000    0.183000
   170  O     c     6.747328    2.242129   -6.736096    0.000000    0.183000
   171  Na    c     6.700903    6.945383   -4.501253    0.000000    1.000000
   172  Na    c    -2.193115    6.945383   -4.501253    0.000000    1.000000
   173  Na    c     6.812365   -6.449966   -0.001342    0.000000    1.000000
   174  Na    c    -2.304578   -6.449966   -0.001342    0.000000    1.000000
   175  Na    c    11.009491    2.376892    0.000048    0.000000    1.000000
   176  Na    c    -6.501704    2.376892    0.000048    0.000000    1.000000
   177  Na    c    -2.348181    2.526450    8.987285    0.000000    1.000000
   178  Na    c     6.855968    2.526450    8.987285    0.000000    1.000000
   179  Na    c     6.761165    9.003725    1.982624    0.000000    1.000000
   180  Na    c    -2.253377    9.003725    1.982624    0.000000    1.000000
   181  Na    c     6.757736   -4.504024    6.522823    0.000000    1.000000
   182  Na    c    -2.249949   -4.504024    6.522823    0.000000    1.000000
   183  Na    c    11.237016    0.000063    2.070935    0.000000    1.000000
   184  Na    c    -6.729229    0.000063    2.070935    0.000000    1.000000
   185  Na    c    -2.193241   -0.000036   -6.999940    0.000000    1.000000
   186  Na    c     6.701028   -0.000036   -6.999940    0.000000    1.000000
   187  Cl    c     9.067416    4.522269   -4.487485    0.000000    1.485000
   188  Cl    c    -4.559629    4.522269   -4.487485    0.000000    1.485000
   189  Na    c     9.015744   -2.281280    6.801515    0.000000    1.000000
   190  Na    c    -4.507957   -2.281280    6.801515    0.000000    1.000000
   191  Cl    c     9.050970   -4.542237    4.522712    0.000000    1.485000
   192  Cl    c    -4.543183   -4.542237    4.522712    0.000000    1.485000
   193  Na    c     9.012974    6.740345   -2.275783    0.000000    1.000000
   194  Na    c    -4.505187    6.740345   -2.275783    0.000000    1.000000
   195  O     c     2.253894    6.731777   -6.737428    0.000000    0.183000
   196  O     c     2.253894   -6.749486    6.742933    0.000000    0.183000
   197  O     c    11.272233   -2.253030    2.248076    0.000000    0.183000
   198  O     c    -6.764446   -2.253030    2.248076    0.000000    0.183000
   199  O     c    -2.266838   -2.249993   -6.751969    0.000000    0.183000
   200  O     c     6.774625   -2.249993   -6.751969    0.000000    0.183000
   201  Na    c     2.253894    6.630891    8.997564    0.000000    1.000000
   202  Na    c     2.253894   -6.953101   -4.496653    0.000000    1.000000
   203  Na    c    11.343203   -2.441348    0.005951    0.000000    1.000000
   204  Na    c    -6.835416   -2.441348    0.005951    0.000000    1.000000
   205  Na    c    -2.200218   -2.460571    9.002520    0.000000    1.000000
   206  Na    c     6.708005   -2.460571    9.002520    0.000000    1.000000
   207  Na    c     2.253894    8.991045    6.741669    0.000000    1.000000
   208  Na    c     2.253894   -4.498574   -6.537716    0.000000    1.000000
   209  Na    c    11.251578    4.503257    2.342793    0.000000    1.000000
   210  Na    c    -6.743790    4.503257    2.342793    0.000000    1.000000
   211  Na    c    -2.270301    4.508182   -6.571912    0.000000    1.000000
   212  Na    c     6.778089    4.508182   -6.571912    0.000000    1.000000
   213  O     c     6.758346   -6.730703   -2.256987    0.000000    0.183000
   214  O     c    -2.250559   -6.730703   -2.256987    0.000000    0.183000
   215  O     c    11.244040    2.255194   -2.248646    0.000000    0.183000
   216  O     c    -6.736252    2.255194   -2.248646    0.000000    0.183000
   217  Na    c     6.710144   -6.978236    4.496143    0.000000    1.000000
   218  Na    c    -2.202357   -6.978236    4.496143    0.000000    1.000000
   219  Na    c    11.432941    2.125930    4.494923    0.000000    1.000000
   220  Na    c    -6.925154    2.125930    4.494923    0.000000    1.000000
   221  Na    c     6.764727    9.004654   -2.084723    0.000000    1.000000
   222  Na    c    -2.256940    9.004654   -2.084723    0.000000    1.000000
   223  Na    c    11.271211   -0.000006   -2.125132    0.000000    1.000000
   224  Na    c    -6.763424   -0.000006   -2.125132    0.000000    1.000000
   225  Cl    c     4.527944    9.067165   -4.509844    0.000000    1.485000
   226  Cl    c    -0.020157    9.067165   -4.509844    0.000000    1.485000
   227  Cl    c     4.514961   -4.531347    9.069973    0.000000    1.485000
   228  Cl    c    -0.007174   -4.531347    9.069973    0.000000    1.485000
   229  Na    c     4.510284    6.720631   -6.732199    0.000000    1.000000
   230  Na    c    -0.002496    6.720631   -6.732199    0.000000    1.000000
   231  Na    c     4.505422   -6.709369    6.782920    0.000000    1.000000
   232  Na    c     0.002366   -6.709369    6.782920    0.000000    1.000000
   233  O     c     2.253894   11.259788    2.262140    0.000000    0.183000
   234  Na    c     2.253894   11.163095   -0.010827    0.000000    1.000000
   235  Na    c     2.253894   -8.993796    2.074624    0.000000    1.000000
   236  O     c     2.253894    2.264020   11.266788    0.000000    0.183000
   237  O     c    11.273942   -2.259879   -2.234698    0.000000    0.183000
   238  O     c    -6.766155   -2.259879   -2.234698    0.000000    0.183000
   239  Na    c     2.253894    2.258574   -9.040705    0.000000    1.000000
   240  Na    c    11.225662   -2.141355    4.506788    0.000000    1.000000
   241  Na    c    -6.717875   -2.141355    4.506788    0.000000    1.000000
   242  Na    c     2.253894   -0.001681   11.136437    0.000000    1.000000
   243  Na    c    11.230579    4.507639   -2.310584    0.000000    1.000000
   244  Na    c    -6.722792    4.507639   -2.310584    0.000000    1.000000
   245  Cl    c     9.057359   -4.552162   -4.507778    0.000000    1.485000
   246  Cl    c    -4.549572   -4.552162   -4.507778    0.000000    1.485000
   247  Na    c     9.014363    6.788643    6.718002    0.000000    1.000000
   248  Na    c    -4.506576    6.788643    6.718002    0.000000    1.000000
   249  Cl    c     4.493371    0.013263   -9.025456    0.000000    1.485000
   250  Cl    c     0.014416    0.013263   -9.025456    0.000000    1.485000
   251  Cl    c     4.504619   -9.112148    0.000117    0.000000    1.485000
   252  Cl    c     0.003168   -9.112148    0.000117    0.000000    1.485000
   253  Cl    c     9.063521   -0.017352    9.023693    0.000000    1.485000
   254  Cl    c    -4.555734   -0.017352    9.023693    0.000000    1.485000
   255  Cl    c     9.018950    9.059983   -0.008995    0.000000    1.485000
   256  Cl    c    -4.511163    9.059983   -0.008995    0.000000    1.485000
   257  Na    c     4.515028    2.176740   11.223531    0.000000    1.000000
   258  Na    c    -0.007241    2.176740   11.223531    0.000000    1.000000
   259  Na    c     4.506477   11.248884    2.260127    0.000000    1.000000
   260  Na    c     0.001310   11.248884    2.260127    0.000000    1.000000
   261  Na    c     9.002570    2.232025   -6.630547    0.000000    1.000000
   262  Na    c    -4.494782    2.232025   -6.630547    0.000000    1.000000
   263  Na    c     9.010961   -6.751639    2.255151    0.000000    1.000000
   264  Na    c    -4.503174   -6.751639    2.255151    0.000000    1.000000
   265  O     c     6.769755    6.775768   -6.753799    0.000000    0.183000
   266  O     c    -2.261968    6.775768   -6.753799    0.000000    0.183000
   267  O     c     6.760765   -6.763783    6.746267    0.000000    0.183000
   268  O     c    -2.252978   -6.763783    6.746267    0.000000    0.183000
   269  O     c    11.275175    2.243054    6.749084    0.000000    0.183000
[...]
    235 y          4.507787      4.641812     0.134025    Cartesian    2.97
    235 z          4.507787      4.606964     0.099177    Cartesian    2.20
    236 x          2.253894      2.253894     0.000000    Cartesian    0.00
    236 y          2.253894      2.243978    -0.009916    Cartesian   -0.44
    236 z          6.761681      6.805567     0.043886    Cartesian    0.65
    237 x          2.253894      2.253894     0.000000    Cartesian    0.00
    237 y          6.761681      6.741982    -0.019699    Cartesian   -0.29
    237 z          2.253894      2.220098    -0.033796    Cartesian   -1.50
    238 x         -2.253894     -2.224332     0.029561    Cartesian   -1.31
    238 y          2.253894      2.253997     0.000103    Cartesian    0.00
    238 z         -2.253894     -2.222829     0.031065    Cartesian   -1.38
    239 x         -2.253894     -2.262071    -0.008177    Cartesian    0.36
    239 y         -2.253894     -2.237130     0.016763    Cartesian   -0.74
    239 z          2.253894      2.257276     0.003383    Cartesian    0.15
    240 x          4.507787      4.575909     0.068122    Cartesian    1.51
    240 y          0.000000     -0.110529    -0.110529    Cartesian    0.00
    240 z         -4.507787     -4.639498    -0.131711    Cartesian    2.92
    241 x          4.507787      4.499778    -0.008010    Cartesian   -0.18
    241 y         -4.507787     -4.553211    -0.045424    Cartesian    1.01
    241 z          0.000000      0.004757     0.004757    Cartesian    0.00
    242 x          2.253894      2.253894     0.000000    Cartesian    0.00
    242 y          6.761681      6.705955    -0.055726    Cartesian   -0.82
    242 z         -2.253894     -2.219791     0.034103    Cartesian   -1.51
    243 x          2.253894      2.253894     0.000000    Cartesian    0.00
    243 y         -2.253894     -2.248176     0.005718    Cartesian   -0.25
    243 z          6.761681      6.741547    -0.020134    Cartesian   -0.30
    244 x          6.761681      6.771043     0.009363    Cartesian    0.14
    244 y         -2.253894     -2.242933     0.010961    Cartesian   -0.49
    244 z         -2.253894     -2.246363     0.007530    Cartesian   -0.33
    245 x          4.507787      4.628704     0.120917    Cartesian    2.68
    245 y          4.507787      4.607984     0.100197    Cartesian    2.22
    245 z         -4.507787     -4.624831    -0.117044    Cartesian    2.60
    246 x          4.507787      4.527331     0.019544    Cartesian    0.43
    246 y         -4.507787     -4.568176    -0.060389    Cartesian    1.34
    246 z          4.507787      4.517144     0.009356    Cartesian    0.21
    247 x          9.015574      9.054546     0.038971    Cartesian    0.43
    247 y          0.000000      0.000310     0.000310    Cartesian    0.00
    247 z          0.000000      0.001446     0.001446    Cartesian    0.00
    248 x         -2.253894     -2.248246     0.005648    Cartesian   -0.25
    248 y          2.253894      2.256957     0.003063    Cartesian    0.14
    248 z          6.761681      6.731916    -0.029765    Cartesian   -0.44
    249 x          6.761681      6.763950     0.002269    Cartesian    0.03
    249 y          6.761681      6.759702    -0.001979    Cartesian   -0.03
    249 z          2.253894      2.262167     0.008273    Cartesian    0.37
    250 x          9.015574      9.066924     0.051349    Cartesian    0.57
    250 y          0.000000      0.024724     0.024724    Cartesian    0.00
    250 z          4.507787      4.519603     0.011816    Cartesian    0.26
    251 x          9.015574      9.096946     0.081371    Cartesian    0.90
    251 y          4.507787      4.573957     0.066170    Cartesian    1.47
    251 z          0.000000      0.001927     0.001927    Cartesian    0.00
    252 x          2.253894      2.253894     0.000000    Cartesian    0.00
    252 y          6.761681      6.725260    -0.036421    Cartesian   -0.54
    252 z          6.761681      6.745583    -0.016098    Cartesian   -0.24
    253 x         -2.253894     -2.267701    -0.013807    Cartesian    0.61
    253 y         -2.253894     -2.249607     0.004287    Cartesian   -0.19
    253 z          6.761681      6.758476    -0.003205    Cartesian   -0.05
    254 x          2.253894      2.253894     0.000000    Cartesian    0.00
    254 y          2.253894      2.256584     0.002691    Cartesian    0.12
    254 z         -6.761681     -6.792157    -0.030476    Cartesian    0.45
    255 x          2.253894      2.253894     0.000000    Cartesian    0.00
    255 y         -6.761681     -6.727567     0.034113    Cartesian   -0.50
    255 z          2.253894      2.255657     0.001763    Cartesian    0.08
    256 x          6.761681      6.765613     0.003933    Cartesian    0.06
    256 y          6.761681      6.745953    -0.015728    Cartesian   -0.23
    256 z         -2.253894     -2.258349    -0.004455    Cartesian    0.20
    257 x          4.507787      4.520144     0.012357    Cartesian    0.27
    257 y         -4.507787     -4.592858    -0.085071    Cartesian    1.89
    257 z         -4.507787     -4.517474    -0.009687    Cartesian    0.21
    258 x          4.507787      4.532310     0.024523    Cartesian    0.54
    258 y          0.000000      0.002793     0.002793    Cartesian    0.00
    258 z          9.015574      9.047014     0.031439    Cartesian    0.35
    259 x          4.507787      4.513101     0.005313    Cartesian    0.12
    259 y          9.015574      9.046749     0.031174    Cartesian    0.35
    259 z          0.000000     -0.002843    -0.002843    Cartesian    0.00
    260 x          9.015574      9.060755     0.045181    Cartesian    0.50
    260 y          4.507787      4.512189     0.004402    Cartesian    0.10
    260 z          4.507787      4.498835    -0.008952    Cartesian   -0.20
    261 x          2.253894      2.253894     0.000000    Cartesian    0.00
    261 y         -2.253894     -2.251547     0.002347    Cartesian   -0.10
    261 z         -6.761681     -6.723262     0.038419    Cartesian   -0.57
    262 x          2.253894      2.253894     0.000000    Cartesian    0.00
    262 y         -6.761681     -6.722468     0.039213    Cartesian   -0.58
    262 z         -2.253894     -2.247704     0.006190    Cartesian   -0.27
    263 x          4.507787      4.509277     0.001489    Cartesian    0.03
    263 y          4.507787      4.513493     0.005705    Cartesian    0.13
    263 z          9.015574      9.071883     0.056308    Cartesian    0.62
    264 x          9.015574      9.083867     0.068292    Cartesian    0.76
    264 y          0.000000      0.009739     0.009739    Cartesian    0.00
    264 z         -4.507787     -4.506984     0.000803    Cartesian   -0.02
    265 x          4.507787      4.474420    -0.033367    Cartesian   -0.74
    265 y          9.015574      9.059011     0.043436    Cartesian    0.48
    265 z          4.507787      4.511261     0.003474    Cartesian    0.08
    266 x          9.015574      9.049128     0.033554    Cartesian    0.37
    266 y         -4.507787     -4.480187     0.027601    Cartesian   -0.61
    266 z          0.000000      0.010550     0.010550    Cartesian    0.00
    267 x          6.761681      6.769010     0.007329    Cartesian    0.11
    267 y          6.761681      6.775157     0.013476    Cartesian    0.20
    267 z          6.761681      6.749658    -0.012023    Cartesian   -0.18
    268 x          6.761681      6.759410    -0.002271    Cartesian   -0.03
    268 y         -6.761681     -6.729855     0.031826    Cartesian   -0.47
    268 z          2.253894      2.253655    -0.000239    Cartesian   -0.01
    269 x         11.269468     11.246992    -0.022477    Cartesian   -0.20
    269 y          2.253894      2.248969    -0.004924    Cartesian   -0.22
    269 z          2.253894      2.249822    -0.004072    Cartesian   -0.18
    270 x         -2.253894     -2.239498     0.014396    Cartesian   -0.64
    270 y          2.253894      2.242099    -0.011794    Cartesian   -0.52
    270 z         -6.761681     -6.736141     0.025539    Cartesian   -0.38
    271 x          9.015574      9.068908     0.053333    Cartesian    0.59
    271 y          4.507787      4.521746     0.013959    Cartesian    0.31
    271 z         -4.507787     -4.481642     0.026145    Cartesian   -0.58
    272 x          9.015574      9.048525     0.032951    Cartesian    0.37
    272 y         -4.507787     -4.547725    -0.039937    Cartesian    0.89
    272 z          4.507787      4.521849     0.014061    Cartesian    0.31
    273 x          2.253894      2.253894     0.000000    Cartesian    0.00
    273 y          6.761681      6.731710    -0.029971    Cartesian   -0.44
    273 z         -6.761681     -6.737473     0.024207    Cartesian   -0.36
    274 x          2.253894      2.253894     0.000000    Cartesian    0.00
    274 y         -6.761681     -6.749522     0.012159    Cartesian   -0.18
    274 z          6.761681      6.742920    -0.018761    Cartesian   -0.28
    275 x         11.269468     11.272242     0.002774    Cartesian    0.02
    275 y         -2.253894     -2.253043     0.000850    Cartesian   -0.04
    275 z          2.253894      2.248041    -0.005853    Cartesian   -0.26
    276 x         -2.253894     -2.266858    -0.012964    Cartesian    0.58
    276 y         -2.253894     -2.249967     0.003926    Cartesian   -0.17
    276 z         -6.761681     -6.752001     0.009680    Cartesian   -0.14
    277 x          6.761681      6.758346    -0.003335    Cartesian   -0.05
    277 y         -6.761681     -6.730703     0.030978    Cartesian   -0.46
    277 z         -2.253894     -2.257032    -0.003139    Cartesian    0.14
    278 x         11.269468     11.244042    -0.025426    Cartesian   -0.23
    278 y          2.253894      2.255208     0.001314    Cartesian    0.06
    278 z         -2.253894     -2.248671     0.005222    Cartesian   -0.23
    279 x          4.507787      4.528686     0.020898    Cartesian    0.46
    279 y          9.015574      9.071278     0.055704    Cartesian    0.62
    279 z         -4.507787     -4.509911    -0.002124    Cartesian    0.05
    280 x          4.507787      4.514097     0.006310    Cartesian    0.14
    280 y         -4.507787     -4.530292    -0.022505    Cartesian    0.50
    280 z          9.015574      9.077008     0.061434    Cartesian    0.68
    281 x          2.253894      2.253894     0.000000    Cartesian    0.00
    281 y         11.269468     11.259772    -0.009696    Cartesian   -0.09
    281 z          2.253894      2.262197     0.008304    Cartesian    0.37
    282 x          2.253894      2.253894     0.000000    Cartesian    0.00
    282 y          2.253894      2.264060     0.010166    Cartesian    0.45
    282 z         11.269468     11.266766    -0.002702    Cartesian   -0.02
    283 x         11.269468     11.273952     0.004484    Cartesian    0.04
    283 y         -2.253894     -2.259904    -0.006011    Cartesian    0.27
    283 z         -2.253894     -2.234666     0.019228    Cartesian   -0.85
    284 x          9.015574      9.056104     0.040529    Cartesian    0.45
    284 y         -4.507787     -4.557931    -0.050144    Cartesian    1.11
    284 z         -4.507787     -4.503939     0.003849    Cartesian   -0.09
    285 x          4.507787      4.493251    -0.014536    Cartesian   -0.32
    285 y          0.000000      0.016268     0.016268    Cartesian    0.00
    285 z         -9.015574     -9.020200    -0.004625    Cartesian    0.05
    286 x          4.507787      4.504373    -0.003415    Cartesian   -0.08
    286 y         -9.015574     -9.125231    -0.109657    Cartesian    1.22
    286 z          0.000000      0.000645     0.000645    Cartesian    0.00
    287 x          9.015574      9.066289     0.050715    Cartesian    0.56
    287 y          0.000000     -0.020088    -0.020088    Cartesian    0.00
    287 z          9.015574      9.022471     0.006896    Cartesian    0.08
    288 x          9.015574      9.014844    -0.000730    Cartesian   -0.01
    288 y          9.015574      9.065468     0.049894    Cartesian    0.55
    288 z          0.000000     -0.008512    -0.008512    Cartesian    0.00
    289 x          6.761681      6.769763     0.008082    Cartesian    0.12
    289 y          6.761681      6.775830     0.014149    Cartesian    0.21
    289 z         -6.761681     -6.753762     0.007919    Cartesian   -0.12
    290 x          6.761681      6.760763    -0.000917    Cartesian   -0.01
    290 y         -6.761681     -6.763830    -0.002149    Cartesian    0.03
    290 z          6.761681      6.746227    -0.015454    Cartesian   -0.23
    291 x         11.269468     11.275217     0.005749    Cartesian    0.05
    291 y          2.253894      2.243024    -0.010870    Cartesian   -0.48
    291 z          6.761681      6.749065    -0.012616    Cartesian   -0.19
    292 x         11.269468     11.274178     0.004710    Cartesian    0.04
    292 y          6.761681      6.761491    -0.000190    Cartesian   -0.00
    292 z          2.253894      2.263618     0.009725    Cartesian    0.43
    293 x          2.253894      2.253894     0.000000    Cartesian    0.00
    293 y         11.269468     11.245238    -0.024230    Cartesian   -0.22
    293 z         -2.253894     -2.281362    -0.027469    Cartesian    1.22
    294 x          2.253894      2.253894     0.000000    Cartesian    0.00
    294 y         -2.253894     -2.265813    -0.011919    Cartesian    0.53
    294 z         11.269468     11.256180    -0.013288    Cartesian   -0.12
    295 x          4.507787      4.487403    -0.020384    Cartesian   -0.45
    295 y          4.507787      4.487510    -0.020277    Cartesian   -0.45
    295 z         -9.015574     -9.055816    -0.040242    Cartesian    0.45
    296 x          4.507787      4.537950     0.030163    Cartesian    0.67
    296 y         -9.015574     -9.020052    -0.004478    Cartesian    0.05
    296 z          4.507787      4.533406     0.025619    Cartesian    0.57
    297 x          9.015574      9.071294     0.055720    Cartesian    0.62
    297 y          9.015574      9.016335     0.000761    Cartesian    0.01
    297 z          4.507787      4.529346     0.021559    Cartesian    0.48
    298 x          9.015574      9.019593     0.004019    Cartesian    0.04
    298 y          4.507787      4.534077     0.026290    Cartesian    0.58
    298 z          9.015574      9.068140     0.052565    Cartesian    0.58
    299 x         11.269468     11.268222    -0.001246    Cartesian   -0.01
    299 y         -2.253894     -2.252978     0.000916    Cartesian   -0.04
    299 z          6.761681      6.768162     0.006481    Cartesian    0.10
    300 x         -2.253894     -2.256700    -0.002806    Cartesian    0.12
    300 y         11.269468     11.263396    -0.006072    Cartesian   -0.05
    300 z          2.253894      2.232623    -0.021271    Cartesian   -0.94
    301 x          2.253894      2.253894     0.000000    Cartesian    0.00
    301 y         -6.761681     -6.760290     0.001391    Cartesian   -0.02
    301 z         -6.761681     -6.752019     0.009662    Cartesian   -0.14
    302 x          6.761681      6.771233     0.009552    Cartesian    0.14
    302 y          2.253894      2.269504     0.015610    Cartesian    0.69
    302 z         11.269468     11.253175    -0.016293    Cartesian   -0.14
    303 x         11.269468     11.273716     0.004248    Cartesian    0.04
    303 y          6.761681      6.763287     0.001606    Cartesian    0.02
    303 z         -2.253894     -2.256279    -0.002386    Cartesian    0.11
    304 x         13.523362     13.578843     0.055482    Cartesian    0.41
    304 y          0.000000     -0.004601    -0.004601    Cartesian    0.00
    304 z          0.000000      0.005162     0.005162    Cartesian    0.00
    305 x          4.507787      4.543028     0.035241    Cartesian    0.78
    305 y          9.015574      9.053893     0.038318    Cartesian    0.43
    305 z          9.015574      9.038147     0.022573    Cartesian    0.25
    306 x          2.253894      2.253894     0.000000    Cartesian    0.00
    306 y          6.761681      6.763947     0.002267    Cartesian    0.03
    306 z         11.269468     11.265219    -0.004249    Cartesian   -0.04
    307 x          2.253894      2.253894     0.000000    Cartesian    0.00
    307 y         11.269468     11.269379    -0.000089    Cartesian   -0.00
    307 z          6.761681      6.762943     0.001262    Cartesian    0.02
    308 x         -2.253894     -2.257288    -0.003394    Cartesian    0.15
    308 y         11.269468     11.275959     0.006491    Cartesian    0.06
    308 z         -2.253894     -2.245812     0.008081    Cartesian   -0.36
    309 x          6.761681      6.764715     0.003034    Cartesian    0.04
    309 y         -2.253894     -2.261734    -0.007841    Cartesian    0.35
    309 z         11.269468     11.257217    -0.012251    Cartesian   -0.11
    310 x         13.523362     13.560218     0.036856    Cartesian    0.27
    310 y          0.000000     -0.007862    -0.007862    Cartesian    0.00
    310 z          4.507787      4.532281     0.024494    Cartesian    0.54
    311 x         13.523362     13.597942     0.074581    Cartesian    0.55
    311 y          4.507787      4.484840    -0.022947    Cartesian   -0.51
    311 z          0.000000      0.002640     0.002640    Cartesian    0.00
    312 x          4.507787      4.524524     0.016737    Cartesian    0.37
    312 y         -4.507787     -4.512280    -0.004493    Cartesian    0.10
    312 z         -9.015574     -9.090249    -0.074674    Cartesian    0.83
    313 x          4.507787      4.519860     0.012072    Cartesian    0.27
    313 y         -9.015574     -9.028104    -0.012529    Cartesian    0.14
    313 z         -4.507787     -4.542609    -0.034822    Cartesian    0.77
    314 x          9.015574      9.041197     0.025622    Cartesian    0.28
    314 y          9.015574      9.032135     0.016561    Cartesian    0.18
    314 z         -4.507787     -4.534193    -0.026406    Cartesian    0.59
    315 x          9.015574      9.047325     0.031751    Cartesian    0.35
    315 y         -4.507787     -4.513253    -0.005466    Cartesian    0.12
    315 z          9.015574      9.045710     0.030136    Cartesian    0.33
--------------------------------------------------------------------------------


  Time to end of optimisation  =      119.6901 seconds


  Peak dynamic memory used =      91.13 MB 


  Timing analysis for GULP :

--------------------------------------------------------------------------------
  Task / Subroutine                                          Time (Seconds)
--------------------------------------------------------------------------------
  Calculation of reciprocal space energy and derivatives          0.0007
  Calculation of reciprocal space energy using symmetry           0.0010
  Calculation of real space energy and derivatives                0.0040
  Calculation of real space energy using symmetry                 0.0096
  Calculation for region 1 energy and derivatives (2-b)          71.5424
  Calculation for region 2a energy                               42.0967
  Calculation for region 2b energy                                0.0215
  Calculation and manipulation of Hessian matrix                  0.2056
  Calculation of matrix inversion                                 5.3280
  Symmetry generation of equivalent positions                     0.0049
--------------------------------------------------------------------------------
  Total CPU time                                                119.6902
--------------------------------------------------------------------------------


  Dump file written as Na3OCl.grs


  Job Finished at 18:46.52 26th November   2020                               

