ITEM: TIMESTEP
1
ITEM: NUMBER OF ATOMS
1
ITEM: BOX BOUNDS pp pp pp
4.1326066201566647e-02 2.2463673933797857e+01
2.3661652292449986e-02 2.2481338347708004e+01
1.1654125348398381e-01 2.2388458746516335e+01
ITEM: ATOMS element x y z q id type vx vy vz
Na 0 0 0 1 1 1 2.4908 -1.06081 -4.90362
ITEM: TIMESTEP
2
ITEM: NUMBER OF ATOMS
1
ITEM: BOX BOUNDS pp pp pp
4.1326066201566647e-02 2.2463673933797857e+01
2.3661652292449986e-02 2.2481338347708004e+01
1.1654125348398381e-01 2.2388458746516335e+01
ITEM: ATOMS element x y z q id type vx vy vz
Na 1 0 0 1 1 1 2.4908 -1.06081 -4.90362
ITEM: TIMESTEP
3
ITEM: NUMBER OF ATOMS
1
ITEM: BOX BOUNDS pp pp pp
4.1326066201566647e-02 2.2463673933797857e+01
2.3661652292449986e-02 2.2481338347708004e+01
1.1654125348398381e-01 2.2388458746516335e+01
ITEM: ATOMS element x y z q id type vx vy vz
Na 2 0 0 1 1 1 2.4908 -1.06081 -4.90362
ITEM: TIMESTEP
4
ITEM: NUMBER OF ATOMS
1
ITEM: BOX BOUNDS pp pp pp
4.1326066201566647e-02 2.2463673933797857e+01
2.3661652292449986e-02 2.2481338347708004e+01
1.1654125348398381e-01 2.2388458746516335e+01
ITEM: ATOMS element x y z q id type vx vy vz
Na 3 0 0 1 1 1 2.4908 -1.06081 -4.90362