********************************************************************************
*                       GENERAL UTILITY LATTICE PROGRAM                        *
*                                 Julian Gale                                  *
*                       Curtin Institute for Computation                       *
*                    School of Molecular and Life Sciences                     *
*                    Curtin University, Western Australia                      *
********************************************************************************
* Version = 5.2.0 * Last modified =  10th September 2020                       *
********************************************************************************
*  optimise     - perform optimisation run                                     *
*  conp         - constant pressure calculation                                *
*  property     - calculate properties for final geometry                      *
*  defect       - perform defect calculation after bulk run                    *
*  compare      - compare initial and final structures                         *
********************************************************************************

  Job Started  at 15:01.24  1st December   2020                               

  Number of CPUs =     1


  Total number of configurations input =      1

********************************************************************************
*  Input for Configuration =   1                                               *
********************************************************************************

  Formula = ClONa3                                                      

  Number of irreducible atoms/shells =       5


  Total number atoms/shells =       7

  Dimensionality = 3               :  Bulk   


  Symmetry :

  Crystal family                   :  Cubic       
  Crystal class  (Groth - 1921)    :  Cubic Hexakisoctahedral              

  Space group (centrosymmetric)    :  P M 3 M         

  Patterson group                  :  P m -3 m 

  Cartesian lattice vectors (Angstroms) :

        4.504000    0.000000    0.000000
        0.000000    4.504000    0.000000
        0.000000    0.000000    4.504000

  Cell parameters (Angstroms/Degrees):

  a =       4.5040    alpha =  90.0000
  b =       4.5040    beta  =  90.0000
  c =       4.5040    gamma =  90.0000

  Initial cell volume =          91.368216 Angs**3

  Temperature of configuration =   0.00     K 

  Pressure of configuration =         0.000 GPa 

  Fractional coordinates of asymmetric unit :

--------------------------------------------------------------------------------
   No.  Atomic       x           y          z         Charge      Occupancy
        Label      (Frac)      (Frac)     (Frac)        (e)         (Frac)  
--------------------------------------------------------------------------------
      1 Cl    c    0.000000    0.000000    0.000000     1.48500    1.000000    
      2 O     c    0.500000    0.500000    0.500000     0.18300    1.000000    
      3 Na    c    0.500000    0.500000    0.000000     1.00000    1.000000    
      4 Cl    s    0.000000    0.000000    0.000000    -2.48500    1.000000    
      5 O     s    0.500000    0.500000    0.500000    -2.18300    1.000000    
--------------------------------------------------------------------------------


  Constraints : 

--------------------------------------------------------------------------------
  Constraint no.      Unconstrained     Constrained    Coefficient    Offset
                         Variable         Variable
--------------------------------------------------------------------------------
           1              Strain 1        Strain 2       1.00000      0.0000
           2              Strain 1        Strain 3       1.00000      0.0000
--------------------------------------------------------------------------------


********************************************************************************
*  General input information                                                   *
********************************************************************************

  Species output for all configurations : 

--------------------------------------------------------------------------------
  Species    Type    Atomic    Atomic    Charge       Radii (Angs)     Library
                     Number     Mass       (e)     Cova   Ionic  VDW   Symbol
--------------------------------------------------------------------------------
    Na       Core       11      22.99   1.000000   0.970  0.000  2.300          
    O        Core        8      16.00   0.183000   0.730  0.000  1.360          
    O        Shell       8       0.00  -2.183000   0.730  0.000  1.360          
    Cl       Core       17      35.45   1.485000   0.990  0.000  1.650          
    Cl       Shell      17       0.00  -2.485000   0.990  0.000  1.650          
    Mg       Core       12      24.31   0.415000   1.100  0.000  0.000          
    Mg       Shell      12       0.00   1.585000   1.100  0.000  0.000          
    Ca       Core       20      40.08  -1.135000   0.990  0.000  0.000          
    Ca       Shell      20       0.00   3.135000   0.990  0.000  0.000          
    Sr       Core       38      87.62  -1.251000   1.120  0.000  0.000          
    Sr       Shell      38       0.00   3.251000   1.120  0.000  0.000          
    Ba       Core       56     137.33  -7.203000   1.340  0.000  0.000          
    Ba       Shell      56       0.00   9.203000   1.340  0.000  0.000          
--------------------------------------------------------------------------------


  Lattice summation method               =    Ewald          (3-D)
                                         =    Parry          (2-D)
                                         =    Saunders et al (1-D)
  Accuracy factor for lattice sums       =   12.000


  Analytic derivatives to be used

  Time limit = Infinity

  Maximum range for interatomic potentials =    100000.000000 Angstroms

  General interatomic potentials :

--------------------------------------------------------------------------------
Atom  Types   Potential      Parameter       Value         Units   Cutoffs(Ang)
  1     2                                                            Min /  Max 
--------------------------------------------------------------------------------
O    c O    s Spring (c-s)  Spring k 2       593.71600    eV*Ang^-2 0.000  0.800
                            Spring k 4       0.0000000    eV*Ang^-4 
--------------------------------------------------------------------------------
Cl   c Cl   s Spring (c-s)  Spring k 2       29.380000    eV*Ang^-2 0.000  0.800
                            Spring k 4       0.0000000    eV*Ang^-4 
--------------------------------------------------------------------------------
Mg   c Mg   s Spring (c-s)  Spring k 2       361.60000    eV*Ang^-2 0.000  0.800
                            Spring k 4       0.0000000    eV*Ang^-4 
--------------------------------------------------------------------------------
Ca   c Ca   s Spring (c-s)  Spring k 2       110.20000    eV*Ang^-2 0.000  0.800
                            Spring k 4       0.0000000    eV*Ang^-4 
--------------------------------------------------------------------------------
Sr   c Sr   s Spring (c-s)  Spring k 2       71.700000    eV*Ang^-2 0.000  0.800
                            Spring k 4       0.0000000    eV*Ang^-4 
--------------------------------------------------------------------------------
Ba   c Ba   s Spring (c-s)  Spring k 2       495.20000    eV*Ang^-2 0.000  0.800
                            Spring k 4       0.0000000    eV*Ang^-4 
--------------------------------------------------------------------------------
Na   c Na   c Buckingham    Buckingham A     1788.1900    eV        0.000 12.000
                            Buckingham rho  0.15900000    Ang       
                            Buckingham C     0.0000000    eV*Ang^6  
--------------------------------------------------------------------------------
Na   c O    s Buckingham    Buckingham A     1226.8400    eV        0.000 12.000
                            Buckingham rho  0.30700000    Ang       
                            Buckingham C     0.0000000    eV*Ang^6  
--------------------------------------------------------------------------------
Na   c Cl   s Buckingham    Buckingham A     2314.7000    eV        0.000 12.000
                            Buckingham rho  0.29000000    Ang       
                            Buckingham C     0.0000000    eV*Ang^6  
--------------------------------------------------------------------------------
O    s O    s Buckingham    Buckingham A     22764.300    eV        0.000 12.000
                            Buckingham rho  0.14900000    Ang       
                            Buckingham C     13.190000    eV*Ang^6  
--------------------------------------------------------------------------------
O    s Cl   s Buckingham    Buckingham A     8286.9100    eV        0.000 12.000
                            Buckingham rho  0.25900000    Ang       
                            Buckingham C     62.200000    eV*Ang^6  
--------------------------------------------------------------------------------
Cl   s Cl   s Buckingham    Buckingham A     1227.2000    eV        0.000 12.000
                            Buckingham rho  0.32100000    Ang       
                            Buckingham C     14.530000    eV*Ang^6  
--------------------------------------------------------------------------------
O    s Mg   s Buckingham    Buckingham A     1428.5000    eV        0.000 12.000
                            Buckingham rho  0.29450000    Ang       
                            Buckingham C     0.0000000    eV*Ang^6  
--------------------------------------------------------------------------------
Mg   s Cl   s Buckingham    Buckingham A     4914.5400    eV        0.000 12.000
                            Buckingham rho  0.25700000    Ang       
                            Buckingham C     0.0000000    eV*Ang^6  
--------------------------------------------------------------------------------
O    s Ca   s Buckingham    Buckingham A     1090.4000    eV        0.000 12.000
                            Buckingham rho  0.34370000    Ang       
                            Buckingham C     0.0000000    eV*Ang^6  
--------------------------------------------------------------------------------
Cl   s Ca   s Buckingham    Buckingham A     2302.0000    eV        0.000 12.000
                            Buckingham rho  0.34020000    Ang       
                            Buckingham C     0.0000000    eV*Ang^6  
--------------------------------------------------------------------------------
O    s Sr   s Buckingham    Buckingham A     959.10000    eV        0.000 12.000
                            Buckingham rho  0.37210000    Ang       
                            Buckingham C     0.0000000    eV*Ang^6  
--------------------------------------------------------------------------------
Cl   s Sr   s Buckingham    Buckingham A     2191.0900    eV        0.000 12.000
                            Buckingham rho  0.34570000    Ang       
                            Buckingham C     0.0000000    eV*Ang^6  
--------------------------------------------------------------------------------
O    s Ba   s Buckingham    Buckingham A     905.70000    eV        0.000 12.000
                            Buckingham rho  0.39760000    Ang       
                            Buckingham C     0.0000000    eV*Ang^6  
--------------------------------------------------------------------------------
Cl   s Ba   s Buckingham    Buckingham A     2704.5500    eV        0.000 12.000
                            Buckingham rho  0.35280000    Ang       
                            Buckingham C     0.0000000    eV*Ang^6  
--------------------------------------------------------------------------------

********************************************************************************
*  Output for configuration   1                                                *
********************************************************************************


  Components of energy : 

--------------------------------------------------------------------------------
  Interatomic potentials     =           5.13022605 eV    
  Monopole - monopole (real) =         -10.03624526 eV    
  Monopole - monopole (recip)=         -29.53581274 eV    
  Monopole - monopole (total)=         -39.57205800 eV    
--------------------------------------------------------------------------------
  Total lattice energy       =         -34.44183194 eV    
--------------------------------------------------------------------------------
  Total lattice energy       =           -3323.1103 kJ/(mole unit cells)
--------------------------------------------------------------------------------


  Number of variables =        1

  Maximum number of calculations  =          1000
  Maximum Hessian update interval =            10
  Maximum step size               =   1.000000000
  Maximum parameter tolerance     =   0.000010000
  Maximum function  tolerance     =   0.000010000
  Maximum gradient  tolerance     =   0.001000000
  Maximum gradient  component     =   0.010000000

  Symmetry constrained optimisation

  Symmetry used for second derivatives

  Cell parameters to be optimised using strains

  Newton-Raphson optimiser to be used

  BFGS hessian update to be used

  Lower half triangular hessian to be used

  Start of bulk optimisation :

  Cycle:      0 Energy:       -34.441832  Gnorm:      0.196570  CPU:    0.010
  ** Hessian calculated **
  Cycle:      1 Energy:       -34.441914  Gnorm:      0.000103  CPU:    0.012


  **** Optimisation achieved ****


  Final energy =     -34.44191447 eV
  Final Gnorm  =       0.00000000

  Components of energy : 

--------------------------------------------------------------------------------
  Interatomic potentials     =           5.09689708 eV    
  Monopole - monopole (real) =         -10.02781331 eV    
  Monopole - monopole (recip)=         -29.51099824 eV    
  Monopole - monopole (total)=         -39.53881155 eV    
--------------------------------------------------------------------------------
  Total lattice energy       =         -34.44191447 eV    
--------------------------------------------------------------------------------
  Total lattice energy       =           -3323.1183 kJ/(mole unit cells)
--------------------------------------------------------------------------------

  Final asymmetric unit coordinates :

--------------------------------------------------------------------------------
   No.  Atomic        x           y           z         Radius
        Label       (Frac)      (Frac)      (Frac)       (Angs) 
--------------------------------------------------------------------------------
     1  Cl    c     0.000000    0.000000    0.000000    0.000000
     2  O     c     0.500000    0.500000    0.500000    0.000000
     3  Na    c     0.500000    0.500000    0.000000    0.000000
     4  Cl    s     0.000000    0.000000    0.000000    0.000000
     5  O     s     0.500000    0.500000    0.500000    0.000000
--------------------------------------------------------------------------------

  Final Cartesian lattice vectors (Angstroms) :

        4.507787    0.000000    0.000000
        0.000000    4.507787    0.000000
        0.000000    0.000000    4.507787


  Final cell parameters and derivatives :

--------------------------------------------------------------------------------
       a            4.507787 Angstrom     dE/de1(xx)     0.000000 eV/strain
       b            4.507787 Angstrom     dE/de2(yy)     0.000000 eV/strain
       c            4.507787 Angstrom     dE/de3(zz)     0.000000 eV/strain
       alpha       90.000000 Degrees      dE/de4(yz)     0.000000 eV/strain
       beta        90.000000 Degrees      dE/de5(xz)     0.000000 eV/strain
       gamma       90.000000 Degrees      dE/de6(xy)     0.000000 eV/strain
--------------------------------------------------------------------------------

  Primitive cell volume =            91.598892 Angs**3

  Density of cell =      2.183054 g/cm**3

  Non-primitive cell volume =            91.598892 Angs**3


  Final internal derivatives :

--------------------------------------------------------------------------------
   No.  Atomic          a             b             c           Radius
        Label          (eV)          (eV)          (eV)        (eV/Angs)
--------------------------------------------------------------------------------
      1 Cl    c       0.000000      0.000000      0.000000      0.000000
      2 O     c       0.000000      0.000000      0.000000      0.000000
      3 Na    c       0.000000      0.000000      0.000000      0.000000
      4 Cl    s       0.000000      0.000000      0.000000      0.000000
      5 O     s       0.000000      0.000000      0.000000      0.000000
--------------------------------------------------------------------------------
  Maximum abs         0.000000      0.000000      0.000000      0.000000
--------------------------------------------------------------------------------

  Comparison of initial and final structures : 

--------------------------------------------------------------------------------
  Parameter   Initial value   Final value   Difference    Units      Percent
--------------------------------------------------------------------------------
    Volume        91.368216     91.598892     0.230676    Angs**3      0.25
    a              4.504000      4.507787     0.003787    Angstroms    0.08
    b              4.504000      4.507787     0.003787    Angstroms    0.08
    c              4.504000      4.507787     0.003787    Angstroms    0.08
    alpha         90.000000     90.000000     0.000000    Degrees      0.00
    beta          90.000000     90.000000     0.000000    Degrees      0.00
    gamma         90.000000     90.000000     0.000000    Degrees      0.00
      1 x          0.000000      0.000000     0.000000    Fractional   0.00
      1 y          0.000000      0.000000     0.000000    Fractional   0.00
      1 z          0.000000      0.000000     0.000000    Fractional   0.00
      2 x          0.500000      0.500000     0.000000    Fractional   0.00
      2 y          0.500000      0.500000     0.000000    Fractional   0.00
      2 z          0.500000      0.500000     0.000000    Fractional   0.00
      3 x          0.500000      0.500000     0.000000    Fractional   0.00
      3 y          0.500000      0.500000     0.000000    Fractional   0.00
      3 z          0.000000      0.000000     0.000000    Fractional   0.00
      4 x          0.000000      0.000000     0.000000    Fractional   0.00
      4 y          0.000000      0.000000     0.000000    Fractional   0.00
      4 z          0.000000      0.000000     0.000000    Fractional   0.00
      5 x          0.500000      0.500000     0.000000    Fractional   0.00
      5 y          0.500000      0.500000     0.000000    Fractional   0.00
      5 z          0.500000      0.500000     0.000000    Fractional   0.00
--------------------------------------------------------------------------------


  Born effective charge tensors : 

-------------------------------------------------------------------------------
  Atom             x           y             z
-------------------------------------------------------------------------------
    1 Cl    x      -1.0181     -0.0000      0.0000
            y      -0.0000     -1.0181      0.0000
            z       0.0000      0.0000     -1.0181
-------------------------------------------------------------------------------
    2 O     x      -2.2647      0.0000     -0.0000
            y       0.0000     -2.2647     -0.0000
            z      -0.0000     -0.0000     -2.2647
-------------------------------------------------------------------------------
    3 Na    x       1.2258     -0.0000      0.0000
            y      -0.0000      1.2258     -0.0000
            z       0.0000     -0.0000      0.8313
-------------------------------------------------------------------------------




  Elastic Constant Matrix: (Units=GPa)

-------------------------------------------------------------------------------
  Indices      1         2         3         4         5         6    
-------------------------------------------------------------------------------
       1     95.8177   20.0737   20.0737   -0.0000   -0.0000    0.0000
       2     20.0737   95.8177   20.0737   -0.0000   -0.0000    0.0000
       3     20.0737   20.0737   95.8177   -0.0000   -0.0000    0.0000
       4     -0.0000   -0.0000   -0.0000   20.0737   -0.0000    0.0000
       5     -0.0000   -0.0000   -0.0000   -0.0000   20.0737    0.0000
       6      0.0000    0.0000    0.0000    0.0000    0.0000   20.0737
-------------------------------------------------------------------------------


  Elastic Compliance Matrix: (Units=1/GPa)

-------------------------------------------------------------------------------
  Indices      1         2         3         4         5         6    
-------------------------------------------------------------------------------
       1    0.011253 -0.001949 -0.001949  0.000000  0.000000 -0.000000
       2   -0.001949  0.011253 -0.001949  0.000000  0.000000  0.000000
       3   -0.001949 -0.001949  0.011253  0.000000  0.000000 -0.000000
       4    0.000000  0.000000  0.000000  0.049816  0.000000 -0.000000
       5    0.000000  0.000000  0.000000  0.000000  0.049816 -0.000000
       6   -0.000000  0.000000 -0.000000 -0.000000 -0.000000  0.049816
-------------------------------------------------------------------------------

  Mechanical properties :

-------------------------------------------------------------------------------
  Convention :                    Reuss         Voigt         Hill
-------------------------------------------------------------------------------
  Bulk  Modulus (GPa)     =      45.32174      45.32174      45.32174
  Shear Modulus (GPa)     =      24.72085      27.19304      25.95695
-------------------------------------------------------------------------------
  Velocity S-wave (km/s)  =       3.36511       3.52937       3.44822
  Velocity P-wave (km/s)  =       5.98827       6.11304       6.05098
-------------------------------------------------------------------------------
  Compressibility (1/GPa) =    0.02206447
-------------------------------------------------------------------------------
  Stress axis :                     x             y             z
-------------------------------------------------------------------------------
  Youngs Moduli (GPa)     =      88.86373      88.86373      88.86373
-------------------------------------------------------------------------------
  Poissons Ratio (x)      =                     0.17321       0.17321
  Poissons Ratio (y)      =       0.17321                     0.17321
  Poissons Ratio (z)      =       0.17321       0.17321
-------------------------------------------------------------------------------


  Piezoelectric Strain Matrix: (Units=C/m**2)

-------------------------------------------------------------------------------
  Indices      1         2         3         4         5         6    
-------------------------------------------------------------------------------
       x    -0.00000  -0.00000  -0.00000   0.00000  -0.00000  -0.00000
       y    -0.00000  -0.00000   0.00000  -0.00000   0.00000   0.00000
       z    -0.00000  -0.00000  -0.00000  -0.00000   0.00000   0.00000
-------------------------------------------------------------------------------


  Piezoelectric Stress Matrix: (Units=10**-11 C/N)

-------------------------------------------------------------------------------
  Indices      1         2         3         4         5         6    
-------------------------------------------------------------------------------
       x    -0.00000   0.00000   0.00000   0.00000  -0.00000  -0.00000
       y    -0.00000  -0.00000   0.00000  -0.00000   0.00000   0.00000
       z     0.00000   0.00000  -0.00000  -0.00000   0.00000   0.00000
-------------------------------------------------------------------------------


  Static dielectric constant tensor : 

-------------------------------------------------------------------------------
              x         y         z
-------------------------------------------------------------------------------
       x    22.84729   0.00000   0.00000
       y     0.00000  22.84729  -0.00000
       z     0.00000  -0.00000  22.84729
--------------------------------------------------------------------------------

  High frequency dielectric constant tensor : 

-------------------------------------------------------------------------------
              x         y         z
-------------------------------------------------------------------------------
       x     1.47557   0.00000  -0.00000
       y     0.00000   1.47557  -0.00000
       z    -0.00000  -0.00000   1.47557
-------------------------------------------------------------------------------

  Static refractive indices : 

-------------------------------------------------------------------------------
    1 =    4.77988      2 =    4.77988      3 =    4.77988
-------------------------------------------------------------------------------

  High frequency refractive indices : 

-------------------------------------------------------------------------------
    1 =    1.21473      2 =    1.21473      3 =    1.21473
-------------------------------------------------------------------------------


  Time to end of optimisation =       0.0163 seconds

********************************************************************************
*  Defect calculation for configuration   1 :                                  *
********************************************************************************

  Total number of defects =      3

  Total charge on defect  =  -1.00

  Defect centre is at   0.5000   0.2500   0.2500  Frac

  Region 1 radius =  17.0000      Number of ions =   1551

  Number of symmetry inequivalent region 1 ions  =    475

  Region 2 radius =  20.0000      Number of ions =   1058

  Number of symmetry inequivalent region 2a ions =    299

  Region 2a mode = 4 : screened electrostatics due to region 1 
                       neglect correction to region 1 forces from 2a
                       region 2a displacements based on defects only

  Region 2a ions will only interact with defects in region 1

  Vacancies:

--------------------------------------------------------------------------------
    Specification type     Symbol/Number         x          y          z
--------------------------------------------------------------------------------
    Fractional                               0.500000   0.500000   0.000000
    Fractional                               0.500000   0.000000   0.500000
--------------------------------------------------------------------------------

  Interstitials:

--------------------------------------------------------------------------------
    Specification type     Symbol/Number         x          y          z
--------------------------------------------------------------------------------
    Atom/Fractional         Na               0.500000   0.250000   0.250000
--------------------------------------------------------------------------------


  Symmetry reduced region 1 (Relative to defect centre) :

--------------------------------------------------------------------------------
   No.   Atomic       x            y             z       Radius  Multiplicity   
         Label      (Angs)       (Angs)        (Angs)    (Angs)     
--------------------------------------------------------------------------------
     1  Na    c      0.0000       0.0000       0.0000    0.0000     1    Defect
     2  O     c      0.0000       1.1269 *     1.1269    0.0000     1          
     3  Cl    c      2.2539 *    -1.1269 *    -1.1269    0.0000     2          
     4  Na    c      2.2539 *     1.1269 *     1.1269    0.0000     2          
     5  O     c      0.0000       1.1269 *    -3.3808 *  0.0000     2          
     6  Na    c      0.0000       1.1269 *     3.3808 *  0.0000     2          
     7  Na    c      0.0000      -3.3808 *    -1.1269 *  0.0000     2          
     8  Cl    c      2.2539 *    -1.1269 *     3.3808 *  0.0000     4          
     9  Na    c      2.2539 *     1.1269 *    -3.3808 *  0.0000     4          
    10  O     c     -4.5078 *     1.1269 *     1.1269    0.0000     2          
    11  Na    c     -4.5078 *     1.1269 *    -1.1269 *  0.0000     4          
    12  O     c      0.0000      -3.3808 *    -3.3808    0.0000     1          
    13  Na    c      0.0000      -3.3808 *     3.3808 *  0.0000     2          
    14  Cl    c      2.2539 *     3.3808 *     3.3808    0.0000     2          
    15  Na    c      2.2539 *    -3.3808 *    -3.3808    0.0000     2          
    16  O     c      0.0000       1.1269 *     5.6347 *  0.0000     2          
    17  Na    c      0.0000       1.1269 *    -5.6347 *  0.0000     2          
    18  Na    c      0.0000       5.6347 *    -1.1269 *  0.0000     2          
    19  O     c     -4.5078 *     1.1269 *    -3.3808 *  0.0000     4          
    20  Na    c     -4.5078 *     1.1269 *     3.3808 *  0.0000     4          
    21  Na    c     -4.5078 *    -3.3808 *    -1.1269 *  0.0000     4          
    22  Cl    c      2.2539 *    -1.1269 *    -5.6347 *  0.0000     4          
    23  Na    c      2.2539 *     1.1269 *     5.6347 *  0.0000     4          
    24  O     c      0.0000       5.6347 *    -3.3808 *  0.0000     2          
    25  Na    c      0.0000       5.6347 *     3.3808 *  0.0000     2          
    26  Na    c      0.0000      -3.3808 *    -5.6347 *  0.0000     2          
    27  O     c      4.5078 *    -3.3808 *    -3.3808    0.0000     2          
    28  Na    c      4.5078 *    -3.3808 *     3.3808 *  0.0000     4          
    29  Cl    c      2.2539 *     3.3808 *    -5.6347 *  0.0000     4          
    30  Na    c      2.2539 *     5.6347 *    -3.3808 *  0.0000     4          
    31  Cl    c      6.7617 *    -1.1269 *    -1.1269    0.0000     2          
    32  Na    c      6.7617 *     1.1269 *     1.1269    0.0000     2          
    33  O     c     -4.5078 *     1.1269 *     5.6347 *  0.0000     4          
    34  Na    c     -4.5078 *     1.1269 *    -5.6347 *  0.0000     4          
    35  Na    c     -4.5078 *    -1.1269 *     5.6347 *  0.0000     4          
    36  Cl    c      6.7617 *    -1.1269 *     3.3808 *  0.0000     4          
    37  Na    c      6.7617 *     1.1269 *    -3.3808 *  0.0000     4          
    38  O     c      0.0000       5.6347 *     5.6347    0.0000     1          
    39  Na    c      0.0000       5.6347 *    -5.6347 *  0.0000     2          
    40  O     c     -4.5078 *    -3.3808 *     5.6347 *  0.0000     4          
    41  Na    c     -4.5078 *    -3.3808 *    -5.6347 *  0.0000     4          
    42  Na    c     -4.5078 *     3.3808 *     5.6347 *  0.0000     4          
    43  O     c      0.0000       1.1269 *    -7.8886 *  0.0000     2          
    44  Na    c      0.0000       1.1269 *     7.8886 *  0.0000     2          
    45  Na    c      0.0000      -7.8886 *    -1.1269 *  0.0000     2          
    46  Cl    c      2.2539 *    -5.6347 *    -5.6347    0.0000     2          
    47  Na    c      2.2539 *     5.6347 *     5.6347    0.0000     2          
    48  Cl    c      2.2539 *    -1.1269 *     7.8886 *  0.0000     4          
    49  Na    c      2.2539 *     1.1269 *    -7.8886 *  0.0000     4          
    50  Cl    c      6.7617 *     3.3808 *     3.3808    0.0000     2          
    51  Na    c      6.7617 *    -3.3808 *    -3.3808    0.0000     2          
    52  O     c      0.0000      -3.3808 *    -7.8886 *  0.0000     2          
    53  Na    c      0.0000      -3.3808 *     7.8886 *  0.0000     2          
    54  Na    c      0.0000      -7.8886 *     3.3808 *  0.0000     2          
    55  Cl    c      2.2539 *     3.3808 *     7.8886 *  0.0000     4          
    56  Cl    c      6.7617 *    -1.1269 *    -5.6347 *  0.0000     4          
    57  Na    c      2.2539 *    -3.3808 *    -7.8886 *  0.0000     4          
    58  Na    c      6.7617 *     1.1269 *     5.6347 *  0.0000     4          
    59  O     c      4.5078 *     5.6347 *     5.6347    0.0000     2          
    60  O     c      4.5078 *    -7.8886 *     1.1269 *  0.0000     4          
    61  O     c      9.0156 *     1.1269 *     1.1269    0.0000     2          
    62  Na    c      4.5078 *     5.6347 *    -5.6347 *  0.0000     4          
    63  Na    c      4.5078 *    -7.8886 *    -1.1269 *  0.0000     4          
    64  Na    c      9.0156 *     1.1269 *    -1.1269 *  0.0000     4          
    65  Na    c     -4.5078 *     1.1269 *     7.8886 *  0.0000     4          
    66  Cl    c      6.7617 *     3.3808 *    -5.6347 *  0.0000     4          
    67  Na    c      6.7617 *    -3.3808 *     5.6347 *  0.0000     4          
    68  O     c      0.0000       5.6347 *    -7.8886 *  0.0000     2          
    69  O     c      9.0156 *    -3.3808 *     1.1269 *  0.0000     4          
    70  O     c     -4.5078 *    -3.3808 *    -7.8886 *  0.0000     4          
    71  Na    c      0.0000       5.6347 *     7.8886 *  0.0000     2          
    72  Na    c      0.0000      -7.8886 *    -5.6347 *  0.0000     2          
    73  Na    c      9.0156 *    -3.3808 *    -1.1269 *  0.0000     4          
    74  Na    c     -4.5078 *    -3.3808 *     7.8886 *  0.0000     4          
    75  Na    c      9.0156 *     3.3808 *     1.1269 *  0.0000     4          
    76  Na    c     -4.5078 *     3.3808 *    -7.8886 *  0.0000     4          
    77  Cl    c      2.2539 *     7.8886 *    -5.6347 *  0.0000     4          
    78  Na    c      2.2539 *     5.6347 *    -7.8886 *  0.0000     4          
    79  O     c      0.0000      10.1425 *     1.1269 *  0.0000     2          
    80  Na    c      0.0000      10.1425 *    -1.1269 *  0.0000     2          
    81  Na    c      0.0000     -10.1425 *     1.1269 *  0.0000     2          
    82  O     c      9.0156 *    -3.3808 *    -3.3808    0.0000     2          
    83  Na    c      9.0156 *    -3.3808 *     3.3808 *  0.0000     4          
    84  Cl    c      6.7617 *    -5.6347 *    -5.6347    0.0000     2          
    85  Na    c      6.7617 *     5.6347 *     5.6347    0.0000     2          
    86  Cl    c      2.2539 *    -1.1269 *   -10.1425 *  0.0000     4          
    87  Cl    c      6.7617 *    -1.1269 *     7.8886 *  0.0000     4          
    88  Na    c      2.2539 *     1.1269 *    10.1425 *  0.0000     4          
    89  Na    c      6.7617 *     1.1269 *    -7.8886 *  0.0000     4          
    90  O     c      4.5078 *     5.6347 *    -7.8886 *  0.0000     4          
    91  O     c      9.0156 *     1.1269 *     5.6347 *  0.0000     4          
    92  Na    c      4.5078 *     5.6347 *     7.8886 *  0.0000     4          
    93  Na    c      4.5078 *    -7.8886 *    -5.6347 *  0.0000     4          
    94  Na    c      9.0156 *     1.1269 *    -5.6347 *  0.0000     4          
    95  Na    c      9.0156 *     5.6347 *    -1.1269 *  0.0000     4          
    96  O     c      0.0000      10.1425 *    -3.3808 *  0.0000     2          
    97  Na    c      0.0000      10.1425 *     3.3808 *  0.0000     2          
    98  Na    c      0.0000      -3.3808 *   -10.1425 *  0.0000     2          
    99  Cl    c      2.2539 *     3.3808 *   -10.1425 *  0.0000     4          
   100  Cl    c      6.7617 *     7.8886 *     3.3808 *  0.0000     4          
   101  Na    c      2.2539 *    10.1425 *    -3.3808 *  0.0000     4          
   102  Na    c      6.7617 *    -7.8886 *    -3.3808 *  0.0000     4          
   103  O     c      9.0156 *    -3.3808 *     5.6347 *  0.0000     4          
   104  O     c     -4.5078 *    10.1425 *     1.1269 *  0.0000     4          
   105  Na    c      9.0156 *    -3.3808 *    -5.6347 *  0.0000     4          
   106  Na    c     -4.5078 *    10.1425 *    -1.1269 *  0.0000     4          
   107  Na    c      9.0156 *     3.3808 *     5.6347 *  0.0000     4          
   108  Na    c     -4.5078 *   -10.1425 *     1.1269 *  0.0000     4          
   109  O     c      0.0000      -7.8886 *    -7.8886    0.0000     1          
   110  Na    c      0.0000      -7.8886 *     7.8886 *  0.0000     2          
   111  Cl    c     11.2695 *    -1.1269 *    -1.1269    0.0000     2          
   112  Na    c     11.2695 *     1.1269 *     1.1269    0.0000     2          
   113  Cl    c      2.2539 *     7.8886 *     7.8886    0.0000     2          
   114  Na    c      2.2539 *    -7.8886 *    -7.8886    0.0000     2          
   115  O     c      0.0000       5.6347 *    10.1425 *  0.0000     2          
   116  O     c     -4.5078 *    10.1425 *    -3.3808 *  0.0000     4          
   117  Na    c      0.0000       5.6347 *   -10.1425 *  0.0000     2          
   118  Na    c      0.0000      10.1425 *    -5.6347 *  0.0000     2          
   119  Na    c     -4.5078 *    10.1425 *     3.3808 *  0.0000     4          
   120  Na    c     -4.5078 *   -10.1425 *    -3.3808 *  0.0000     4          
   121  Cl    c     11.2695 *    -1.1269 *     3.3808 *  0.0000     4          
   122  Na    c     11.2695 *     1.1269 *    -3.3808 *  0.0000     4          
   123  Cl    c      2.2539 *    -5.6347 *   -10.1425 *  0.0000     4          
   124  Cl    c      6.7617 *     7.8886 *    -5.6347 *  0.0000     4          
   125  Na    c      2.2539 *     5.6347 *    10.1425 *  0.0000     4          
   126  Na    c      6.7617 *    -7.8886 *     5.6347 *  0.0000     4          
   127  O     c      9.0156 *     5.6347 *     5.6347    0.0000     2          
   128  O     c      9.0156 *    -7.8886 *     1.1269 *  0.0000     4          
   129  Na    c      9.0156 *     5.6347 *    -5.6347 *  0.0000     4          
   130  Na    c      9.0156 *    -7.8886 *    -1.1269 *  0.0000     4          
   131  Na    c      9.0156 *     7.8886 *     1.1269 *  0.0000     4          
   132  O     c      4.5078 *    -7.8886 *    -7.8886    0.0000     2          
   133  Na    c      4.5078 *    -7.8886 *     7.8886 *  0.0000     4          
   134  Cl    c     11.2695 *     3.3808 *     3.3808    0.0000     2          
   135  Na    c     11.2695 *    -3.3808 *    -3.3808    0.0000     2          
   136  Cl    c      6.7617 *   -10.1425 *    -1.1269 *  0.0000     4          
   137  Na    c      6.7617 *    10.1425 *     1.1269 *  0.0000     4          
   138  O     c      0.0000       1.1269 *   -12.3964 *  0.0000     2          
   139  O     c      9.0156 *    -7.8886 *    -3.3808 *  0.0000     4          
   140  O     c     -4.5078 *    10.1425 *     5.6347 *  0.0000     4          
   141  Na    c      0.0000       1.1269 *    12.3964 *  0.0000     2          
   142  Na    c      0.0000     -12.3964 *    -1.1269 *  0.0000     2          
   143  Na    c      9.0156 *    -7.8886 *     3.3808 *  0.0000     4          
   144  Na    c     -4.5078 *    10.1425 *    -5.6347 *  0.0000     4          
   145  Na    c      9.0156 *     7.8886 *    -3.3808 *  0.0000     4          
   146  Na    c     -4.5078 *   -10.1425 *     5.6347 *  0.0000     4          
   147  Cl    c     11.2695 *    -1.1269 *    -5.6347 *  0.0000     4          
   148  Na    c     11.2695 *     1.1269 *     5.6347 *  0.0000     4          
   149  Cl    c      2.2539 *    -1.1269 *    12.3964 *  0.0000     4          
   150  Cl    c      6.7617 *   -10.1425 *     3.3808 *  0.0000     4          
   151  Na    c      2.2539 *     1.1269 *   -12.3964 *  0.0000     4          
   152  Na    c      6.7617 *    10.1425 *    -3.3808 *  0.0000     4          
   153  O     c      0.0000      -3.3808 *   -12.3964 *  0.0000     2          
   154  Na    c      0.0000      -3.3808 *    12.3964 *  0.0000     2          
   155  Na    c      0.0000     -12.3964 *     3.3808 *  0.0000     2          
   156  O     c      0.0000      10.1425 *    -7.8886 *  0.0000     2          
   157  Na    c      0.0000      10.1425 *     7.8886 *  0.0000     2          
   158  Na    c      0.0000      -7.8886 *   -10.1425 *  0.0000     2          
   159  Cl    c     11.2695 *     3.3808 *    -5.6347 *  0.0000     4          
   160  Na    c     11.2695 *     5.6347 *    -3.3808 *  0.0000     4          
   161  Cl    c      2.2539 *     3.3808 *    12.3964 *  0.0000     4          
   162  Na    c      2.2539 *    -3.3808 *   -12.3964 *  0.0000     4          
   163  Cl    c      2.2539 *     7.8886 *   -10.1425 *  0.0000     4          
   164  Cl    c      6.7617 *     7.8886 *     7.8886    0.0000     2          
   165  Na    c      2.2539 *    10.1425 *    -7.8886 *  0.0000     4          
   166  Na    c      6.7617 *    -7.8886 *    -7.8886    0.0000     2          
   167  O     c      4.5078 *   -12.3964 *     1.1269 *  0.0000     4          
   168  O     c      9.0156 *    -7.8886 *     5.6347 *  0.0000     4          
   169  Na    c      4.5078 *   -12.3964 *    -1.1269 *  0.0000     4          
   170  Na    c      9.0156 *    -7.8886 *    -5.6347 *  0.0000     4          
   171  Na    c     -4.5078 *     1.1269 *    12.3964 *  0.0000     4          
   172  Na    c      9.0156 *     7.8886 *     5.6347 *  0.0000     4          
   173  Cl    c      6.7617 *   -10.1425 *    -5.6347 *  0.0000     4          
   174  Na    c      6.7617 *    10.1425 *     5.6347 *  0.0000     4          
   175  O     c      0.0000       5.6347 *   -12.3964 *  0.0000     2          
   176  O     c      4.5078 *   -12.3964 *    -3.3808 *  0.0000     4          
   177  Na    c      0.0000       5.6347 *    12.3964 *  0.0000     2          
   178  Na    c      0.0000     -12.3964 *    -5.6347 *  0.0000     2          
   179  Na    c      4.5078 *   -12.3964 *     3.3808 *  0.0000     4          
   180  Na    c      4.5078 *    12.3964 *    -3.3808 *  0.0000     4          
   181  O     c      4.5078 *    10.1425 *    -7.8886 *  0.0000     4          
   182  O     c      9.0156 *     1.1269 *    10.1425 *  0.0000     4          
   183  O     c     13.5234 *     1.1269 *     1.1269    0.0000     2          
   184  Na    c      4.5078 *    10.1425 *     7.8886 *  0.0000     4          
   185  Na    c      4.5078 *    -7.8886 *   -10.1425 *  0.0000     4          
   186  Na    c      9.0156 *     1.1269 *   -10.1425 *  0.0000     4          
   187  Na    c      9.0156 *    10.1425 *    -1.1269 *  0.0000     4          
   188  Na    c     13.5234 *     1.1269 *    -1.1269 *  0.0000     4          
   189  Cl    c     11.2695 *    -5.6347 *    -5.6347    0.0000     2          
   190  Na    c     11.2695 *     5.6347 *     5.6347    0.0000     2          
   191  Cl    c      2.2539 *    12.3964 *    -5.6347 *  0.0000     4          
   192  Cl    c     11.2695 *    -1.1269 *     7.8886 *  0.0000     4          
   193  Na    c      2.2539 *     5.6347 *   -12.3964 *  0.0000     4          
   194  Na    c     11.2695 *     1.1269 *    -7.8886 *  0.0000     4          
   195  O     c      9.0156 *    10.1425 *    -3.3808 *  0.0000     4          
   196  O     c     13.5234 *     1.1269 *    -3.3808 *  0.0000     4          
   197  Na    c      9.0156 *    10.1425 *     3.3808 *  0.0000     4          
   198  Na    c      9.0156 *    -3.3808 *   -10.1425 *  0.0000     4          
   199  Na    c     13.5234 *     1.1269 *     3.3808 *  0.0000     4          
   200  Na    c     13.5234 *    -3.3808 *    -1.1269 *  0.0000     4          
   201  Cl    c      6.7617 *    12.3964 *    -1.1269 *  0.0000     4          
   202  Cl    c     11.2695 *     3.3808 *     7.8886 *  0.0000     4          
   203  Na    c      6.7617 *   -12.3964 *     1.1269 *  0.0000     4          
   204  Na    c     11.2695 *    -3.3808 *    -7.8886 *  0.0000     4          
   205  O     c      4.5078 *   -12.3964 *     5.6347 *  0.0000     4          
   206  Na    c      4.5078 *   -12.3964 *    -5.6347 *  0.0000     4          
   207  Na    c      4.5078 *    12.3964 *     5.6347 *  0.0000     4          
   208  O     c      0.0000      10.1425 *    10.1425    0.0000     1          
   209  O     c      9.0156 *    -7.8886 *    -7.8886    0.0000     2          
   210  O     c     13.5234 *    -3.3808 *    -3.3808    0.0000     2          
   211  Na    c      0.0000      10.1425 *   -10.1425 *  0.0000     2          
   212  Na    c      9.0156 *    -7.8886 *     7.8886 *  0.0000     4          
   213  Na    c     13.5234 *    -3.3808 *     3.3808 *  0.0000     4          
   214  Cl    c      6.7617 *    12.3964 *     3.3808 *  0.0000     4          
   215  Na    c      6.7617 *   -12.3964 *    -3.3808 *  0.0000     4          
   216  Cl    c      2.2539 *   -10.1425 *   -10.1425    0.0000     2          
   217  Cl    c      6.7617 *     7.8886 *   -10.1425 *  0.0000     4          
   218  Na    c      2.2539 *    10.1425 *    10.1425    0.0000     2          
   219  Na    c      6.7617 *    10.1425 *    -7.8886 *  0.0000     4          
   220  O     c      0.0000       1.1269 *    14.6503 *  0.0000     2          
   221  Na    c      0.0000       1.1269 *   -14.6503 *  0.0000     2          
   222  Na    c      0.0000      14.6503 *    -1.1269 *  0.0000     2          
   223  O     c      0.0000      -7.8886 *   -12.3964 *  0.0000     2          
   224  O     c      9.0156 *     5.6347 *    10.1425 *  0.0000     4          
   225  O     c     13.5234 *     1.1269 *     5.6347 *  0.0000     4          
   226  Na    c      0.0000      -7.8886 *    12.3964 *  0.0000     2          
   227  Na    c      0.0000     -12.3964 *     7.8886 *  0.0000     2          
   228  Na    c      9.0156 *     5.6347 *   -10.1425 *  0.0000     4          
   229  Na    c      9.0156 *    10.1425 *    -5.6347 *  0.0000     4          
   230  Na    c     13.5234 *     1.1269 *    -5.6347 *  0.0000     4          
   231  Na    c     13.5234 *     5.6347 *    -1.1269 *  0.0000     4          
   232  Cl    c      2.2539 *    -1.1269 *   -14.6503 *  0.0000     4          
   233  Cl    c     11.2695 *     7.8886 *    -5.6347 *  0.0000     4          
   234  Na    c      2.2539 *     1.1269 *    14.6503 *  0.0000     4          
   235  Na    c     11.2695 *     5.6347 *    -7.8886 *  0.0000     4          
   236  Cl    c      2.2539 *     7.8886 *    12.3964 *  0.0000     4          
   237  Na    c      2.2539 *    -7.8886 *   -12.3964 *  0.0000     4          
   238  O     c      0.0000      14.6503 *    -3.3808 *  0.0000     2          
   239  Na    c      0.0000      14.6503 *     3.3808 *  0.0000     2          
   240  Na    c      0.0000      -3.3808 *   -14.6503 *  0.0000     2          
   241  O     c      4.5078 *    10.1425 *    10.1425    0.0000     2          
   242  O     c     13.5234 *     5.6347 *    -3.3808 *  0.0000     4          
   243  Na    c      4.5078 *    10.1425 *   -10.1425 *  0.0000     4          
   244  Na    c     13.5234 *     5.6347 *     3.3808 *  0.0000     4          
   245  Na    c     13.5234 *    -3.3808 *    -5.6347 *  0.0000     4          
   246  Cl    c      2.2539 *     3.3808 *   -14.6503 *  0.0000     4          
   247  Cl    c      6.7617 *    12.3964 *    -5.6347 *  0.0000     4          
   248  Cl    c     11.2695 *    -1.1269 *   -10.1425 *  0.0000     4          
   249  Na    c      2.2539 *    14.6503 *    -3.3808 *  0.0000     4          
   250  Na    c      6.7617 *   -12.3964 *     5.6347 *  0.0000     4          
   251  Na    c     11.2695 *     1.1269 *    10.1425 *  0.0000     4          
   252  O     c      4.5078 *    14.6503 *     1.1269 *  0.0000     4          
   253  Na    c      4.5078 *    14.6503 *    -1.1269 *  0.0000     4          
   254  Na    c     -4.5078 *     1.1269 *   -14.6503 *  0.0000     4          
   255  O     c      4.5078 *    -7.8886 *   -12.3964 *  0.0000     4          
   256  O     c      9.0156 *     1.1269 *   -12.3964 *  0.0000     4          
   257  Na    c      4.5078 *    -7.8886 *    12.3964 *  0.0000     4          
   258  Na    c      4.5078 *   -12.3964 *     7.8886 *  0.0000     4          
   259  Na    c      9.0156 *     1.1269 *    12.3964 *  0.0000     4          
   260  Na    c      9.0156 *   -12.3964 *    -1.1269 *  0.0000     4          
   261  Cl    c     11.2695 *     3.3808 *   -10.1425 *  0.0000     4          
   262  Na    c     11.2695 *    10.1425 *    -3.3808 *  0.0000     4          
   263  O     c      0.0000       5.6347 *    14.6503 *  0.0000     2          
   264  O     c      4.5078 *    14.6503 *    -3.3808 *  0.0000     4          
   265  Na    c      0.0000       5.6347 *   -14.6503 *  0.0000     2          
   266  Na    c      0.0000      14.6503 *    -5.6347 *  0.0000     2          
   267  Na    c      4.5078 *    14.6503 *     3.3808 *  0.0000     4          
   268  Na    c      4.5078 *   -14.6503 *    -3.3808 *  0.0000     4          
   269  O     c      9.0156 *    -3.3808 *   -12.3964 *  0.0000     4          
   270  O     c      9.0156 *    -7.8886 *    10.1425 *  0.0000     4          
   271  O     c     13.5234 *     5.6347 *     5.6347    0.0000     2          
   272  Na    c      9.0156 *    -3.3808 *    12.3964 *  0.0000     4          
   273  Na    c      9.0156 *    -7.8886 *   -10.1425 *  0.0000     4          
   274  Na    c      9.0156 *   -12.3964 *     3.3808 *  0.0000     4          
   275  Na    c     13.5234 *     5.6347 *    -5.6347 *  0.0000     4          
   276  Na    c      9.0156 *     7.8886 *    10.1425 *  0.0000     4          
   277  O     c     13.5234 *     1.1269 *    -7.8886 *  0.0000     4          
   278  Na    c     13.5234 *     1.1269 *     7.8886 *  0.0000     4          
   279  Na    c     13.5234 *    -7.8886 *    -1.1269 *  0.0000     4          
   280  Cl    c    -15.7773 *    -1.1269 *    -1.1269    0.0000     2          
   281  Na    c    -15.7773 *     1.1269 *     1.1269    0.0000     2          
   282  Cl    c      2.2539 *    -5.6347 *   -14.6503 *  0.0000     4          
   283  Na    c      2.2539 *     5.6347 *    14.6503 *  0.0000     4          
   284  Cl    c      6.7617 *   -10.1425 *   -10.1425    0.0000     2          
   285  Cl    c     11.2695 *     7.8886 *     7.8886    0.0000     2          
   286  Na    c      6.7617 *    10.1425 *    10.1425    0.0000     2          
   287  Na    c     11.2695 *    -7.8886 *    -7.8886    0.0000     2          
   288  O     c      0.0000      10.1425 *   -12.3964 *  0.0000     2          
   289  O     c     13.5234 *    -3.3808 *    -7.8886 *  0.0000     4          
   290  Na    c      0.0000      10.1425 *    12.3964 *  0.0000     2          
   291  Na    c      0.0000     -12.3964 *   -10.1425 *  0.0000     2          
   292  Na    c     13.5234 *    -3.3808 *     7.8886 *  0.0000     4          
   293  Na    c     13.5234 *     3.3808 *    -7.8886 *  0.0000     4          
   294  Cl    c      2.2539 *    12.3964 *   -10.1425 *  0.0000     4          
   295  Cl    c      6.7617 *    -1.1269 *   -14.6503 *  0.0000     4          
   296  Cl    c      6.7617 *     7.8886 *    12.3964 *  0.0000     4          
   297  Cl    c     11.2695 *    -5.6347 *   -10.1425 *  0.0000     4          
   298  Cl    c    -15.7773 *    -1.1269 *     3.3808 *  0.0000     4          
   299  Na    c      2.2539 *    10.1425 *   -12.3964 *  0.0000     4          
   300  Na    c      6.7617 *     1.1269 *    14.6503 *  0.0000     4          
   301  Na    c      6.7617 *    -7.8886 *   -12.3964 *  0.0000     4          
   302  Na    c     11.2695 *     5.6347 *    10.1425 *  0.0000     4          
   303  Na    c    -15.7773 *     1.1269 *    -3.3808 *  0.0000     4          
   304  O     c      4.5078 *     5.6347 *    14.6503 *  0.0000     4          
   305  O     c      9.0156 *     5.6347 *   -12.3964 *  0.0000     4          
   306  Na    c      4.5078 *     5.6347 *   -14.6503 *  0.0000     4          
   307  Na    c      4.5078 *    14.6503 *    -5.6347 *  0.0000     4          
   308  Na    c      9.0156 *     5.6347 *    12.3964 *  0.0000     4          
   309  Na    c      9.0156 *   -12.3964 *    -5.6347 *  0.0000     4          
   310  Cl    c      6.7617 *   -14.6503 *     3.3808 *  0.0000     4          
   311  Cl    c    -15.7773 *     3.3808 *     3.3808    0.0000     2          
   312  Na    c      6.7617 *    14.6503 *    -3.3808 *  0.0000     4          
   313  Na    c    -15.7773 *    -3.3808 *    -3.3808    0.0000     2          
   314  O     c      0.0000      14.6503 *    -7.8886 *  0.0000     2          
   315  O     c      4.5078 *    10.1425 *   -12.3964 *  0.0000     4          
   316  O     c     13.5234 *     5.6347 *    -7.8886 *  0.0000     4          
   317  Na    c      0.0000      14.6503 *     7.8886 *  0.0000     2          
   318  Na    c      0.0000      -7.8886 *   -14.6503 *  0.0000     2          
   319  Na    c      4.5078 *    10.1425 *    12.3964 *  0.0000     4          
   320  Na    c      4.5078 *   -12.3964 *   -10.1425 *  0.0000     4          
   321  Na    c     13.5234 *     5.6347 *     7.8886 *  0.0000     4          
   322  Na    c     13.5234 *    -5.6347 *    -7.8886 *  0.0000     4          
   323  Cl    c      2.2539 *     7.8886 *   -14.6503 *  0.0000     4          
   324  Cl    c     11.2695 *    -1.1269 *    12.3964 *  0.0000     4          
   325  Cl    c    -15.7773 *    -1.1269 *    -5.6347 *  0.0000     4          
   326  Na    c      2.2539 *    14.6503 *    -7.8886 *  0.0000     4          
   327  Na    c     11.2695 *     1.1269 *   -12.3964 *  0.0000     4          
   328  Na    c    -15.7773 *     1.1269 *     5.6347 *  0.0000     4          
   329  O     c      0.0000       1.1269 *   -16.9042 *  0.0000     2          
   330  O     c     13.5234 *    10.1425 *     1.1269 *  0.0000     4          
   331  Na    c      0.0000       1.1269 *    16.9042 *  0.0000     2          
   332  Na    c      0.0000     -16.9042 *    -1.1269 *  0.0000     2          
   333  Na    c     13.5234 *    10.1425 *    -1.1269 *  0.0000     4          
   334  Na    c     13.5234 *   -10.1425 *     1.1269 *  0.0000     4          
   335  O     c      9.0156 *    10.1425 *    10.1425    0.0000     2          
   336  Na    c      9.0156 *    10.1425 *   -10.1425 *  0.0000     4          
   337  O     s      0.0000       1.1269 *     1.1269    0.0000     1          
   338  Cl    s      2.2539 *    -1.1269 *    -1.1269    0.0000     2          
   339  O     s      0.0000       1.1269 *    -3.3808 *  0.0000     2          
   340  Cl    s      2.2539 *    -1.1269 *     3.3808 *  0.0000     4          
   341  O     s     -4.5078 *     1.1269 *     1.1269    0.0000     2          
   342  O     s      0.0000      -3.3808 *    -3.3808    0.0000     1          
   343  Cl    s      2.2539 *     3.3808 *     3.3808    0.0000     2          
   344  O     s      0.0000       1.1269 *     5.6347 *  0.0000     2          
   345  O     s     -4.5078 *     1.1269 *    -3.3808 *  0.0000     4          
   346  Cl    s      2.2539 *    -1.1269 *    -5.6347 *  0.0000     4          
   347  O     s      0.0000       5.6347 *    -3.3808 *  0.0000     2          
   348  O     s      4.5078 *    -3.3808 *    -3.3808    0.0000     2          
   349  Cl    s      2.2539 *     3.3808 *    -5.6347 *  0.0000     4          
   350  Cl    s      6.7617 *    -1.1269 *    -1.1269    0.0000     2          
   351  O     s     -4.5078 *     1.1269 *     5.6347 *  0.0000     4          
   352  Cl    s      6.7617 *    -1.1269 *     3.3808 *  0.0000     4          
   353  O     s      0.0000       5.6347 *     5.6347    0.0000     1          
   354  O     s     -4.5078 *    -3.3808 *     5.6347 *  0.0000     4          
   355  O     s      0.0000       1.1269 *    -7.8886 *  0.0000     2          
   356  Cl    s      2.2539 *    -5.6347 *    -5.6347    0.0000     2          
   357  Cl    s      2.2539 *    -1.1269 *     7.8886 *  0.0000     4          
   358  Cl    s      6.7617 *     3.3808 *     3.3808    0.0000     2          
   359  O     s      0.0000      -3.3808 *    -7.8886 *  0.0000     2          
   360  Cl    s      2.2539 *     3.3808 *     7.8886 *  0.0000     4          
   361  Cl    s      6.7617 *    -1.1269 *    -5.6347 *  0.0000     4          
   362  O     s      4.5078 *     5.6347 *     5.6347    0.0000     2          
   363  O     s      4.5078 *    -7.8886 *     1.1269 *  0.0000     4          
   364  O     s      9.0156 *     1.1269 *     1.1269    0.0000     2          
   365  Cl    s      6.7617 *     3.3808 *    -5.6347 *  0.0000     4          
   366  O     s      0.0000       5.6347 *    -7.8886 *  0.0000     2          
   367  O     s      9.0156 *    -3.3808 *     1.1269 *  0.0000     4          
   368  O     s     -4.5078 *    -3.3808 *    -7.8886 *  0.0000     4          
   369  Cl    s      2.2539 *     7.8886 *    -5.6347 *  0.0000     4          
   370  O     s      0.0000      10.1425 *     1.1269 *  0.0000     2          
   371  O     s      9.0156 *    -3.3808 *    -3.3808    0.0000     2          
   372  Cl    s      6.7617 *    -5.6347 *    -5.6347    0.0000     2          
   373  Cl    s      2.2539 *    -1.1269 *   -10.1425 *  0.0000     4          
   374  Cl    s      6.7617 *    -1.1269 *     7.8886 *  0.0000     4          
   375  O     s      4.5078 *     5.6347 *    -7.8886 *  0.0000     4          
   376  O     s      9.0156 *     1.1269 *     5.6347 *  0.0000     4          
   377  O     s      0.0000      10.1425 *    -3.3808 *  0.0000     2          
   378  Cl    s      2.2539 *     3.3808 *   -10.1425 *  0.0000     4          
   379  Cl    s      6.7617 *     7.8886 *     3.3808 *  0.0000     4          
   380  O     s      9.0156 *    -3.3808 *     5.6347 *  0.0000     4          
   381  O     s     -4.5078 *    10.1425 *     1.1269 *  0.0000     4          
   382  O     s      0.0000      -7.8886 *    -7.8886    0.0000     1          
   383  Cl    s     11.2695 *    -1.1269 *    -1.1269    0.0000     2          
   384  Cl    s      2.2539 *     7.8886 *     7.8886    0.0000     2          
   385  O     s      0.0000       5.6347 *    10.1425 *  0.0000     2          
   386  O     s     -4.5078 *    10.1425 *    -3.3808 *  0.0000     4          
   387  Cl    s     11.2695 *    -1.1269 *     3.3808 *  0.0000     4          
   388  Cl    s      2.2539 *    -5.6347 *   -10.1425 *  0.0000     4          
   389  Cl    s      6.7617 *     7.8886 *    -5.6347 *  0.0000     4          
   390  O     s      9.0156 *     5.6347 *     5.6347    0.0000     2          
   391  O     s      9.0156 *    -7.8886 *     1.1269 *  0.0000     4          
   392  O     s      4.5078 *    -7.8886 *    -7.8886    0.0000     2          
   393  Cl    s     11.2695 *     3.3808 *     3.3808    0.0000     2          
   394  Cl    s      6.7617 *   -10.1425 *    -1.1269 *  0.0000     4          
   395  O     s      0.0000       1.1269 *   -12.3964 *  0.0000     2          
   396  O     s      9.0156 *    -7.8886 *    -3.3808 *  0.0000     4          
   397  O     s     -4.5078 *    10.1425 *     5.6347 *  0.0000     4          
   398  Cl    s     11.2695 *    -1.1269 *    -5.6347 *  0.0000     4          
   399  Cl    s      2.2539 *    -1.1269 *    12.3964 *  0.0000     4          
   400  Cl    s      6.7617 *   -10.1425 *     3.3808 *  0.0000     4          
   401  O     s      0.0000      -3.3808 *   -12.3964 *  0.0000     2          
   402  O     s      0.0000      10.1425 *    -7.8886 *  0.0000     2          
   403  Cl    s     11.2695 *     3.3808 *    -5.6347 *  0.0000     4          
   404  Cl    s      2.2539 *     3.3808 *    12.3964 *  0.0000     4          
   405  Cl    s      2.2539 *     7.8886 *   -10.1425 *  0.0000     4          
   406  Cl    s      6.7617 *     7.8886 *     7.8886    0.0000     2          
   407  O     s      4.5078 *   -12.3964 *     1.1269 *  0.0000     4          
   408  O     s      9.0156 *    -7.8886 *     5.6347 *  0.0000     4          
   409  Cl    s      6.7617 *   -10.1425 *    -5.6347 *  0.0000     4          
   410  O     s      0.0000       5.6347 *   -12.3964 *  0.0000     2          
   411  O     s      4.5078 *   -12.3964 *    -3.3808 *  0.0000     4          
   412  O     s      4.5078 *    10.1425 *    -7.8886 *  0.0000     4          
   413  O     s      9.0156 *     1.1269 *    10.1425 *  0.0000     4          
   414  O     s     13.5234 *     1.1269 *     1.1269    0.0000     2          
   415  Cl    s     11.2695 *    -5.6347 *    -5.6347    0.0000     2          
   416  Cl    s      2.2539 *    12.3964 *    -5.6347 *  0.0000     4          
   417  Cl    s     11.2695 *    -1.1269 *     7.8886 *  0.0000     4          
   418  O     s      9.0156 *    10.1425 *    -3.3808 *  0.0000     4          
   419  O     s     13.5234 *     1.1269 *    -3.3808 *  0.0000     4          
   420  Cl    s      6.7617 *    12.3964 *    -1.1269 *  0.0000     4          
   421  Cl    s     11.2695 *     3.3808 *     7.8886 *  0.0000     4          
   422  O     s      4.5078 *   -12.3964 *     5.6347 *  0.0000     4          
   423  O     s      0.0000      10.1425 *    10.1425    0.0000     1          
   424  O     s      9.0156 *    -7.8886 *    -7.8886    0.0000     2          
   425  O     s     13.5234 *    -3.3808 *    -3.3808    0.0000     2          
   426  Cl    s      6.7617 *    12.3964 *     3.3808 *  0.0000     4          
   427  Cl    s      2.2539 *   -10.1425 *   -10.1425    0.0000     2          
   428  Cl    s      6.7617 *     7.8886 *   -10.1425 *  0.0000     4          
   429  O     s      0.0000       1.1269 *    14.6503 *  0.0000     2          
   430  O     s      0.0000      -7.8886 *   -12.3964 *  0.0000     2          
   431  O     s      9.0156 *     5.6347 *    10.1425 *  0.0000     4          
   432  O     s     13.5234 *     1.1269 *     5.6347 *  0.0000     4          
   433  Cl    s      2.2539 *    -1.1269 *   -14.6503 *  0.0000     4          
   434  Cl    s     11.2695 *     7.8886 *    -5.6347 *  0.0000     4          
   435  Cl    s      2.2539 *     7.8886 *    12.3964 *  0.0000     4          
   436  O     s      0.0000      14.6503 *    -3.3808 *  0.0000     2          
   437  O     s      4.5078 *    10.1425 *    10.1425    0.0000     2          
   438  O     s     13.5234 *     5.6347 *    -3.3808 *  0.0000     4          
   439  Cl    s      2.2539 *     3.3808 *   -14.6503 *  0.0000     4          
   440  Cl    s      6.7617 *    12.3964 *    -5.6347 *  0.0000     4          
   441  Cl    s     11.2695 *    -1.1269 *   -10.1425 *  0.0000     4          
   442  O     s      4.5078 *    14.6503 *     1.1269 *  0.0000     4          
   443  O     s      4.5078 *    -7.8886 *   -12.3964 *  0.0000     4          
   444  O     s      9.0156 *     1.1269 *   -12.3964 *  0.0000     4          
   445  Cl    s     11.2695 *     3.3808 *   -10.1425 *  0.0000     4          
   446  O     s      0.0000       5.6347 *    14.6503 *  0.0000     2          
   447  O     s      4.5078 *    14.6503 *    -3.3808 *  0.0000     4          
   448  O     s      9.0156 *    -3.3808 *   -12.3964 *  0.0000     4          
   449  O     s      9.0156 *    -7.8886 *    10.1425 *  0.0000     4          
   450  O     s     13.5234 *     5.6347 *     5.6347    0.0000     2          
   451  O     s     13.5234 *     1.1269 *    -7.8886 *  0.0000     4          
   452  Cl    s    -15.7773 *    -1.1269 *    -1.1269    0.0000     2          
   453  Cl    s      2.2539 *    -5.6347 *   -14.6503 *  0.0000     4          
   454  Cl    s      6.7617 *   -10.1425 *   -10.1425    0.0000     2          
   455  Cl    s     11.2695 *     7.8886 *     7.8886    0.0000     2          
   456  O     s      0.0000      10.1425 *   -12.3964 *  0.0000     2          
   457  O     s     13.5234 *    -3.3808 *    -7.8886 *  0.0000     4          
   458  Cl    s      2.2539 *    12.3964 *   -10.1425 *  0.0000     4          
   459  Cl    s      6.7617 *    -1.1269 *   -14.6503 *  0.0000     4          
   460  Cl    s      6.7617 *     7.8886 *    12.3964 *  0.0000     4          
   461  Cl    s     11.2695 *    -5.6347 *   -10.1425 *  0.0000     4          
   462  Cl    s    -15.7773 *    -1.1269 *     3.3808 *  0.0000     4          
   463  O     s      4.5078 *     5.6347 *    14.6503 *  0.0000     4          
   464  O     s      9.0156 *     5.6347 *   -12.3964 *  0.0000     4          
   465  Cl    s      6.7617 *   -14.6503 *     3.3808 *  0.0000     4          
   466  Cl    s    -15.7773 *     3.3808 *     3.3808    0.0000     2          
   467  O     s      0.0000      14.6503 *    -7.8886 *  0.0000     2          
   468  O     s      4.5078 *    10.1425 *   -12.3964 *  0.0000     4          
   469  O     s     13.5234 *     5.6347 *    -7.8886 *  0.0000     4          
   470  Cl    s      2.2539 *     7.8886 *   -14.6503 *  0.0000     4          
   471  Cl    s     11.2695 *    -1.1269 *    12.3964 *  0.0000     4          
   472  Cl    s    -15.7773 *    -1.1269 *    -5.6347 *  0.0000     4          
   473  O     s      0.0000       1.1269 *   -16.9042 *  0.0000     2          
   474  O     s     13.5234 *    10.1425 *     1.1269 *  0.0000     4          
   475  O     s      9.0156 *    10.1425 *    10.1425    0.0000     2          
--------------------------------------------------------------------------------


  Constraints on symmetry reduced coordinates :

--------------------------------------------------------------------------------
  Constraint no.      Unconstrained     Constrained    Coefficient    
                         Variable         Variable
--------------------------------------------------------------------------------
           1                 2 y             2 z         1.00000
           2                 3 y             3 z         1.00000
           3                 4 y             4 z         1.00000
           4                10 y            10 z         1.00000
           5                12 y            12 z         1.00000
           6                14 y            14 z         1.00000
           7                15 y            15 z         1.00000
           8                27 y            27 z         1.00000
           9                31 y            31 z         1.00000
          10                32 y            32 z         1.00000
          11                38 y            38 z         1.00000
          12                46 y            46 z         1.00000
          13                47 y            47 z         1.00000
          14                50 y            50 z         1.00000
          15                51 y            51 z         1.00000
          16                59 y            59 z         1.00000
          17                61 y            61 z         1.00000
          18                82 y            82 z         1.00000
          19                84 y            84 z         1.00000
          20                85 y            85 z         1.00000
          21               109 y           109 z         1.00000
          22               111 y           111 z         1.00000
          23               112 y           112 z         1.00000
          24               113 y           113 z         1.00000
          25               114 y           114 z         1.00000
          26               127 y           127 z         1.00000
          27               132 y           132 z         1.00000
          28               134 y           134 z         1.00000
          29               135 y           135 z         1.00000
          30               164 y           164 z         1.00000
          31               166 y           166 z         1.00000
          32               183 y           183 z         1.00000
          33               189 y           189 z         1.00000
          34               190 y           190 z         1.00000
          35               208 y           208 z         1.00000
          36               209 y           209 z         1.00000
          37               210 y           210 z         1.00000
          38               216 y           216 z         1.00000
          39               218 y           218 z         1.00000
          40               241 y           241 z         1.00000
          41               271 y           271 z         1.00000
          42               280 y           280 z         1.00000
          43               281 y           281 z         1.00000
          44               284 y           284 z         1.00000
          45               285 y           285 z         1.00000
          46               286 y           286 z         1.00000
          47               287 y           287 z         1.00000
          48               311 y           311 z         1.00000
          49               313 y           313 z         1.00000
          50               335 y           335 z         1.00000
          51               337 y           337 z         1.00000
          52               338 y           338 z         1.00000
          53               341 y           341 z         1.00000
          54               342 y           342 z         1.00000
          55               343 y           343 z         1.00000
          56               348 y           348 z         1.00000
          57               350 y           350 z         1.00000
          58               353 y           353 z         1.00000
          59               356 y           356 z         1.00000
          60               358 y           358 z         1.00000
          61               362 y           362 z         1.00000
          62               364 y           364 z         1.00000
          63               371 y           371 z         1.00000
          64               372 y           372 z         1.00000
          65               382 y           382 z         1.00000
          66               383 y           383 z         1.00000
          67               384 y           384 z         1.00000
          68               390 y           390 z         1.00000
          69               392 y           392 z         1.00000
          70               393 y           393 z         1.00000
          71               406 y           406 z         1.00000
          72               414 y           414 z         1.00000
          73               415 y           415 z         1.00000
          74               423 y           423 z         1.00000
          75               424 y           424 z         1.00000
          76               425 y           425 z         1.00000
          77               427 y           427 z         1.00000
          78               437 y           437 z         1.00000
          79               450 y           450 z         1.00000
          80               452 y           452 z         1.00000
          81               454 y           454 z         1.00000
          82               455 y           455 z         1.00000
          83               466 y           466 z         1.00000
          84               475 y           475 z         1.00000
--------------------------------------------------------------------------------


  Components of defect energy : 

--------------------------------------------------------------------------------
  Region 1 - region 1                   =     10.89711849 eV
  Region 1 - region 2a (unrelaxed)      =     -0.12601259 eV
  Region 1 - 2a (relaxed - correction)  =     -0.12746815 eV
  Region 1 (Total)                      =     10.64363775 eV
  Region 2a                             =      0.06372089 eV
  Region 2b                             =     -0.34365277 eV
--------------------------------------------------------------------------------
  Total defect energy                   =     10.36370586 eV
--------------------------------------------------------------------------------

  Largest displacement in region 2 =   0.0106 Angstroms


  Number of variables =     1244

  Maximum number of calculations  =        1000
  Maximum Hessian update interval =          10
  Maximum step size               =   1.0000000
  Maximum parameter tolerance     =   0.0000100
  Maximum function  tolerance     =   0.0000100
  Maximum gradient  tolerance     =   0.0010000

  Symmetry adapted optimisation

  Symmetry to be used for second derivatives

  Newton-Raphson optimiser to be used

  BFGS hessian update to be used

  Lower half triangular hessian to be used

  Start of defect optimisation :

  Cycle:      0 Defect Energy:  10.363706  Gnorm:     0.024049  CPU:    9.917
  ** Hessian calculated **
  Cycle:      1 Defect Energy:   8.511099  Gnorm:     0.012773  CPU:   42.915
  Cycle:      2 Defect Energy:   8.117683  Gnorm:     0.013365  CPU:   54.958
  Cycle:      3 Defect Energy:   7.756697  Gnorm:     0.010194  CPU:   68.408
  Cycle:      4 Defect Energy:   7.333565  Gnorm:     0.010912  CPU:   83.936
  Cycle:      5 Defect Energy:   6.839301  Gnorm:     0.007039  CPU:   97.630
  Cycle:      6 Defect Energy:   6.319188  Gnorm:     0.008073  CPU:  109.619
  Cycle:      7 Defect Energy:   5.843745  Gnorm:     0.009235  CPU:  122.510
  Cycle:      8 Defect Energy:   5.442772  Gnorm:     0.005875  CPU:  135.476
  Cycle:      9 Defect Energy:   5.229519  Gnorm:     0.006451  CPU:  144.830
  Cycle:     10 Defect Energy:   5.041453  Gnorm:     0.004105  CPU:  158.826
  ** Hessian calculated **
  Cycle:     11 Defect Energy:   4.829002  Gnorm:     0.003526  CPU:  192.343
  Cycle:     12 Defect Energy:   4.672831  Gnorm:     0.002493  CPU:  204.485
  Cycle:     13 Defect Energy:   4.618417  Gnorm:     0.002116  CPU:  206.770
  Cycle:     14 Defect Energy:   4.543538  Gnorm:     0.001188  CPU:  209.951
  Cycle:     15 Defect Energy:   4.525839  Gnorm:     0.000772  CPU:  213.377
  ** Hessian calculated **
  Cycle:     16 Defect Energy:   4.516802  Gnorm:     0.000543  CPU:  234.875
  Cycle:     17 Defect Energy:   4.511912  Gnorm:     0.000382  CPU:  238.260
  Cycle:     18 Defect Energy:   4.508989  Gnorm:     0.000259  CPU:  241.263
  Cycle:     19 Defect Energy:   4.506857  Gnorm:     0.000163  CPU:  244.358
  Cycle:     20 Defect Energy:   4.505028  Gnorm:     0.000099  CPU:  247.247
  Cycle:     21 Defect Energy:   4.503431  Gnorm:     0.000091  CPU:  250.597
  Cycle:     22 Defect Energy:   4.503052  Gnorm:     0.000069  CPU:  254.057
  ** Hessian calculated **
  Cycle:     23 Defect Energy:   4.503013  Gnorm:     0.000039  CPU:  274.602
  Cycle:     24 Defect Energy:   4.502979  Gnorm:     0.000031  CPU:  277.096
  Cycle:     25 Defect Energy:   4.502931  Gnorm:     0.000031  CPU:  280.637
  Cycle:     26 Defect Energy:   4.502876  Gnorm:     0.000036  CPU:  284.342
  Cycle:     27 Defect Energy:   4.502796  Gnorm:     0.000044  CPU:  287.946
  Cycle:     28 Defect Energy:   4.502705  Gnorm:     0.000057  CPU:  291.237
  Cycle:     29 Defect Energy:   4.502595  Gnorm:     0.000070  CPU:  294.599
  Cycle:     30 Defect Energy:   4.502498  Gnorm:     0.000078  CPU:  297.684
  Cycle:     31 Defect Energy:   4.502377  Gnorm:     0.000092  CPU:  300.594
  Cycle:     32 Defect Energy:   4.502256  Gnorm:     0.000100  CPU:  303.563
  ** Hessian calculated **
  Cycle:     33 Defect Energy:   4.502213  Gnorm:     0.000088  CPU:  324.036
  Cycle:     34 Defect Energy:   4.502164  Gnorm:     0.000084  CPU:  326.666
  Cycle:     35 Defect Energy:   4.502107  Gnorm:     0.000081  CPU:  329.040
  Cycle:     36 Defect Energy:   4.502040  Gnorm:     0.000080  CPU:  331.726
  Cycle:     37 Defect Energy:   4.501971  Gnorm:     0.000079  CPU:  334.792
  Cycle:     38 Defect Energy:   4.501912  Gnorm:     0.000081  CPU:  337.776
  Cycle:     39 Defect Energy:   4.501825  Gnorm:     0.000085  CPU:  340.659
  Cycle:     40 Defect Energy:   4.501709  Gnorm:     0.000092  CPU:  343.499
  Cycle:     41 Defect Energy:   4.501512  Gnorm:     0.000106  CPU:  346.490
  Cycle:     42 Defect Energy:   4.501209  Gnorm:     0.000129  CPU:  349.568
  ** Hessian calculated **
  Cycle:     43 Defect Energy:   4.501023  Gnorm:     0.000117  CPU:  369.560
  Cycle:     44 Defect Energy:   4.500786  Gnorm:     0.000113  CPU:  372.603
  Cycle:     45 Defect Energy:   4.500454  Gnorm:     0.000108  CPU:  379.140
  Cycle:     46 Defect Energy:   4.500029  Gnorm:     0.000107  CPU:  382.471
  Cycle:     47 Defect Energy:   4.499458  Gnorm:     0.000110  CPU:  385.611
  Cycle:     48 Defect Energy:   4.498725  Gnorm:     0.000126  CPU:  388.863
  Cycle:     49 Defect Energy:   4.497704  Gnorm:     0.000160  CPU:  392.053
  Cycle:     50 Defect Energy:   4.496286  Gnorm:     0.000211  CPU:  395.111
  Cycle:     51 Defect Energy:   4.494091  Gnorm:     0.000301  CPU:  397.993
  Cycle:     52 Defect Energy:   4.490830  Gnorm:     0.000429  CPU:  400.826
  ** Hessian calculated **
  Cycle:     53 Defect Energy:   4.488273  Gnorm:     0.000390  CPU:  426.352
  Cycle:     54 Defect Energy:   4.484885  Gnorm:     0.000372  CPU:  429.608
  Cycle:     55 Defect Energy:   4.480340  Gnorm:     0.000351  CPU:  432.820
  Cycle:     56 Defect Energy:   4.474295  Gnorm:     0.000340  CPU:  435.868
  Cycle:     57 Defect Energy:   4.466292  Gnorm:     0.000350  CPU:  438.878
  Cycle:     58 Defect Energy:   4.455542  Gnorm:     0.000415  CPU:  441.820
  Cycle:     59 Defect Energy:   4.440636  Gnorm:     0.000545  CPU:  444.554
  Cycle:     60 Defect Energy:   4.419754  Gnorm:     0.000775  CPU:  448.022
  Cycle:     61 Defect Energy:   4.392539  Gnorm:     0.001130  CPU:  451.496
  Cycle:     62 Defect Energy:   4.374531  Gnorm:     0.001355  CPU:  454.855
  ** Hessian calculated **
  Cycle:     63 Defect Energy:   4.349422  Gnorm:     0.001228  CPU:  478.975
  Cycle:     64 Defect Energy:   4.316941  Gnorm:     0.001176  CPU:  481.854
  Cycle:     65 Defect Energy:   4.274577  Gnorm:     0.001087  CPU:  485.349
  Cycle:     66 Defect Energy:   4.222840  Gnorm:     0.001056  CPU:  488.666
  Cycle:     67 Defect Energy:   4.170942  Gnorm:     0.001073  CPU:  492.025
  Cycle:     68 Defect Energy:   4.133090  Gnorm:     0.001149  CPU:  495.072
  Cycle:     69 Defect Energy:   4.099670  Gnorm:     0.001286  CPU:  498.300
  Cycle:     70 Defect Energy:   4.068729  Gnorm:     0.001380  CPU:  501.076
  Cycle:     71 Defect Energy:   4.039342  Gnorm:     0.001489  CPU:  504.268
  Cycle:     72 Defect Energy:   4.009154  Gnorm:     0.001588  CPU:  507.563
  ** Hessian calculated **
  Cycle:     73 Defect Energy:   3.938505  Gnorm:     0.001486  CPU:  530.257
  Cycle:     74 Defect Energy:   3.847161  Gnorm:     0.001286  CPU:  532.987
  Cycle:     75 Defect Energy:   3.787341  Gnorm:     0.000965  CPU:  535.742
  ** Hessian calculated **
  Cycle:     76 Defect Energy:   3.737753  Gnorm:     0.000795  CPU:  560.831
  ** Hessian calculated **
  Cycle:     77 Defect Energy:   3.684520  Gnorm:     0.001463  CPU:  582.913
  Cycle:     78 Defect Energy:   3.760888  Gnorm:     0.002191  CPU:  584.550
  Cycle:     79 Defect Energy:   3.643982  Gnorm:     0.001479  CPU:  586.262
  ** Hessian calculated **
  Cycle:     80 Defect Energy:   3.580188  Gnorm:     0.001046  CPU:  603.579
[...]
    395 y          2.253894      2.264714     0.010820    Cartesian    0.48
    395 z        -11.269468    -11.252005     0.017463    Cartesian   -0.15
    396 x         11.269468     11.258078    -0.011390    Cartesian   -0.10
    396 y         -6.761681     -6.751989     0.009692    Cartesian   -0.14
    396 z         -2.253894     -2.230938     0.022955    Cartesian   -1.02
    397 x         -2.253894     -2.264057    -0.010163    Cartesian    0.45
    397 y         11.269468     11.273225     0.003757    Cartesian    0.03
    397 z          6.761681      6.742023    -0.019658    Cartesian   -0.29
    398 x         13.523362     13.574804     0.051442    Cartesian    0.38
    398 y          0.000000     -0.034438    -0.034438    Cartesian    0.00
    398 z         -4.507787     -4.510556    -0.002769    Cartesian    0.06
    399 x          4.507787      4.504612    -0.003175    Cartesian   -0.07
    399 y          0.000000     -0.012604    -0.012604    Cartesian    0.00
    399 z         13.523362     13.511507    -0.011854    Cartesian   -0.09
    400 x          9.015574      9.024654     0.009079    Cartesian    0.10
    400 y         -9.015574     -9.055461    -0.039886    Cartesian    0.44
    400 z          4.507787      4.513220     0.005433    Cartesian    0.12
    401 x          2.253894      2.253894     0.000000    Cartesian    0.00
    401 y         -2.253894     -2.233791     0.020102    Cartesian   -0.89
    401 z        -11.269468    -11.243232     0.026236    Cartesian   -0.23
    402 x          2.253894      2.253894     0.000000    Cartesian    0.00
    402 y         11.269468     11.254973    -0.014495    Cartesian   -0.13
    402 z         -6.761681     -6.743824     0.017857    Cartesian   -0.26
    403 x         13.523362     13.577392     0.054031    Cartesian    0.40
    403 y          4.507787      4.488514    -0.019273    Cartesian   -0.43
    403 z         -4.507787     -4.501810     0.005977    Cartesian   -0.13
    404 x          4.507787      4.541969     0.034182    Cartesian    0.76
    404 y          4.507787      4.489212    -0.018575    Cartesian   -0.41
    404 z         13.523362     13.561429     0.038068    Cartesian    0.28
    405 x          4.507787      4.513025     0.005238    Cartesian    0.12
    405 y          9.015574      9.059008     0.043434    Cartesian    0.48
    405 z         -9.015574     -9.006563     0.009012    Cartesian   -0.10
    406 x          9.015574      9.024877     0.009302    Cartesian    0.10
    406 y          9.015574      9.051102     0.035528    Cartesian    0.39
    406 z          9.015574      9.051102     0.035528    Cartesian    0.39
    407 x          6.761681      6.764966     0.003285    Cartesian    0.05
    407 y        -11.269468    -11.252872     0.016596    Cartesian   -0.15
    407 z          2.253894      2.268547     0.014653    Cartesian    0.65
    408 x         11.269468     11.283474     0.014006    Cartesian    0.12
    408 y         -6.761681     -6.739023     0.022658    Cartesian   -0.34
    408 z          6.761681      6.767042     0.005361    Cartesian    0.08
    409 x          9.015574      9.024934     0.009359    Cartesian    0.10
    409 y         -9.015574     -9.048142    -0.032567    Cartesian    0.36
    409 z         -4.507787     -4.541608    -0.033821    Cartesian    0.75
    410 x          2.253894      2.253894     0.000000    Cartesian    0.00
    410 y          6.761681      6.764380     0.002700    Cartesian    0.04
    410 z        -11.269468    -11.231737     0.037731    Cartesian   -0.33
    411 x          6.761681      6.772144     0.010463    Cartesian    0.15
    411 y        -11.269468    -11.247780     0.021688    Cartesian   -0.19
    411 z         -2.253894     -2.234479     0.019414    Cartesian   -0.86
    412 x          6.761681      6.767715     0.006034    Cartesian    0.09
    412 y         11.269468     11.242704    -0.026764    Cartesian   -0.24
    412 z         -6.761681     -6.744930     0.016751    Cartesian   -0.25
    413 x         11.269468     11.283810     0.014342    Cartesian    0.13
    413 y          2.253894      2.246256    -0.007638    Cartesian   -0.34
    413 z         11.269468     11.262074    -0.007394    Cartesian   -0.07
    414 x         15.777255     15.754730    -0.022525    Cartesian   -0.14
    414 y          2.253894      2.258014     0.004121    Cartesian    0.18
    414 z          2.253894      2.258014     0.004121    Cartesian    0.18
    415 x         13.523362     13.522047    -0.001315    Cartesian   -0.01
    415 y         -4.507787     -4.521301    -0.013514    Cartesian    0.30
    415 z         -4.507787     -4.521301    -0.013514    Cartesian    0.30
    416 x          4.507787      4.536920     0.029133    Cartesian    0.65
    416 y         13.523362     13.569809     0.046447    Cartesian    0.34
    416 z         -4.507787     -4.519525    -0.011738    Cartesian    0.26
    417 x         13.523362     13.596146     0.072784    Cartesian    0.54
    417 y          0.000000     -0.010005    -0.010005    Cartesian    0.00
    417 z          9.015574      9.029054     0.013479    Cartesian    0.15
    418 x         11.269468     11.250737    -0.018731    Cartesian   -0.17
    418 y         11.269468     11.264609    -0.004859    Cartesian   -0.04
    418 z         -2.253894     -2.241070     0.012824    Cartesian   -0.57
    419 x         15.777255     15.756087    -0.021168    Cartesian   -0.13
    419 y          2.253894      2.252029    -0.001865    Cartesian   -0.08
    419 z         -2.253894     -2.246307     0.007587    Cartesian   -0.34
    420 x          9.015574      9.048029     0.032455    Cartesian    0.36
    420 y         13.523362     13.597786     0.074424    Cartesian    0.55
    420 z          0.000000      0.015345     0.015345    Cartesian    0.00
    421 x         13.523362     13.565085     0.041724    Cartesian    0.31
    421 y          4.507787      4.543199     0.035412    Cartesian    0.79
    421 z          9.015574      9.015573    -0.000001    Cartesian   -0.00
    422 x          6.761681      6.770641     0.008960    Cartesian    0.13
    422 y        -11.269468    -11.256535     0.012933    Cartesian   -0.11
    422 z          6.761681      6.751398    -0.010283    Cartesian   -0.15
    423 x          2.253894      2.253894     0.000000    Cartesian    0.00
    423 y         11.269468     11.241797    -0.027671    Cartesian   -0.25
    423 z         11.269468     11.241797    -0.027671    Cartesian   -0.25
    424 x         11.269468     11.277662     0.008194    Cartesian    0.07
    424 y         -6.761681     -6.748479     0.013202    Cartesian   -0.20
    424 z         -6.761681     -6.748479     0.013202    Cartesian   -0.20
    425 x         15.777255     15.766924    -0.010332    Cartesian   -0.07
    425 y         -2.253894     -2.245512     0.008382    Cartesian   -0.37
    425 z         -2.253894     -2.245512     0.008382    Cartesian   -0.37
    426 x          9.015574      9.031860     0.016286    Cartesian    0.18
    426 y         13.523362     13.594660     0.071298    Cartesian    0.53
    426 z          4.507787      4.487443    -0.020344    Cartesian   -0.45
    427 x          4.507787      4.488923    -0.018864    Cartesian   -0.42
    427 y         -9.015574     -9.014158     0.001417    Cartesian   -0.02
    427 z         -9.015574     -9.014158     0.001417    Cartesian   -0.02
    428 x          9.015574      9.040002     0.024427    Cartesian    0.27
    428 y          9.015574      9.070337     0.054762    Cartesian    0.61
    428 z         -9.015574     -9.068939    -0.053364    Cartesian    0.59
    429 x          2.253894      2.253894     0.000000    Cartesian    0.00
    429 y          2.253894      2.249975    -0.003919    Cartesian   -0.17
    429 z         15.777255     15.765236    -0.012020    Cartesian   -0.08
    430 x          2.253894      2.253894     0.000000    Cartesian    0.00
    430 y         -6.761681     -6.733414     0.028267    Cartesian   -0.42
    430 z        -11.269468    -11.248831     0.020637    Cartesian   -0.18
    431 x         11.269468     11.261827    -0.007641    Cartesian   -0.07
    431 y          6.761681      6.744365    -0.017316    Cartesian   -0.26
    431 z         11.269468     11.265622    -0.003846    Cartesian   -0.03
    432 x         15.777255     15.769168    -0.008087    Cartesian   -0.05
    432 y          2.253894      2.251721    -0.002173    Cartesian   -0.10
    432 z          6.761681      6.749369    -0.012312    Cartesian   -0.18
    433 x          4.507787      4.546027     0.038240    Cartesian    0.85
    433 y          0.000000      0.022369     0.022369    Cartesian    0.00
    433 z        -13.523362    -13.539637    -0.016275    Cartesian    0.12
    434 x         13.523362     13.574517     0.051155    Cartesian    0.38
    434 y          9.015574      9.026038     0.010464    Cartesian    0.12
    434 z         -4.507787     -4.533152    -0.025365    Cartesian    0.56
    435 x          4.507787      4.497860    -0.009927    Cartesian   -0.22
    435 y          9.015574      9.005985    -0.009590    Cartesian   -0.11
    435 z         13.523362     13.555351     0.031989    Cartesian    0.24
    436 x          2.253894      2.253894     0.000000    Cartesian    0.00
    436 y         15.777255     15.768499    -0.008756    Cartesian   -0.06
    436 z         -2.253894     -2.226735     0.027159    Cartesian   -1.20
    437 x          6.761681      6.769911     0.008230    Cartesian    0.12
    437 y         11.269468     11.266430    -0.003038    Cartesian   -0.03
    437 z         11.269468     11.266430    -0.003038    Cartesian   -0.03
    438 x         15.777255     15.771358    -0.005897    Cartesian   -0.04
    438 y          6.761681      6.773698     0.012017    Cartesian    0.18
    438 z         -2.253894     -2.235070     0.018824    Cartesian   -0.84
    439 x          4.507787      4.464447    -0.043340    Cartesian   -0.96
    439 y          4.507787      4.521950     0.014163    Cartesian    0.31
    439 z        -13.523362    -13.529162    -0.005800    Cartesian    0.04
    440 x          9.015574      8.998453    -0.017121    Cartesian   -0.19
    440 y         13.523362     13.565899     0.042537    Cartesian    0.31
    440 z         -4.507787     -4.514776    -0.006988    Cartesian    0.16
    441 x         13.523362     13.532689     0.009328    Cartesian    0.07
    441 y          0.000000      0.023034     0.023034    Cartesian    0.00
    441 z         -9.015574     -9.037847    -0.022273    Cartesian    0.25
    442 x          6.761681      6.769942     0.008261    Cartesian    0.12
    442 y         15.777255     15.775371    -0.001885    Cartesian   -0.01
    442 z          2.253894      2.262229     0.008335    Cartesian    0.37
    443 x          6.761681      6.767429     0.005748    Cartesian    0.09
    443 y         -6.761681     -6.747672     0.014009    Cartesian   -0.21
    443 z        -11.269468    -11.266766     0.002702    Cartesian   -0.02
    444 x         11.269468     11.278657     0.009189    Cartesian    0.08
    444 y          2.253894      2.271677     0.017784    Cartesian    0.79
    444 z        -11.269468    -11.250756     0.018712    Cartesian   -0.17
    445 x         13.523362     13.550012     0.026650    Cartesian    0.20
    445 y          4.507787      4.546618     0.038831    Cartesian    0.86
    445 z         -9.015574     -9.028618    -0.013044    Cartesian    0.14
    446 x          2.253894      2.253894     0.000000    Cartesian    0.00
    446 y          6.761681      6.767927     0.006247    Cartesian    0.09
    446 z         15.777255     15.765127    -0.012128    Cartesian   -0.08
    447 x          6.761681      6.750991    -0.010690    Cartesian   -0.16
    447 y         15.777255     15.767621    -0.009634    Cartesian   -0.06
    447 z         -2.253894     -2.269630    -0.015736    Cartesian    0.70
    448 x         11.269468     11.255482    -0.013986    Cartesian   -0.12
    448 y         -2.253894     -2.230735     0.023159    Cartesian   -1.03
    448 z        -11.269468    -11.268543     0.000925    Cartesian   -0.01
    449 x         11.269468     11.267457    -0.002011    Cartesian   -0.02
    449 y         -6.761681     -6.745396     0.016285    Cartesian   -0.24
    449 z         11.269468     11.261607    -0.007861    Cartesian   -0.07
    450 x         15.777255     15.761452    -0.015803    Cartesian   -0.10
    450 y          6.761681      6.772002     0.010321    Cartesian    0.15
    450 z          6.761681      6.772002     0.010321    Cartesian    0.15
    451 x         15.777255     15.772659    -0.004596    Cartesian   -0.03
    451 y          2.253894      2.248361    -0.005533    Cartesian   -0.25
    451 z         -6.761681     -6.733859     0.027822    Cartesian   -0.41
    452 x        -13.523362    -13.563563    -0.040201    Cartesian    0.30
    452 y          0.000000      0.028634     0.028634    Cartesian    0.00
    452 z          0.000000      0.028634     0.028634    Cartesian    0.00
    453 x          4.507787      4.491477    -0.016310    Cartesian   -0.36
    453 y         -4.507787     -4.489871     0.017917    Cartesian   -0.40
    453 z        -13.523362    -13.553880    -0.030518    Cartesian    0.23
    454 x          9.015574      9.031640     0.016065    Cartesian    0.18
    454 y         -9.015574     -9.037054    -0.021480    Cartesian    0.24
    454 z         -9.015574     -9.037054    -0.021480    Cartesian    0.24
    455 x         13.523362     13.612011     0.088650    Cartesian    0.66
    455 y          9.015574      9.032401     0.016827    Cartesian    0.19
    455 z          9.015574      9.032401     0.016827    Cartesian    0.19
    456 x          2.253894      2.253894     0.000000    Cartesian    0.00
    456 y         11.269468     11.248172    -0.021296    Cartesian   -0.19
    456 z        -11.269468    -11.272794    -0.003326    Cartesian    0.03
    457 x         15.777255     15.759458    -0.017798    Cartesian   -0.11
    457 y         -2.253894     -2.246502     0.007392    Cartesian   -0.33
    457 z         -6.761681     -6.764825    -0.003144    Cartesian    0.05
    458 x          4.507787      4.512344     0.004557    Cartesian    0.10
    458 y         13.523362     13.528986     0.005625    Cartesian    0.04
    458 z         -9.015574     -9.034561    -0.018986    Cartesian    0.21
    459 x          9.015574      8.994611    -0.020964    Cartesian   -0.23
    459 y          0.000000      0.002161     0.002161    Cartesian    0.00
    459 z        -13.523362    -13.578991    -0.055629    Cartesian    0.41
    460 x          9.015574      9.030736     0.015161    Cartesian    0.17
    460 y          9.015574      9.060910     0.045336    Cartesian    0.50
    460 z         13.523362     13.519873    -0.003488    Cartesian   -0.03
    461 x         13.523362     13.546701     0.023339    Cartesian    0.17
    461 y         -4.507787     -4.496389     0.011398    Cartesian   -0.25
    461 z         -9.015574     -8.995236     0.020338    Cartesian   -0.23
    462 x        -13.523362    -13.557282    -0.033920    Cartesian    0.25
    462 y          0.000000     -0.016737    -0.016737    Cartesian    0.00
    462 z          4.507787      4.492005    -0.015782    Cartesian   -0.35
    463 x          6.761681      6.756617    -0.005064    Cartesian   -0.07
    463 y          6.761681      6.759364    -0.002317    Cartesian   -0.03
    463 z         15.777255     15.785987     0.008732    Cartesian    0.06
    464 x         11.269468     11.254696    -0.014772    Cartesian   -0.13
    464 y          6.761681      6.762197     0.000516    Cartesian    0.01
    464 z        -11.269468    -11.268176     0.001292    Cartesian   -0.01
    465 x          9.015574      9.063616     0.048042    Cartesian    0.53
    465 y        -13.523362    -13.558588    -0.035227    Cartesian    0.26
    465 z          4.507787      4.525272     0.017485    Cartesian    0.39
    466 x        -13.523362    -13.533066    -0.009704    Cartesian    0.07
    466 y          4.507787      4.517421     0.009634    Cartesian    0.21
    466 z          4.507787      4.517421     0.009634    Cartesian    0.21
    467 x          2.253894      2.253894     0.000000    Cartesian    0.00
    467 y         15.777255     15.755732    -0.021523    Cartesian   -0.14
    467 z         -6.761681     -6.770661    -0.008980    Cartesian    0.13
    468 x          6.761681      6.763447     0.001766    Cartesian    0.03
    468 y         11.269468     11.284793     0.015325    Cartesian    0.14
    468 z        -11.269468    -11.245488     0.023980    Cartesian   -0.21
    469 x         15.777255     15.770591    -0.006664    Cartesian   -0.04
    469 y          6.761681      6.757487    -0.004194    Cartesian   -0.06
    469 z         -6.761681     -6.770998    -0.009317    Cartesian    0.14
    470 x          4.507787      4.512457     0.004670    Cartesian    0.10
    470 y          9.015574      9.025128     0.009554    Cartesian    0.11
    470 z        -13.523362    -13.546643    -0.023281    Cartesian    0.17
    471 x         13.523362     13.546974     0.023612    Cartesian    0.17
    471 y          0.000000     -0.016597    -0.016597    Cartesian    0.00
    471 z         13.523362     13.537484     0.014123    Cartesian    0.10
    472 x        -13.523362    -13.545891    -0.022529    Cartesian    0.17
    472 y          0.000000     -0.008355    -0.008355    Cartesian    0.00
    472 z         -4.507787     -4.532784    -0.024996    Cartesian    0.55
    473 x          2.253894      2.253894     0.000000    Cartesian    0.00
    473 y          2.253894      2.269740     0.015847    Cartesian    0.70
    473 z        -15.777255    -15.763912     0.013343    Cartesian   -0.08
    474 x         15.777255     15.770288    -0.006968    Cartesian   -0.04
    474 y         11.269468     11.270038     0.000570    Cartesian    0.01
    474 z          2.253894      2.247094    -0.006800    Cartesian   -0.30
    475 x         11.269468     11.260094    -0.009374    Cartesian   -0.08
    475 y         11.269468     11.273497     0.004029    Cartesian    0.04
    475 z         11.269468     11.273497     0.004029    Cartesian    0.04
--------------------------------------------------------------------------------


  Time to end of optimisation  =      772.2549 seconds


  Peak dynamic memory used =     542.38 MB 


  Timing analysis for GULP :

--------------------------------------------------------------------------------
  Task / Subroutine                                          Time (Seconds)
--------------------------------------------------------------------------------
  Calculation of reciprocal space energy and derivatives          0.0003
  Calculation of reciprocal space energy using symmetry           0.0005
  Calculation of real space energy and derivatives                0.0018
  Calculation of real space energy using symmetry                 0.0048
  Calculation for region 1 energy and derivatives (2-b)         374.0901
  Calculation for region 2a energy                              132.2242
  Calculation for region 2b energy                                0.0387
  Calculation and manipulation of Hessian matrix                238.0019
  Calculation of matrix inversion                                26.3021
  Symmetry generation of equivalent positions                     0.0026
--------------------------------------------------------------------------------
  Total CPU time                                                772.2551
--------------------------------------------------------------------------------


  Dump file written as Na3OCl.grs


  Job Finished at 15:14.56  1st December   2020                               

